      -----------------------------------------------------------      
     |                   =====================                   |     
     |                           x T B                           |     
     |                   =====================                   |     
     |                         S. Grimme                         |     
     |          Mulliken Center for Theoretical Chemistry        |     
     |                    University of Bonn                     |     
      -----------------------------------------------------------      

   * xtb version 6.5.1 (579679a) compiled by 'ehlert@majestix' on 2022-07-11

   xtb is free software: you can redistribute it and/or modify it under
   the terms of the GNU Lesser General Public License as published by
   the Free Software Foundation, either version 3 of the License, or
   (at your option) any later version.
   
   xtb is distributed in the hope that it will be useful,
   but WITHOUT ANY WARRANTY; without even the implied warranty of
   MERCHANTABILITY or FITNESS FOR A PARTICULAR PURPOSE.  See the
   GNU Lesser General Public License for more details.
   
   Cite this work as:
   * C. Bannwarth, E. Caldeweyher, S. Ehlert, A. Hansen, P. Pracht,
     J. Seibert, S. Spicher, S. Grimme, WIREs Comput. Mol. Sci., 2020, 11,
     e01493. DOI: 10.1002/wcms.1493
   
   for GFN2-xTB:
   * C. Bannwarth, S. Ehlert and S. Grimme., J. Chem. Theory Comput., 2019,
     15, 1652-1671. DOI: 10.1021/acs.jctc.8b01176
   for GFN1-xTB:
   * S. Grimme, C. Bannwarth, P. Shushkov, J. Chem. Theory Comput., 2017,
     13, 1989-2009. DOI: 10.1021/acs.jctc.7b00118
   for GFN0-xTB:
   * P. Pracht, E. Caldeweyher, S. Ehlert, S. Grimme, ChemRxiv, 2019, preprint.
     DOI: 10.26434/chemrxiv.8326202.v1
   for GFN-FF:
   * S. Spicher and S. Grimme, Angew. Chem. Int. Ed., 2020, 59, 15665-15673.
     DOI: 10.1002/anie.202004239
   
   for ALPB and GBSA implicit solvation:
   * S. Ehlert, M. Stahn, S. Spicher, S. Grimme, J. Chem. Theory Comput.,
     2021, 17, 4250-4261. DOI: 10.1021/acs.jctc.1c00471
   
   for DFT-D4:
   * E. Caldeweyher, C. Bannwarth and S. Grimme, J. Chem. Phys., 2017,
     147, 034112. DOI: 10.1063/1.4993215
   * E. Caldeweyher, S. Ehlert, A. Hansen, H. Neugebauer, S. Spicher,
     C. Bannwarth and S. Grimme, J. Chem. Phys., 2019, 150, 154122.
     DOI: 10.1063/1.5090222
   * E. Caldeweyher, J.-M. Mewes, S. Ehlert and S. Grimme, Phys. Chem. Chem. Phys.
     2020, 22, 8499-8512. DOI: 10.1039/D0CP00502A
   
   for sTDA-xTB:
   * S. Grimme and C. Bannwarth, J. Chem. Phys., 2016, 145, 054103.
     DOI: 10.1063/1.4959605
   
   in the mass-spec context:
   * V. Asgeirsson, C. Bauer and S. Grimme, Chem. Sci., 2017, 8, 4879.
     DOI: 10.1039/c7sc00601b
   * J. Koopman and S. Grimme, ACS Omega 2019, 4, 12, 15120-15133.
     DOI: 10.1021/acsomega.9b02011
   
   for metadynamics refer to:
   * S. Grimme, J. Chem. Theory Comput., 2019, 155, 2847-2862
     DOI: 10.1021/acs.jctc.9b00143
   
   for SPH calculations refer to:
   * S. Spicher and S. Grimme, J. Chem. Theory Comput., 2021, 17, 1701-1714
     DOI: 10.1021/acs.jctc.0c01306
   
   with help from (in alphabetical order)
   P. Atkinson, C. Bannwarth, F. Bohle, G. Brandenburg, E. Caldeweyher
   M. Checinski, S. Dohm, S. Ehlert, S. Ehrlich, I. Gerasimov, C. Hölzer
   A. Katbashev, J. Koopman, C. Lavigne, S. Lehtola, F. März, M. Müller,
   F. Musil, H. Neugebauer, J. Pisarek, C. Plett, P. Pracht, F. Pultar,
   J. Seibert, P. Shushkov, S. Spicher, M. Stahn, M. Steiner, T. Strunk,
   J. Stückrath, T. Rose, and J. Unsleber
   
 * started run on 2023/06/20 at 18:20:49.968     

           -------------------------------------------------
          |                Calculation Setup                |
           -------------------------------------------------

          program call               : /lustre/hpc/kemi/ree/PhD/git/ReactivityQM/dep/xtb-6.5.1/bin/xtb --gfn 1 /lustre/hpc/kemi/ree/PhD/git/ReactivityQM/calculations/R02deprot/reac01prodN12/conf15/R02deprot_reac01prodN12_conf15_gfn1.xyz --opt --vfukui --chrg 0 --uhf 0 --alpb DMSO
          hostname                   : node308
          coordinate file            : /lustre/hpc/kemi/ree/PhD/git/ReactivityQM/calculations/R02deprot/reac01prodN12/conf15/R02deprot_reac01prodN12_conf15_gfn1.xyz
          omp threads                :                     1

   ID    Z sym.   atoms
    1    6 C      1, 3, 5, 7-10, 12, 13, 15, 18, 19, 22, 24
    2    8 O      2, 4, 14, 20, 23, 25
    3    7 N      6, 11, 16, 17, 21
    4    1 H      26-42

           -------------------------------------------------
          |                 G F N 1 - x T B                 |
           -------------------------------------------------

        Reference                      10.1021/acs.jctc.7b00118
      * Hamiltonian:
        H0-scaling (s, p, d)           1.850000    2.250000    2.000000
        zeta-weighting                 0.000000
      * Dispersion:
        s8                             2.400000
        a1                             0.630000
        a2                             5.000000
        s9                             0.000000
      * Repulsion:
        kExp                           1.500000
        rExp                           1.000000
      * Coulomb:
        alpha                          2.000000
        third order                    atomic
        anisotropic                    false
      * Halogen bond correction:
        rad-scale                      1.300000
        damping                        0.440000

      * Solvation model:               ALPB
        Solvent                        DMSO
        Parameter file                 internal GFN1-xTB/ALPB
        Dielectric constant                4.6680E+01
        Reference state                gsolv [1 M gas/solution]
        Free energy shift                  7.6243E-03 Eh       4.7843E+00 kcal/mol
        Temperature                        2.9815E+02 K
        Density                            1.1000E+00 kg/L
        Solvent mass                       7.8130E+01 g/mol
        Interaction kernel             P16
        Born radius scaling (c1)           1.7672E+00
        Born radii integrator          GBOBC
        Born offset                        0.0000E+00 a0       0.0000E+00 AA
        H-bond correction              true
        Ion screening                  false
        Surface tension                    1.0000E-05 Eh       1.5569E+01 dyn/cm
        Grid points                               230 per atom

          ...................................................
          :                      SETUP                      :
          :.................................................:
          :  # basis functions                 134          :
          :  # atomic orbitals                 134          :
          :  # shells                           84          :
          :  # electrons                       134          :
          :  # halogen bonds                     0          :
          :  max. iterations                   250          :
          :  Hamiltonian                  GFN1-xTB          :
          :  restarted?                      false          :
          :  GBSA solvation                   true          :
          :  PC potential                    false          :
          :  electronic temp.          300.0000000     K    :
          :  accuracy                    1.0000000          :
          :  -> integral cutoff          0.2500000E+02      :
          :  -> integral neglect         0.1000000E-07      :
          :  -> SCF convergence          0.1000000E-05 Eh   :
          :  -> wf. convergence          0.2000000E-04 e    :
          :  Broyden damping             0.4000000          :
          ...................................................

 iter      E             dE          RMSdq      gap      omega  full diag
   1    -83.0992256 -0.830992E+02  0.850E+00    0.15       0.0  T
   2    -83.3265307 -0.227305E+00  0.527E+00    0.16       1.0  T
   3    -81.5193335  0.180720E+01  0.523E+00    0.39       1.0  T
   4    -83.2799211 -0.176059E+01  0.270E+00    0.20       1.0  T
   5    -83.3901001 -0.110179E+00  0.146E+00    0.18       1.0  T
   6    -83.5277943 -0.137694E+00  0.841E-01    0.06       1.0  T
   7    -83.5091934  0.186008E-01  0.855E-01    0.08       1.0  T
   8    -83.4710415  0.381520E-01  0.120E+00    0.29       1.0  T
   9    -83.5057436 -0.347021E-01  0.807E-01    0.17       1.0  T
  10    -83.5101017 -0.435808E-02  0.813E-01    0.19       1.0  T
  11    -83.5541279 -0.440262E-01  0.480E-01    0.10       1.0  T
  12    -83.5639679 -0.984005E-02  0.372E-01    0.04       1.0  T
  13    -83.5609660  0.300195E-02  0.387E-01    0.08       1.0  T
  14    -83.5704725 -0.950654E-02  0.282E-01    0.04       1.0  T
  15    -83.5781457 -0.767315E-02  0.107E-01    0.05       1.0  T
  16    -83.5795992 -0.145355E-02  0.128E-02    0.04       1.2  T
  17    -83.5796073 -0.806508E-05  0.696E-03    0.04       2.2  T
  18    -83.5796018  0.551697E-05  0.941E-03    0.04       1.6  T
  19    -83.5796117 -0.990609E-05  0.867E-04    0.04      17.8  T
  20    -83.5796083  0.332673E-05  0.538E-03    0.04       2.9  T
  21    -83.5796111 -0.275241E-05  0.236E-03    0.04       6.5  T
  22    -83.5796117 -0.640931E-06  0.366E-04    0.04      42.1  T
  23    -83.5796118 -0.165075E-07  0.298E-05    0.04     517.6  T
  24    -83.5796118 -0.767528E-10  0.754E-06    0.04    2045.1  T

   *** convergence criteria satisfied after 24 iterations ***

         #    Occupation            Energy/Eh            Energy/eV
      -------------------------------------------------------------
         1        2.0000           -0.8743971             -23.7936
       ...           ...                  ...                  ...
        61        2.0000           -0.4691175             -12.7653
        62        2.0000           -0.4621725             -12.5764
        63        2.0000           -0.4591970             -12.4954
        64        2.0000           -0.4547643             -12.3748
        65        1.9976           -0.4391849             -11.9508
        66        1.9692           -0.4367452             -11.8844
        67        1.3880           -0.4335737             -11.7981 (HOMO)
        68        0.6452           -0.4320910             -11.7578 (LUMO)
        69                         -0.3360065              -9.1432
        70                         -0.2908839              -7.9154
        71                         -0.2895356              -7.8787
        72                         -0.2603959              -7.0857
       ...                                ...                  ...
       134                          0.6893958              18.7594
      -------------------------------------------------------------
                  HL-Gap            0.0014826 Eh            0.0403 eV
             Fermi-level           -0.4327957 Eh          -11.7770 eV

 SCC (total)                   0 d,  0 h,  0 min,  0.272 sec
 SCC setup                      ...        0 min,  0.002 sec (  0.851%)
 Dispersion                     ...        0 min,  0.000 sec (  0.160%)
 classical contributions        ...        0 min,  0.000 sec (  0.051%)
 integral evaluation            ...        0 min,  0.092 sec ( 33.714%)
 iterations                     ...        0 min,  0.092 sec ( 33.844%)
 molecular gradient             ...        0 min,  0.084 sec ( 31.010%)
 printout                       ...        0 min,  0.001 sec (  0.351%)

         :::::::::::::::::::::::::::::::::::::::::::::::::::::
         ::                     SUMMARY                     ::
         :::::::::::::::::::::::::::::::::::::::::::::::::::::
         :: total energy             -82.842299338167 Eh    ::
         :: total w/o Gsasa/hb       -82.821189819650 Eh    ::
         :: gradient norm              0.136811171546 Eh/a0 ::
         :: HOMO-LUMO gap              0.040344400218 eV    ::
         ::.................................................::
         :: SCC energy               -83.579611752875 Eh    ::
         :: -> electrostatic           0.355789294754 Eh    ::
         :: -> Gsolv                  -0.057800238304 Eh    ::
         ::    -> Gelec               -0.036690719787 Eh    ::
         ::    -> Gsasa               -0.023520794719 Eh    ::
         ::    -> Ghb                 -0.005213002802 Eh    ::
         ::    -> Gshift               0.007624279005 Eh    ::
         :: repulsion energy           0.764232436350 Eh    ::
         :: dispersion energy         -0.026920021643 Eh    ::
         :: halogen bond corr.         0.000000000000 Eh    ::
         :: add. restraining           0.000000000000 Eh    ::
         :: total charge               0.000000000018 e     ::
         :::::::::::::::::::::::::::::::::::::::::::::::::::::

      ----------------------------------------------------------- 
     |                   =====================                   |
     |                        A N C O P T                        |
     |                   =====================                   |
     |               Approximate Normal Coordinate               |
     |                Rational Function Optimizer                |
      ----------------------------------------------------------- 

          ...................................................
          :                      SETUP                      :
          :.................................................:
          :   optimization level            normal          :
          :   max. optcycles                   200          :
          :   ANC micro-cycles                  20          :
          :   degrees of freedom               120          :
          :.................................................:
          :   RF solver                   davidson          :
          :   write xtbopt.log                true          :
          :   linear?                        false          :
          :   energy convergence         0.5000000E-05 Eh   :
          :   grad. convergence          0.1000000E-02 Eh/α :
          :   maximium RF displ.         1.0000000          :
          :   Hlow (freq-cutoff)         0.1000000E-01      :
          :   Hmax (freq-cutoff)         5.0000000          :
          :   S6 in model hess.         20.0000000          :
          ...................................................

generating ANC from model Hessian ...
Using Lindh-Hessian (1995)
 Shifting diagonal of input Hessian by   9.789976727818915E-003
 Lowest  eigenvalues of input Hessian
    0.000000    0.000000    0.000000    0.000000    0.000000    0.000000
    0.010000    0.010064    0.010574    0.010700    0.011771    0.012625
    0.012973    0.014396    0.014586    0.015113    0.016436    0.017638
 Highest eigenvalues
    1.984956    2.029699    2.101219    2.187332    2.294294    2.380354
 

........................................................................
.............................. CYCLE    1 ..............................
........................................................................
   1    -83.5796118 -0.835796E+02  0.417E-05    0.04       0.0  T
   2    -83.5796117  0.813895E-07  0.824E-04    0.04      18.7  T
   3    -83.5796118 -0.815936E-07  0.431E-06    0.04    3580.5  T
   4    -83.5796118 -0.240163E-11  0.787E-07    0.04   19603.0  T
     SCC iter.                  ...        0 min,  0.014 sec
     gradient                   ...        0 min,  0.084 sec
 * total energy  :   -82.8422993 Eh     change       -0.4789058E-11 Eh
   gradient norm :     0.1368110 Eh/α   predicted     0.0000000E+00 (-100.00%)
   displ. norm   :     0.3157569 α      lambda       -0.2165107E-01
   maximum displ.:     0.1209544 α      in ANC's #27, #47, #26, ...

........................................................................
.............................. CYCLE    2 ..............................
........................................................................
   1    -83.5870109 -0.835870E+02  0.332E-01    0.08       0.0  T
   2    -83.4284769  0.158534E+00  0.129E+00    0.18       1.0  T
   3    -83.5338259 -0.105349E+00  0.768E-01    0.08       1.0  T
   4    -83.5397962 -0.597028E-02  0.709E-01    0.17       1.0  T
   5    -83.5701722 -0.303760E-01  0.506E-01    0.06       1.0  T
   6    -83.5956683 -0.254961E-01  0.193E-01    0.07       1.0  T
   7    -83.5991622 -0.349390E-02  0.797E-02    0.05       1.0  T
   8    -83.5967443  0.241797E-02  0.168E-01    0.04       1.0  T
   9    -83.5994583 -0.271403E-02  0.665E-02    0.05       1.0  T
  10    -83.5999519 -0.493567E-03  0.186E-02    0.05       1.0  T
  11    -83.5999906 -0.386900E-04  0.724E-04    0.05      21.3  T
  12    -83.5999904  0.123571E-06  0.118E-03    0.05      13.0  T
  13    -83.5999904 -0.962707E-08  0.115E-03    0.05      13.4  T
  14    -83.5999906 -0.153440E-06  0.148E-04    0.05     104.2  T
  15    -83.5999906 -0.250849E-08  0.226E-05    0.05     682.8  T
     SCC iter.                  ...        0 min,  0.050 sec
     gradient                   ...        0 min,  0.085 sec
 * total energy  :   -82.8582667 Eh     change       -0.1596732E-01 Eh
   gradient norm :     0.0741342 Eh/α   predicted    -0.1191623E-01 ( -25.37%)
   displ. norm   :     0.3407969 α      lambda       -0.1123177E-01
   maximum displ.:     0.1241914 α      in ANC's #27, #10, #33, ...

........................................................................
.............................. CYCLE    3 ..............................
........................................................................
   1    -83.5984461 -0.835984E+02  0.377E-01    0.10       0.0  T
   2    -83.4367390  0.161707E+00  0.133E+00    0.20       1.0  T
   3    -83.5077842 -0.710451E-01  0.967E-01    0.13       1.0  T
   4    -83.5955486 -0.877644E-01  0.435E-01    0.06       1.0  T
   5    -83.6141039 -0.185552E-01  0.131E-01    0.06       1.0  T
   6    -83.6133943  0.709531E-03  0.140E-01    0.07       1.0  T
   7    -83.6158385 -0.244412E-02  0.348E-02    0.06       1.0  T
   8    -83.6157292  0.109251E-03  0.419E-02    0.06       1.0  T
   9    -83.6159045 -0.175261E-03  0.182E-02    0.06       1.0  T
  10    -83.6159281 -0.236759E-04  0.107E-02    0.06       1.4  T
  11    -83.6159395 -0.113348E-04  0.459E-03    0.06       3.4  T
  12    -83.6159419 -0.244215E-05  0.634E-04    0.06      24.3  T
  13    -83.6159420 -0.433716E-07  0.342E-05    0.06     450.6  T
  14    -83.6159420  0.495720E-08  0.204E-04    0.06      75.5  T
  15    -83.6159420 -0.498933E-08  0.139E-05    0.06    1110.3  T
     SCC iter.                  ...        0 min,  0.050 sec
     gradient                   ...        0 min,  0.085 sec
 * total energy  :   -82.8650388 Eh     change       -0.6772141E-02 Eh
   gradient norm :     0.0231394 Eh/α   predicted    -0.6271695E-02 (  -7.39%)
   displ. norm   :     0.2755745 α      lambda       -0.2038365E-02
   maximum displ.:     0.1192295 α      in ANC's #10, #8, #17, ...

........................................................................
.............................. CYCLE    4 ..............................
........................................................................
   1    -83.6137695 -0.836138E+02  0.199E-01    0.08       0.0  T
   2    -83.4579316  0.155838E+00  0.120E+00    0.18       1.0  T
   3    -83.5976095 -0.139678E+00  0.424E-01    0.07       1.0  T
   4    -83.6187647 -0.211552E-01  0.318E-02    0.07       1.0  T
   5    -83.6188000 -0.353453E-04  0.141E-02    0.07       1.1  T
   6    -83.6187750  0.250544E-04  0.162E-02    0.07       1.0  T
   7    -83.6188095 -0.344728E-04  0.187E-03    0.07       8.3  T
   8    -83.6188080  0.147380E-05  0.363E-03    0.07       4.3  T
   9    -83.6188091 -0.107930E-05  0.200E-03    0.07       7.7  T
  10    -83.6188095 -0.422442E-06  0.673E-04    0.07      22.9  T
  11    -83.6188095 -0.511808E-07  0.216E-04    0.07      71.5  T
  12    -83.6188095  0.111579E-07  0.370E-04    0.07      41.7  T
  13    -83.6188095 -0.162036E-07  0.408E-05    0.07     378.4  T
  14    -83.6188095 -0.182453E-09  0.105E-05    0.07    1464.4  T
     SCC iter.                  ...        0 min,  0.047 sec
     gradient                   ...        0 min,  0.085 sec
 * total energy  :   -82.8665699 Eh     change       -0.1531125E-02 Eh
   gradient norm :     0.0150511 Eh/α   predicted    -0.1096612E-02 ( -28.38%)
   displ. norm   :     0.3861681 α      lambda       -0.1660498E-02
   maximum displ.:     0.1726442 α      in ANC's #10, #3, #8, ...

........................................................................
.............................. CYCLE    5 ..............................
........................................................................
   1    -83.6141971 -0.836142E+02  0.232E-01    0.09       0.0  T
   2    -83.4552252  0.158972E+00  0.122E+00    0.18       1.0  T
   3    -83.5886692 -0.133444E+00  0.521E-01    0.08       1.0  T
   4    -83.6198806 -0.312114E-01  0.103E-01    0.07       1.0  T
   5    -83.6201443 -0.263656E-03  0.829E-02    0.08       1.0  T
   6    -83.6203959 -0.251621E-03  0.677E-02    0.08       1.0  T
   7    -83.6209812 -0.585327E-03  0.759E-03    0.07       2.0  T
   8    -83.6209159  0.653904E-04  0.243E-02    0.07       1.0  T
   9    -83.6209853 -0.694756E-04  0.447E-03    0.07       3.5  T
  10    -83.6209857 -0.322713E-06  0.420E-03    0.07       3.7  T
  11    -83.6209877 -0.208294E-05  0.612E-04    0.07      25.2  T
  12    -83.6209878 -0.380853E-07  0.223E-04    0.07      69.3  T
  13    -83.6209878 -0.555646E-08  0.682E-05    0.07     226.2  T
  14    -83.6209878 -0.536090E-09  0.963E-06    0.07    1603.1  T
     SCC iter.                  ...        0 min,  0.048 sec
     gradient                   ...        0 min,  0.085 sec
 * total energy  :   -82.8677391 Eh     change       -0.1169200E-02 Eh
   gradient norm :     0.0115364 Eh/α   predicted    -0.9540619E-03 ( -18.40%)
   displ. norm   :     0.3500514 α      lambda       -0.8147946E-03
   maximum displ.:     0.1625046 α      in ANC's #3, #10, #1, ...

........................................................................
.............................. CYCLE    6 ..............................
........................................................................
   1    -83.6188155 -0.836188E+02  0.171E-01    0.09       0.0  T
   2    -83.4637852  0.155030E+00  0.117E+00    0.17       1.0  T
   3    -83.6125273 -0.148742E+00  0.288E-01    0.07       1.0  T
   4    -83.6223602 -0.983287E-02  0.356E-02    0.07       1.0  T
   5    -83.6216894  0.670795E-03  0.817E-02    0.08       1.0  T
   6    -83.6223972 -0.707761E-03  0.288E-02    0.08       1.0  T
   7    -83.6223896  0.754381E-05  0.310E-02    0.07       1.0  T
   8    -83.6225048 -0.115201E-03  0.188E-03    0.07       8.2  T
   9    -83.6225034  0.138770E-05  0.385E-03    0.07       4.0  T
  10    -83.6225052 -0.178581E-05  0.382E-04    0.07      40.4  T
  11    -83.6225052  0.128141E-07  0.491E-04    0.07      31.5  T
  12    -83.6225052 -0.236558E-07  0.224E-04    0.07      68.9  T
  13    -83.6225052 -0.556194E-08  0.648E-05    0.07     238.0  T
  14    -83.6225052 -0.502041E-09  0.367E-06    0.07    4200.2  T
     SCC iter.                  ...        0 min,  0.049 sec
     gradient                   ...        0 min,  0.084 sec
 * total energy  :   -82.8683302 Eh     change       -0.5910238E-03 Eh
   gradient norm :     0.0101435 Eh/α   predicted    -0.4573474E-03 ( -22.62%)
   displ. norm   :     0.3246495 α      lambda       -0.5166649E-03
   maximum displ.:     0.1775792 α      in ANC's #3, #10, #1, ...

........................................................................
.............................. CYCLE    7 ..............................
........................................................................
   1    -83.6221072 -0.836221E+02  0.120E-01    0.08       0.0  T
   2    -83.4738298  0.148277E+00  0.113E+00    0.17       1.0  T
   3    -83.6215003 -0.147670E+00  0.142E-01    0.07       1.0  T
   4    -83.6238905 -0.239027E-02  0.246E-02    0.07       1.0  T
   5    -83.6238765  0.140044E-04  0.242E-02    0.07       1.0  T
   6    -83.6239403 -0.637942E-04  0.821E-03    0.07       1.9  T
   7    -83.6239362  0.415311E-05  0.101E-02    0.07       1.5  T
   8    -83.6239484 -0.121719E-04  0.501E-04    0.07      30.8  T
   9    -83.6239483  0.953005E-07  0.992E-04    0.07      15.6  T
  10    -83.6239484 -0.106000E-06  0.324E-04    0.07      47.7  T
  11    -83.6239484 -0.117109E-07  0.102E-04    0.07     150.6  T
  12    -83.6239484 -0.603890E-09  0.770E-05    0.07     200.4  T
     SCC iter.                  ...        0 min,  0.044 sec
     gradient                   ...        0 min,  0.084 sec
 * total energy  :   -82.8687169 Eh     change       -0.3867142E-03 Eh
   gradient norm :     0.0080642 Eh/α   predicted    -0.2856130E-03 ( -26.14%)
   displ. norm   :     0.3090184 α      lambda       -0.3873516E-03
   maximum displ.:     0.1866721 α      in ANC's #3, #1, #10, ...

........................................................................
.............................. CYCLE    8 ..............................
........................................................................
   1    -83.6243156 -0.836243E+02  0.803E-02    0.08       0.0  T
   2    -83.4973425  0.126973E+00  0.103E+00    0.16       1.0  T
   3    -83.6245969 -0.127254E+00  0.660E-02    0.07       1.0  T
   4    -83.6251182 -0.521250E-03  0.165E-02    0.07       1.0  T
   5    -83.6251336 -0.154725E-04  0.462E-03    0.07       3.3  T
   6    -83.6251339 -0.254778E-06  0.327E-03    0.07       4.7  T
   7    -83.6251340 -0.827242E-07  0.203E-03    0.07       7.6  T
   8    -83.6251344 -0.476985E-06  0.141E-04    0.07     109.7  T
   9    -83.6251344  0.717837E-08  0.266E-04    0.07      58.1  T
  10    -83.6251344 -0.828307E-08  0.131E-05    0.07    1175.4  T
     SCC iter.                  ...        0 min,  0.035 sec
     gradient                   ...        0 min,  0.084 sec
 * total energy  :   -82.8690153 Eh     change       -0.2984750E-03 Eh
   gradient norm :     0.0068174 Eh/α   predicted    -0.2121710E-03 ( -28.91%)
   displ. norm   :     0.3161538 α      lambda       -0.3320801E-03
   maximum displ.:     0.1989806 α      in ANC's #3, #1, #2, ...

........................................................................
.............................. CYCLE    9 ..............................
........................................................................
   1    -83.6254091 -0.836254E+02  0.580E-02    0.07       0.0  T
   2    -83.5308970  0.945121E-01  0.882E-01    0.12       1.0  T
   3    -83.6256435 -0.947465E-01  0.394E-02    0.07       1.0  T
   4    -83.6258259 -0.182408E-03  0.125E-02    0.07       1.2  T
   5    -83.6258321 -0.623996E-05  0.586E-03    0.07       2.6  T
   6    -83.6258348 -0.266452E-05  0.246E-03    0.07       6.3  T
   7    -83.6258353 -0.525555E-06  0.316E-04    0.07      48.8  T
   8    -83.6258353 -0.965380E-08  0.103E-04    0.07     149.7  T
   9    -83.6258353 -0.278575E-09  0.773E-05    0.07     199.6  T
     SCC iter.                  ...        0 min,  0.032 sec
     gradient                   ...        0 min,  0.084 sec
 * total energy  :   -82.8692833 Eh     change       -0.2680094E-03 Eh
   gradient norm :     0.0070229 Eh/α   predicted    -0.1826366E-03 ( -31.85%)
   displ. norm   :     0.3661570 α      lambda       -0.3459348E-03
   maximum displ.:     0.2298876 α      in ANC's #3, #1, #2, ...

........................................................................
.............................. CYCLE   10 ..............................
........................................................................
   1    -83.6256013 -0.836256E+02  0.567E-02    0.07       0.0  T
   2    -83.5332339  0.923675E-01  0.872E-01    0.12       1.0  T
   3    -83.6258696 -0.926357E-01  0.334E-02    0.07       1.0  T
   4    -83.6259967 -0.127115E-03  0.114E-02    0.07       1.4  T
   5    -83.6260030 -0.630751E-05  0.540E-03    0.07       2.9  T
   6    -83.6260057 -0.266025E-05  0.191E-03    0.07       8.1  T
   7    -83.6260060 -0.301497E-06  0.179E-04    0.07      86.4  T
   8    -83.6260060 -0.147961E-08  0.104E-04    0.07     148.4  T
     SCC iter.                  ...        0 min,  0.030 sec
     gradient                   ...        0 min,  0.084 sec
 * total energy  :   -82.8695707 Eh     change       -0.2873465E-03 Eh
   gradient norm :     0.0075913 Eh/α   predicted    -0.1961587E-03 ( -31.73%)
   displ. norm   :     0.4371851 α      lambda       -0.3884698E-03
   maximum displ.:     0.2690553 α      in ANC's #3, #1, #2, ...

........................................................................
.............................. CYCLE   11 ..............................
........................................................................
   1    -83.6253276 -0.836253E+02  0.644E-02    0.07       0.0  T
   2    -83.5196285  0.105699E+00  0.935E-01    0.13       1.0  T
   3    -83.6257321 -0.106104E+00  0.306E-02    0.07       1.0  T
   4    -83.6258358 -0.103676E-03  0.102E-02    0.07       1.5  T
   5    -83.6258402 -0.436857E-05  0.626E-03    0.07       2.5  T
   6    -83.6258444 -0.422812E-05  0.137E-03    0.07      11.3  T
   7    -83.6258445 -0.737879E-07  0.246E-04    0.07      62.7  T
   8    -83.6258445 -0.428555E-08  0.551E-05    0.07     280.0  T
   9    -83.6258445  0.452246E-09  0.699E-05    0.07     220.7  T
     SCC iter.                  ...        0 min,  0.034 sec
     gradient                   ...        0 min,  0.084 sec
 * total energy  :   -82.8699027 Eh     change       -0.3320410E-03 Eh
   gradient norm :     0.0078051 Eh/α   predicted    -0.2313679E-03 ( -30.32%)
   displ. norm   :     0.5401816 α      lambda       -0.4501631E-03
   maximum displ.:     0.3261257 α      in ANC's #3, #1, #2, ...

........................................................................
.............................. CYCLE   12 ..............................
........................................................................
   1    -83.6244911 -0.836245E+02  0.788E-02    0.07       0.0  T
   2    -83.5000840  0.124407E+00  0.102E+00    0.16       1.0  T
   3    -83.6251371 -0.125053E+00  0.315E-02    0.07       1.0  T
   4    -83.6252500 -0.112893E-03  0.584E-03    0.07       2.6  T
   5    -83.6252443  0.574077E-05  0.826E-03    0.07       1.9  T
   6    -83.6252519 -0.762334E-05  0.176E-03    0.07       8.8  T
   7    -83.6252520 -0.123407E-06  0.794E-04    0.07      19.4  T
   8    -83.6252521 -0.666342E-07  0.178E-04    0.07      86.6  T
   9    -83.6252521  0.275236E-09  0.185E-04    0.07      83.3  T
     SCC iter.                  ...        0 min,  0.031 sec
     gradient                   ...        0 min,  0.084 sec
 * total energy  :   -82.8702738 Eh     change       -0.3710538E-03 Eh
   gradient norm :     0.0078973 Eh/α   predicted    -0.2907631E-03 ( -21.64%)
   displ. norm   :     0.5336586 α      lambda       -0.3882544E-03
   maximum displ.:     0.3154587 α      in ANC's #3, #1, #2, ...

........................................................................
.............................. CYCLE   13 ..............................
........................................................................
   1    -83.6246586 -0.836247E+02  0.776E-02    0.08       0.0  T
   2    -83.5044895  0.120169E+00  0.100E+00    0.16       1.0  T
   3    -83.6253527 -0.120863E+00  0.179E-02    0.07       1.0  T
   4    -83.6253733 -0.206604E-04  0.882E-03    0.07       1.8  T
   5    -83.6253760 -0.267380E-05  0.768E-03    0.07       2.0  T
   6    -83.6253825 -0.647574E-05  0.135E-03    0.07      11.5  T
   7    -83.6253825 -0.414667E-07  0.279E-04    0.07      55.4  T
   8    -83.6253825  0.296127E-08  0.187E-04    0.07      82.6  T
   9    -83.6253825  0.249656E-09  0.191E-04    0.07      80.6  T
     SCC iter.                  ...        0 min,  0.030 sec
     gradient                   ...        0 min,  0.084 sec
 * total energy  :   -82.8705827 Eh     change       -0.3089482E-03 Eh
   gradient norm :     0.0075839 Eh/α   predicted    -0.2494140E-03 ( -19.27%)
   displ. norm   :     0.5219853 α      lambda       -0.3386977E-03
   maximum displ.:     0.2995332 α      in ANC's #3, #1, #2, ...

........................................................................
.............................. CYCLE   14 ..............................
........................................................................
   1    -83.6253230 -0.836253E+02  0.723E-02    0.08       0.0  T
   2    -83.5160183  0.109305E+00  0.952E-01    0.15       1.0  T
   3    -83.6259340 -0.109916E+00  0.102E-02    0.08       1.5  T
   4    -83.6259242  0.977246E-05  0.109E-02    0.07       1.4  T
   5    -83.6259327 -0.846619E-05  0.757E-03    0.08       2.0  T
   6    -83.6259383 -0.562527E-05  0.198E-03    0.08       7.8  T
   7    -83.6259386 -0.228094E-06  0.709E-04    0.07      21.8  T
   8    -83.6259386 -0.532325E-07  0.760E-05    0.07     202.9  T
   9    -83.6259386  0.258252E-08  0.156E-04    0.07      99.0  T
     SCC iter.                  ...        0 min,  0.030 sec
     gradient                   ...        0 min,  0.084 sec
 * total energy  :   -82.8708598 Eh     change       -0.2770906E-03 Eh
   gradient norm :     0.0069392 Eh/α   predicted    -0.2154968E-03 ( -22.23%)
   displ. norm   :     0.5186293 α      lambda       -0.3337892E-03
   maximum displ.:     0.2973114 α      in ANC's #1, #3, #4, ...

........................................................................
.............................. CYCLE   15 ..............................
........................................................................
   1    -83.6273663 -0.836274E+02  0.662E-02    0.08       0.0  T
   2    -83.5317781  0.955882E-01  0.889E-01    0.13       1.0  T
   3    -83.6278489 -0.960708E-01  0.146E-02    0.08       1.1  T
   4    -83.6278599 -0.109820E-04  0.901E-03    0.08       1.7  T
   5    -83.6278613 -0.139905E-05  0.838E-03    0.08       1.8  T
   6    -83.6278683 -0.699097E-05  0.235E-03    0.08       6.6  T
   7    -83.6278686 -0.271896E-06  0.110E-03    0.08      14.1  T
   8    -83.6278687 -0.133281E-06  0.194E-04    0.08      79.3  T
   9    -83.6278687 -0.252106E-08  0.111E-04    0.08     139.0  T
     SCC iter.                  ...        0 min,  0.030 sec
     gradient                   ...        0 min,  0.085 sec
 * total energy  :   -82.8711145 Eh     change       -0.2547014E-03 Eh
   gradient norm :     0.0066720 Eh/α   predicted    -0.2117878E-03 ( -16.85%)
   displ. norm   :     0.4326209 α      lambda       -0.2460204E-03
   maximum displ.:     0.2490302 α      in ANC's #1, #3, #4, ...

........................................................................
.............................. CYCLE   16 ..............................
........................................................................
   1    -83.6276593 -0.836277E+02  0.574E-02    0.09       0.0  T
   2    -83.5497685  0.778909E-01  0.802E-01    0.12       1.0  T
   3    -83.6280076 -0.782391E-01  0.149E-02    0.08       1.0  T
   4    -83.6280300 -0.223796E-04  0.405E-03    0.08       3.8  T
   5    -83.6280275  0.252309E-05  0.572E-03    0.08       2.7  T
   6    -83.6280306 -0.316732E-05  0.127E-03    0.08      12.2  T
   7    -83.6280306  0.984762E-08  0.815E-04    0.08      18.9  T
   8    -83.6280307 -0.653824E-07  0.260E-04    0.08      59.4  T
   9    -83.6280307 -0.680805E-08  0.728E-05    0.08     211.9  T
  10    -83.6280307 -0.488569E-09  0.214E-05    0.08     720.9  T
     SCC iter.                  ...        0 min,  0.034 sec
     gradient                   ...        0 min,  0.085 sec
 * total energy  :   -82.8712975 Eh     change       -0.1829221E-03 Eh
   gradient norm :     0.0068538 Eh/α   predicted    -0.1460352E-03 ( -20.17%)
   displ. norm   :     0.3352383 α      lambda       -0.2597693E-03
   maximum displ.:     0.1832500 α      in ANC's #1, #4, #3, ...

........................................................................
.............................. CYCLE   17 ..............................
........................................................................
   1    -83.6327859 -0.836328E+02  0.416E-02    0.09       0.0  T
   2    -83.5888840  0.439019E-01  0.601E-01    0.10       1.0  T
   3    -83.6329054 -0.440214E-01  0.231E-02    0.09       1.0  T
   4    -83.6329629 -0.575026E-04  0.689E-03    0.08       2.2  T
   5    -83.6329630 -0.150770E-06  0.633E-03    0.08       2.4  T
   6    -83.6329668 -0.370357E-05  0.953E-04    0.08      16.2  T
   7    -83.6329668 -0.120145E-07  0.459E-04    0.08      33.6  T
   8    -83.6329668 -0.187066E-07  0.131E-04    0.08     117.5  T
   9    -83.6329668 -0.998753E-09  0.712E-05    0.08     216.8  T
     SCC iter.                  ...        0 min,  0.030 sec
     gradient                   ...        0 min,  0.092 sec
 * total energy  :   -82.8714468 Eh     change       -0.1493384E-03 Eh
   gradient norm :     0.0083742 Eh/α   predicted    -0.1444829E-03 (  -3.25%)
   displ. norm   :     0.4860746 α      lambda       -0.2761981E-03
   maximum displ.:     0.2735134 α      in ANC's #1, #4, #3, ...

........................................................................
.............................. CYCLE   18 ..............................
........................................................................
   1    -83.6291730 -0.836292E+02  0.761E-02    0.09       0.0  T
   2    -83.5211602  0.108013E+00  0.948E-01    0.15       1.0  T
   3    -83.6298327 -0.108673E+00  0.139E-02    0.09       1.1  T
   4    -83.6298215  0.112414E-04  0.166E-02    0.09       1.0  T
   5    -83.6298460 -0.244953E-04  0.596E-03    0.09       2.6  T
   6    -83.6298492 -0.327516E-05  0.159E-03    0.09       9.7  T
   7    -83.6298492  0.668340E-07  0.111E-03    0.09      13.9  T
   8    -83.6298493 -0.135494E-06  0.118E-04    0.09     131.1  T
   9    -83.6298493 -0.263583E-09  0.430E-05    0.09     359.0  T
     SCC iter.                  ...        0 min,  0.030 sec
     gradient                   ...        0 min,  0.085 sec
 * total energy  :   -82.8716484 Eh     change       -0.2015949E-03 Eh
   gradient norm :     0.0078889 Eh/α   predicted    -0.1707289E-03 ( -15.31%)
   displ. norm   :     0.3698174 α      lambda       -0.2424795E-03
   maximum displ.:     0.2027813 α      in ANC's #4, #1, #3, ...

........................................................................
.............................. CYCLE   19 ..............................
........................................................................
   1    -83.6285697 -0.836286E+02  0.643E-02    0.09       0.0  T
   2    -83.5388268  0.897429E-01  0.863E-01    0.13       1.0  T
   3    -83.6290516 -0.902248E-01  0.731E-03    0.09       2.1  T
   4    -83.6290513  0.246879E-06  0.716E-03    0.09       2.2  T
   5    -83.6290449  0.641471E-05  0.895E-03    0.09       1.7  T
   6    -83.6290537 -0.877097E-05  0.241E-03    0.09       6.4  T
   7    -83.6290541 -0.437102E-06  0.676E-04    0.09      22.8  T
   8    -83.6290542 -0.447056E-07  0.176E-04    0.09      87.7  T
   9    -83.6290542 -0.275151E-08  0.522E-05    0.09     295.8  T
     SCC iter.                  ...        0 min,  0.031 sec
     gradient                   ...        0 min,  0.085 sec
 * total energy  :   -82.8718325 Eh     change       -0.1841508E-03 Eh
   gradient norm :     0.0073281 Eh/α   predicted    -0.1378223E-03 ( -25.16%)
   displ. norm   :     0.4421362 α      lambda       -0.3117298E-03
   maximum displ.:     0.2591037 α      in ANC's #4, #1, #5, ...

........................................................................
.............................. CYCLE   20 ..............................
........................................................................
   1    -83.6274612 -0.836275E+02  0.871E-02    0.10       0.0  T
   2    -83.5047820  0.122679E+00  0.102E+00    0.17       1.0  T
   3    -83.6282262 -0.123444E+00  0.379E-02    0.09       1.0  T
   4    -83.6283784 -0.152164E-03  0.138E-02    0.09       1.1  T
   5    -83.6283580  0.204009E-04  0.166E-02    0.09       1.0  T
   6    -83.6283885 -0.304705E-04  0.319E-03    0.09       4.8  T
   7    -83.6283892 -0.707591E-06  0.557E-04    0.09      27.7  T
   8    -83.6283891  0.666797E-07  0.812E-04    0.09      19.0  T
   9    -83.6283892 -0.763013E-07  0.104E-04    0.09     147.9  T
  10    -83.6283892  0.654339E-09  0.120E-04    0.09     128.4  T
     SCC iter.                  ...        0 min,  0.034 sec
     gradient                   ...        0 min,  0.085 sec
 * total energy  :   -82.8720489 Eh     change       -0.2164092E-03 Eh
   gradient norm :     0.0074437 Eh/α   predicted    -0.1863357E-03 ( -13.90%)
   displ. norm   :     0.3391152 α      lambda       -0.2411608E-03
   maximum displ.:     0.2129582 α      in ANC's #4, #1, #5, ...
 * RMSD in coord.:     0.9793647 α      energy gain  -0.2974961E-01 Eh

generating ANC from model Hessian ...
Using Lindh-Hessian (1995)
 Shifting diagonal of input Hessian by   9.789470073587889E-003
 Lowest  eigenvalues of input Hessian
    0.000000    0.000000    0.000000    0.000000    0.000000    0.000000
    0.010000    0.010136    0.010533    0.010728    0.011841    0.012355
    0.012684    0.014072    0.014439    0.014752    0.016157    0.017071
 Highest eigenvalues
    2.011811    2.073398    2.140341    2.169706    2.337421    2.412226
 

........................................................................
.............................. CYCLE   21 ..............................
........................................................................
   1    -83.6301011 -0.836301E+02  0.725E-02    0.10       0.0  T
   2    -83.5259459  0.104155E+00  0.934E-01    0.15       1.0  T
   3    -83.6307004 -0.104755E+00  0.210E-02    0.09       1.0  T
   4    -83.6306815  0.189888E-04  0.229E-02    0.09       1.0  T
   5    -83.6307375 -0.560361E-04  0.696E-03    0.09       2.2  T
   6    -83.6307384 -0.858683E-06  0.505E-03    0.09       3.1  T
   7    -83.6307410 -0.269552E-05  0.821E-04    0.09      18.8  T
   8    -83.6307411 -0.593348E-07  0.443E-04    0.09      34.8  T
   9    -83.6307411 -0.186260E-07  0.166E-04    0.09      93.1  T
  10    -83.6307411 -0.201470E-08  0.890E-05    0.09     173.3  T
     SCC iter.                  ...        0 min,  0.038 sec
     gradient                   ...        0 min,  0.085 sec
 * total energy  :   -82.8721961 Eh     change       -0.1471643E-03 Eh
   gradient norm :     0.0080935 Eh/α   predicted     0.0000000E+00 (-100.00%)
   displ. norm   :     0.0471199 α      lambda       -0.7240238E-04
   maximum displ.:     0.0236540 α      in ANC's #1, #3, #13, ...

........................................................................
.............................. CYCLE   22 ..............................
........................................................................
   1    -83.6314770 -0.836315E+02  0.853E-03    0.09       0.0  T
   2    -83.6303758  0.110123E-02  0.951E-02    0.10       1.0  T
   3    -83.6314826 -0.110687E-02  0.525E-03    0.09       2.9  T
   4    -83.6314838 -0.116565E-05  0.260E-03    0.09       5.9  T
   5    -83.6314833  0.462617E-06  0.277E-03    0.09       5.6  T
   6    -83.6314841 -0.797426E-06  0.486E-04    0.09      31.8  T
   7    -83.6314841 -0.127978E-07  0.146E-04    0.09     105.3  T
   8    -83.6314841 -0.206059E-08  0.237E-05    0.09     650.9  T
     SCC iter.                  ...        0 min,  0.034 sec
     gradient                   ...        0 min,  0.084 sec
 * total energy  :   -82.8722765 Eh     change       -0.8040417E-04 Eh
   gradient norm :     0.0043981 Eh/α   predicted    -0.5132822E-04 ( -36.16%)
   displ. norm   :     0.1128903 α      lambda       -0.1224008E-03
   maximum displ.:     0.0612451 α      in ANC's #1, #3, #13, ...

........................................................................
.............................. CYCLE   23 ..............................
........................................................................
   1    -83.6320528 -0.836321E+02  0.144E-02    0.09       0.0  T
   2    -83.6294472  0.260556E-02  0.146E-01    0.10       1.0  T
   3    -83.6320595 -0.261224E-02  0.136E-02    0.09       1.1  T
   4    -83.6320713 -0.118052E-04  0.414E-03    0.09       3.7  T
   5    -83.6320710  0.248787E-06  0.357E-03    0.09       4.3  T
   6    -83.6320723 -0.124170E-05  0.774E-04    0.09      19.9  T
   7    -83.6320723 -0.306113E-07  0.195E-04    0.09      78.9  T
   8    -83.6320723 -0.359725E-08  0.425E-05    0.09     363.2  T
     SCC iter.                  ...        0 min,  0.030 sec
     gradient                   ...        0 min,  0.085 sec
 * total energy  :   -82.8723525 Eh     change       -0.7599546E-04 Eh
   gradient norm :     0.0027324 Eh/α   predicted    -0.6198085E-04 ( -18.44%)
   displ. norm   :     0.0841220 α      lambda       -0.4055004E-04
   maximum displ.:     0.0484706 α      in ANC's #1, #3, #13, ...

........................................................................
.............................. CYCLE   24 ..............................
........................................................................
   1    -83.6320004 -0.836320E+02  0.798E-03    0.09       0.0  T
   2    -83.6308445  0.115594E-02  0.970E-02    0.10       1.0  T
   3    -83.6320047 -0.116024E-02  0.621E-03    0.09       2.5  T
   4    -83.6320063 -0.156980E-05  0.259E-03    0.09       6.0  T
   5    -83.6320070 -0.745321E-06  0.666E-04    0.09      23.2  T
   6    -83.6320070 -0.104542E-07  0.231E-04    0.09      66.9  T
   7    -83.6320070 -0.955836E-09  0.448E-05    0.09     344.7  T
   8    -83.6320070 -0.718074E-10  0.249E-05    0.09     618.6  T
     SCC iter.                  ...        0 min,  0.029 sec
     gradient                   ...        0 min,  0.084 sec
 * total energy  :   -82.8723859 Eh     change       -0.3336348E-04 Eh
   gradient norm :     0.0034733 Eh/α   predicted    -0.2041882E-04 ( -38.80%)
   displ. norm   :     0.1628655 α      lambda       -0.7200589E-04
   maximum displ.:     0.0918588 α      in ANC's #1, #3, #4, ...

........................................................................
.............................. CYCLE   25 ..............................
........................................................................
   1    -83.6316328 -0.836316E+02  0.624E-03    0.09       0.0  T
   2    -83.6315350  0.978080E-04  0.281E-02    0.09       1.0  T
   3    -83.6315529 -0.179054E-04  0.271E-02    0.09       1.0  T
   4    -83.6316320 -0.791442E-04  0.489E-03    0.09       3.2  T
   5    -83.6316347 -0.263528E-05  0.141E-03    0.09      10.9  T
   6    -83.6316348 -0.112838E-06  0.463E-04    0.09      33.4  T
   7    -83.6316348 -0.103308E-07  0.203E-04    0.09      76.1  T
   8    -83.6316348 -0.396778E-08  0.568E-05    0.09     271.7  T
   9    -83.6316348 -0.327844E-09  0.109E-05    0.09    1420.5  T
     SCC iter.                  ...        0 min,  0.032 sec
     gradient                   ...        0 min,  0.084 sec
 * total energy  :   -82.8724427 Eh     change       -0.5683323E-04 Eh
   gradient norm :     0.0036319 Eh/α   predicted    -0.3695922E-04 ( -34.97%)
   displ. norm   :     0.2099581 α      lambda       -0.7366823E-04
   maximum displ.:     0.1185901 α      in ANC's #1, #3, #4, ...

........................................................................
.............................. CYCLE   26 ..............................
........................................................................
   1    -83.6310736 -0.836311E+02  0.908E-03    0.09       0.0  T
   2    -83.6293614  0.171225E-02  0.120E-01    0.08       1.0  T
   3    -83.6310788 -0.171741E-02  0.550E-03    0.09       2.8  T
   4    -83.6310760  0.281291E-05  0.691E-03    0.09       2.2  T
   5    -83.6310809 -0.494266E-05  0.268E-03    0.09       5.8  T
   6    -83.6310815 -0.567888E-06  0.110E-03    0.09      14.1  T
   7    -83.6310816 -0.125459E-06  0.179E-04    0.09      86.3  T
   8    -83.6310816 -0.352944E-08  0.132E-05    0.09    1171.6  T
     SCC iter.                  ...        0 min,  0.029 sec
     gradient                   ...        0 min,  0.084 sec
 * total energy  :   -82.8724994 Eh     change       -0.5667732E-04 Eh
   gradient norm :     0.0036574 Eh/α   predicted    -0.3846102E-04 ( -32.14%)
   displ. norm   :     0.2105995 α      lambda       -0.6346437E-04
   maximum displ.:     0.1196771 α      in ANC's #1, #3, #4, ...

........................................................................
.............................. CYCLE   27 ..............................
........................................................................
   1    -83.6307958 -0.836308E+02  0.205E-02    0.09       0.0  T
   2    -83.6179855  0.128103E-01  0.326E-01    0.08       1.0  T
   3    -83.6308462 -0.128607E-01  0.178E-03    0.09       8.7  T
   4    -83.6308451  0.106337E-05  0.333E-03    0.09       4.6  T
   5    -83.6308458 -0.611645E-06  0.231E-03    0.09       6.7  T
   6    -83.6308462 -0.439380E-06  0.108E-03    0.09      14.3  T
   7    -83.6308463 -0.136015E-06  0.183E-04    0.09      84.3  T
   8    -83.6308463 -0.148995E-08  0.498E-05    0.09     309.7  T
     SCC iter.                  ...        0 min,  0.029 sec
     gradient                   ...        0 min,  0.084 sec
 * total energy  :   -82.8725506 Eh     change       -0.5121814E-04 Eh
   gradient norm :     0.0035541 Eh/α   predicted    -0.3314003E-04 ( -35.30%)
   displ. norm   :     0.2375074 α      lambda       -0.7386041E-04
   maximum displ.:     0.1358005 α      in ANC's #1, #3, #4, ...

........................................................................
.............................. CYCLE   28 ..............................
........................................................................
   1    -83.6308823 -0.836309E+02  0.323E-02    0.09       0.0  T
   2    -83.6000619  0.308203E-01  0.505E-01    0.09       1.0  T
   3    -83.6310055 -0.309436E-01  0.501E-03    0.09       3.1  T
   4    -83.6310044  0.109437E-05  0.486E-03    0.09       3.2  T
   5    -83.6310059 -0.142923E-05  0.307E-03    0.09       5.0  T
   6    -83.6310066 -0.708366E-06  0.180E-03    0.09       8.6  T
   7    -83.6310069 -0.330373E-06  0.343E-04    0.09      45.0  T
   8    -83.6310069 -0.108409E-07  0.490E-05    0.09     314.8  T
   9    -83.6310069 -0.122313E-09  0.290E-05    0.09     532.8  T
     SCC iter.                  ...        0 min,  0.033 sec
     gradient                   ...        0 min,  0.084 sec
 * total energy  :   -82.8726096 Eh     change       -0.5902095E-04 Eh
   gradient norm :     0.0034588 Eh/α   predicted    -0.3901356E-04 ( -33.90%)
   displ. norm   :     0.2552067 α      lambda       -0.7888110E-04
   maximum displ.:     0.1509212 α      in ANC's #3, #1, #4, ...

........................................................................
.............................. CYCLE   29 ..............................
........................................................................
   1    -83.6313069 -0.836313E+02  0.415E-02    0.09       0.0  T
   2    -83.5837019  0.476050E-01  0.628E-01    0.10       1.0  T
   3    -83.6315081 -0.478061E-01  0.803E-03    0.09       1.9  T
   4    -83.6315028  0.524997E-05  0.872E-03    0.09       1.8  T
   5    -83.6315110 -0.819508E-05  0.263E-03    0.09       5.9  T
   6    -83.6315115 -0.483468E-06  0.153E-03    0.09      10.1  T
   7    -83.6315117 -0.225170E-06  0.206E-04    0.09      74.9  T
   8    -83.6315117  0.181421E-08  0.166E-04    0.09      93.0  T
   9    -83.6315117 -0.285389E-08  0.469E-05    0.09     328.8  T
     SCC iter.                  ...        0 min,  0.034 sec
     gradient                   ...        0 min,  0.084 sec
 * total energy  :   -82.8726699 Eh     change       -0.6030570E-04 Eh
   gradient norm :     0.0036934 Eh/α   predicted    -0.4201131E-04 ( -30.34%)
   displ. norm   :     0.2244214 α      lambda       -0.6518740E-04
   maximum displ.:     0.1390848 α      in ANC's #3, #1, #10, ...

........................................................................
.............................. CYCLE   30 ..............................
........................................................................
   1    -83.6321367 -0.836321E+02  0.359E-02    0.09       0.0  T
   2    -83.5964143  0.357223E-01  0.544E-01    0.09       1.0  T
   3    -83.6322828 -0.358685E-01  0.783E-03    0.09       2.0  T
   4    -83.6322787  0.412553E-05  0.840E-03    0.09       1.8  T
   5    -83.6322867 -0.801188E-05  0.184E-03    0.09       8.4  T
   6    -83.6322869 -0.208478E-06  0.102E-03    0.09      15.1  T
   7    -83.6322870 -0.712507E-07  0.185E-04    0.09      83.5  T
   8    -83.6322870  0.337081E-10  0.122E-04    0.09     126.7  T
     SCC iter.                  ...        0 min,  0.033 sec
     gradient                   ...        0 min,  0.084 sec
 * total energy  :   -82.8727203 Eh     change       -0.5036111E-04 Eh
   gradient norm :     0.0036677 Eh/α   predicted    -0.3423818E-04 ( -32.01%)
   displ. norm   :     0.2776899 α      lambda       -0.6343830E-04
   maximum displ.:     0.1727134 α      in ANC's #3, #1, #10, ...

........................................................................
.............................. CYCLE   31 ..............................
........................................................................
   1    -83.6318251 -0.836318E+02  0.366E-02    0.09       0.0  T
   2    -83.5956822  0.361428E-01  0.548E-01    0.09       1.0  T
   3    -83.6319688 -0.362866E-01  0.104E-02    0.09       1.5  T
   4    -83.6319754 -0.658119E-05  0.600E-03    0.09       2.6  T
   5    -83.6319792 -0.378996E-05  0.193E-03    0.09       8.0  T
   6    -83.6319795 -0.343613E-06  0.858E-04    0.09      18.0  T
   7    -83.6319795 -0.181315E-07  0.312E-04    0.09      49.4  T
   8    -83.6319796 -0.749864E-08  0.146E-04    0.09     105.5  T
   9    -83.6319796 -0.164259E-08  0.743E-05    0.09     207.8  T
     SCC iter.                  ...        0 min,  0.035 sec
     gradient                   ...        0 min,  0.084 sec
 * total energy  :   -82.8727696 Eh     change       -0.4933829E-04 Eh
   gradient norm :     0.0040038 Eh/α   predicted    -0.3416579E-04 ( -30.75%)
   displ. norm   :     0.2981700 α      lambda       -0.7966498E-04
   maximum displ.:     0.1926443 α      in ANC's #3, #1, #10, ...

........................................................................
.............................. CYCLE   32 ..............................
........................................................................
   1    -83.6332873 -0.836333E+02  0.365E-02    0.10       0.0  T
   2    -83.5987192  0.345681E-01  0.535E-01    0.09       1.0  T
   3    -83.6334235 -0.347043E-01  0.117E-02    0.09       1.3  T
   4    -83.6334351 -0.115734E-04  0.494E-03    0.09       3.1  T
   5    -83.6334368 -0.170272E-05  0.274E-03    0.09       5.6  T
   6    -83.6334375 -0.714918E-06  0.143E-03    0.09      10.8  T
   7    -83.6334376 -0.112482E-06  0.176E-04    0.09      87.8  T
   8    -83.6334376  0.269651E-09  0.110E-04    0.09     140.3  T
     SCC iter.                  ...        0 min,  0.028 sec
     gradient                   ...        0 min,  0.091 sec
 * total energy  :   -82.8728171 Eh     change       -0.4742598E-04 Eh
   gradient norm :     0.0032425 Eh/α   predicted    -0.4337980E-04 (  -8.53%)
   displ. norm   :     0.3422635 α      lambda       -0.5561092E-04
   maximum displ.:     0.2126655 α      in ANC's #3, #1, #10, ...

........................................................................
.............................. CYCLE   33 ..............................
........................................................................
   1    -83.6307074 -0.836307E+02  0.326E-02    0.10       0.0  T
   2    -83.6041028  0.266046E-01  0.470E-01    0.09       1.0  T
   3    -83.6307891 -0.266863E-01  0.169E-02    0.10       1.0  T
   4    -83.6308214 -0.323768E-04  0.348E-03    0.09       4.4  T
   5    -83.6308210  0.458038E-06  0.342E-03    0.09       4.5  T
   6    -83.6308217 -0.675898E-06  0.169E-03    0.09       9.1  T
   7    -83.6308219 -0.263513E-06  0.420E-04    0.09      36.7  T
   8    -83.6308219 -0.186205E-07  0.948E-05    0.09     162.8  T
   9    -83.6308219 -0.548667E-09  0.511E-05    0.09     301.8  T
     SCC iter.                  ...        0 min,  0.030 sec
     gradient                   ...        0 min,  0.084 sec
 * total energy  :   -82.8728321 Eh     change       -0.1502124E-04 Eh
   gradient norm :     0.0056524 Eh/α   predicted    -0.3107513E-04 ( 106.87%)
   displ. norm   :     0.0472127 α      lambda       -0.6143515E-04
   maximum displ.:     0.0328825 α      in ANC's #4, #17, #13, ...

........................................................................
.............................. CYCLE   34 ..............................
........................................................................
   1    -83.6328157 -0.836328E+02  0.955E-03    0.09       0.0  T
   2    -83.6320699  0.745798E-03  0.781E-02    0.10       1.0  T
   3    -83.6327936 -0.723703E-03  0.160E-02    0.09       1.0  T
   4    -83.6328153 -0.217352E-04  0.717E-03    0.09       2.2  T
   5    -83.6328209 -0.557274E-05  0.199E-03    0.09       7.7  T
   6    -83.6328211 -0.141874E-06  0.989E-04    0.09      15.6  T
   7    -83.6328211 -0.687256E-07  0.485E-04    0.09      31.8  T
   8    -83.6328212 -0.249972E-07  0.895E-05    0.09     172.3  T
   9    -83.6328212 -0.815774E-09  0.188E-05    0.09     821.5  T
     SCC iter.                  ...        0 min,  0.030 sec
     gradient                   ...        0 min,  0.084 sec
 * total energy  :   -82.8728739 Eh     change       -0.4180586E-04 Eh
   gradient norm :     0.0023681 Eh/α   predicted    -0.3078760E-04 ( -26.36%)
   displ. norm   :     0.1975907 α      lambda       -0.4785207E-04
   maximum displ.:     0.1195566 α      in ANC's #3, #1, #10, ...

........................................................................
.............................. CYCLE   35 ..............................
........................................................................
   1    -83.6333415 -0.836333E+02  0.104E-02    0.09       0.0  T
   2    -83.6310200  0.232147E-02  0.140E-01    0.09       1.0  T
   3    -83.6333469 -0.232689E-02  0.676E-03    0.09       2.3  T
   4    -83.6333502 -0.325613E-05  0.439E-03    0.09       3.5  T
   5    -83.6333520 -0.178652E-05  0.204E-03    0.09       7.6  T
   6    -83.6333522 -0.214660E-06  0.127E-03    0.09      12.2  T
   7    -83.6333523 -0.156561E-06  0.415E-04    0.09      37.1  T
   8    -83.6333524 -0.188206E-07  0.718E-05    0.09     214.9  T
   9    -83.6333524 -0.508933E-09  0.139E-05    0.09    1113.0  T
     SCC iter.                  ...        0 min,  0.030 sec
     gradient                   ...        0 min,  0.085 sec
 * total energy  :   -82.8729091 Eh     change       -0.3522536E-04 Eh
   gradient norm :     0.0023383 Eh/α   predicted    -0.2486518E-04 ( -29.41%)
   displ. norm   :     0.2991549 α      lambda       -0.4666179E-04
   maximum displ.:     0.1820901 α      in ANC's #1, #3, #10, ...

........................................................................
.............................. CYCLE   36 ..............................
........................................................................
   1    -83.6326817 -0.836327E+02  0.193E-02    0.09       0.0  T
   2    -83.6225460  0.101357E-01  0.290E-01    0.09       1.0  T
   3    -83.6327210 -0.101749E-01  0.522E-03    0.09       3.0  T
   4    -83.6327237 -0.269569E-05  0.237E-03    0.09       6.5  T
   5    -83.6327242 -0.491481E-06  0.110E-03    0.09      14.0  T
   6    -83.6327240  0.155830E-06  0.139E-03    0.09      11.1  T
   7    -83.6327242 -0.214245E-06  0.309E-04    0.09      49.9  T
   8    -83.6327242 -0.994308E-08  0.664E-05    0.09     232.3  T
   9    -83.6327242 -0.436231E-09  0.137E-05    0.09    1124.2  T
     SCC iter.                  ...        0 min,  0.031 sec
     gradient                   ...        0 min,  0.084 sec
 * total energy  :   -82.8729422 Eh     change       -0.3308089E-04 Eh
   gradient norm :     0.0030726 Eh/α   predicted    -0.2542101E-04 ( -23.15%)
   displ. norm   :     0.1951722 α      lambda       -0.3735751E-04
   maximum displ.:     0.1157719 α      in ANC's #1, #3, #10, ...

........................................................................
.............................. CYCLE   37 ..............................
........................................................................
   1    -83.6327393 -0.836327E+02  0.122E-02    0.09       0.0  T
   2    -83.6288065  0.393281E-02  0.180E-01    0.09       1.0  T
   3    -83.6327561 -0.394966E-02  0.335E-03    0.09       4.6  T
   4    -83.6327560  0.910246E-07  0.235E-03    0.09       6.6  T
   5    -83.6327563 -0.315585E-06  0.177E-03    0.09       8.7  T
   6    -83.6327566 -0.267238E-06  0.635E-04    0.09      24.3  T
   7    -83.6327566 -0.188543E-07  0.312E-04    0.09      49.4  T
   8    -83.6327566 -0.112476E-07  0.509E-05    0.09     303.2  T
   9    -83.6327566 -0.266439E-09  0.138E-05    0.09    1115.1  T
     SCC iter.                  ...        0 min,  0.030 sec
     gradient                   ...        0 min,  0.085 sec
 * total energy  :   -82.8729697 Eh     change       -0.2748124E-04 Eh
   gradient norm :     0.0026519 Eh/α   predicted    -0.1939448E-04 ( -29.43%)
   displ. norm   :     0.1968873 α      lambda       -0.3748088E-04
   maximum displ.:     0.1165070 α      in ANC's #1, #3, #10, ...

........................................................................
.............................. CYCLE   38 ..............................
........................................................................
   1    -83.6327782 -0.836328E+02  0.177E-02    0.09       0.0  T
   2    -83.6240003  0.877784E-02  0.270E-01    0.08       1.0  T
   3    -83.6328141 -0.881380E-02  0.484E-03    0.09       3.2  T
   4    -83.6328121  0.208302E-05  0.518E-03    0.09       3.0  T
   5    -83.6328153 -0.320838E-05  0.117E-03    0.09      13.2  T
   6    -83.6328153 -0.281307E-07  0.416E-04    0.09      37.1  T
   7    -83.6328153 -0.832867E-08  0.173E-04    0.09      89.2  T
   8    -83.6328153 -0.351260E-08  0.265E-05    0.09     582.9  T
     SCC iter.                  ...        0 min,  0.027 sec
     gradient                   ...        0 min,  0.085 sec
 * total energy  :   -82.8729975 Eh     change       -0.2784760E-04 Eh
   gradient norm :     0.0020938 Eh/α   predicted    -0.1947157E-04 ( -30.08%)
   displ. norm   :     0.1567681 α      lambda       -0.3223527E-04
   maximum displ.:     0.0907804 α      in ANC's #1, #3, #10, ...

........................................................................
.............................. CYCLE   39 ..............................
........................................................................
   1    -83.6330150 -0.836330E+02  0.171E-02    0.09       0.0  T
   2    -83.6257263  0.728864E-02  0.246E-01    0.09       1.0  T
   3    -83.6330411 -0.731474E-02  0.808E-03    0.09       1.9  T
   4    -83.6330397  0.138809E-05  0.768E-03    0.09       2.0  T
   5    -83.6330463 -0.660091E-05  0.250E-03    0.09       6.2  T
   6    -83.6330467 -0.430910E-06  0.110E-03    0.09      14.0  T
   7    -83.6330468 -0.113077E-06  0.261E-04    0.09      59.1  T
   8    -83.6330469 -0.498069E-08  0.388E-05    0.09     397.4  T
   9    -83.6330469  0.346233E-09  0.626E-05    0.09     246.3  T
     SCC iter.                  ...        0 min,  0.031 sec
     gradient                   ...        0 min,  0.085 sec
 * total energy  :   -82.8730183 Eh     change       -0.2077107E-04 Eh
   gradient norm :     0.0024309 Eh/α   predicted    -0.1651655E-04 ( -20.48%)
   displ. norm   :     0.1050672 α      lambda       -0.1726991E-04
   maximum displ.:     0.0642674 α      in ANC's #1, #10, #3, ...

........................................................................
.............................. CYCLE   40 ..............................
........................................................................
   1    -83.6330750 -0.836331E+02  0.144E-02    0.09       0.0  T
   2    -83.6280019  0.507316E-02  0.205E-01    0.09       1.0  T
   3    -83.6330923 -0.509038E-02  0.705E-03    0.09       2.2  T
   4    -83.6330965 -0.422307E-05  0.313E-03    0.09       4.9  T
   5    -83.6330974 -0.893699E-06  0.123E-03    0.09      12.6  T
   6    -83.6330975 -0.121620E-06  0.602E-04    0.09      25.6  T
   7    -83.6330975 -0.327371E-07  0.709E-05    0.09     217.8  T
   8    -83.6330975 -0.255980E-09  0.150E-05    0.09    1030.5  T
     SCC iter.                  ...        0 min,  0.028 sec
     gradient                   ...        0 min,  0.085 sec
 * total energy  :   -82.8730301 Eh     change       -0.1177270E-04 Eh
   gradient norm :     0.0020867 Eh/α   predicted    -0.8734491E-05 ( -25.81%)
   displ. norm   :     0.0741466 α      lambda       -0.1853762E-04
   maximum displ.:     0.0417286 α      in ANC's #4, #1, #2, ...

........................................................................
.............................. CYCLE   41 ..............................
........................................................................
   1    -83.6338504 -0.836339E+02  0.111E-02    0.10       0.0  T
   2    -83.6315251  0.232528E-02  0.139E-01    0.09       1.0  T
   3    -83.6338476 -0.232249E-02  0.114E-02    0.10       1.3  T
   4    -83.6338617 -0.141072E-04  0.275E-03    0.09       5.6  T
   5    -83.6338609  0.794552E-06  0.350E-03    0.09       4.4  T
   6    -83.6338623 -0.138506E-05  0.545E-04    0.09      28.3  T
   7    -83.6338623 -0.128558E-07  0.142E-04    0.09     108.9  T
   8    -83.6338623 -0.170209E-08  0.438E-05    0.09     352.1  T
     SCC iter.                  ...        0 min,  0.027 sec
     gradient                   ...        0 min,  0.084 sec
 * total energy  :   -82.8730426 Eh     change       -0.1254855E-04 Eh
   gradient norm :     0.0017865 Eh/α   predicted    -0.9323777E-05 ( -25.70%)
   displ. norm   :     0.2376583 α      lambda       -0.2259325E-04
   maximum displ.:     0.1560320 α      in ANC's #1, #4, #2, ...

........................................................................
.............................. CYCLE   42 ..............................
........................................................................
   1    -83.6325917 -0.836326E+02  0.262E-02    0.10       0.0  T
   2    -83.6188621  0.137297E-01  0.338E-01    0.09       1.0  T
   3    -83.6325670 -0.137049E-01  0.284E-02    0.10       1.0  T
   4    -83.6326498 -0.828227E-04  0.918E-03    0.10       1.7  T
   5    -83.6326504 -0.558606E-06  0.827E-03    0.10       1.9  T
   6    -83.6326581 -0.768495E-05  0.132E-03    0.10      11.7  T
   7    -83.6326581 -0.648178E-07  0.299E-04    0.10      51.6  T
   8    -83.6326581 -0.930225E-08  0.521E-05    0.10     296.1  T
   9    -83.6326581  0.229676E-09  0.581E-05    0.10     265.6  T
     SCC iter.                  ...        0 min,  0.031 sec
     gradient                   ...        0 min,  0.085 sec
 * total energy  :   -82.8730509 Eh     change       -0.8281781E-05 Eh
   gradient norm :     0.0039928 Eh/α   predicted    -0.1158378E-04 (  39.87%)
   displ. norm   :     0.0690915 α      lambda       -0.2765322E-04
   maximum displ.:     0.0427406 α      in ANC's #3, #4, #6, ...
 * RMSD in coord.:     0.5414952 α      energy gain  -0.1001944E-02 Eh

generating ANC from model Hessian ...
Using Lindh-Hessian (1995)
 Shifting diagonal of input Hessian by   9.784345085824431E-003
 Lowest  eigenvalues of input Hessian
    0.000000    0.000000    0.000000    0.000000    0.000000    0.000000
    0.010000    0.010123    0.010523    0.010794    0.011655    0.012395
    0.012680    0.014131    0.014463    0.014839    0.016121    0.017019
 Highest eigenvalues
    2.013722    2.076908    2.146159    2.174028    2.347568    2.415482
 

........................................................................
.............................. CYCLE   43 ..............................
........................................................................
   1    -83.6340090 -0.836340E+02  0.592E-03    0.10       0.0  T
   2    -83.6338259  0.183051E-03  0.390E-02    0.10       1.0  T
   3    -83.6339969 -0.170948E-03  0.111E-02    0.10       1.4  T
   4    -83.6340099 -0.130835E-04  0.274E-03    0.10       5.6  T
   5    -83.6340105 -0.527306E-06  0.146E-03    0.10      10.6  T
   6    -83.6340105 -0.634716E-07  0.836E-04    0.10      18.5  T
   7    -83.6340106 -0.730455E-07  0.179E-04    0.10      86.4  T
   8    -83.6340106 -0.320320E-08  0.168E-05    0.10     920.8  T
     SCC iter.                  ...        0 min,  0.028 sec
     gradient                   ...        0 min,  0.084 sec
 * total energy  :   -82.8730692 Eh     change       -0.1827550E-04 Eh
   gradient norm :     0.0026159 Eh/α   predicted     0.0000000E+00 (-100.00%)
   displ. norm   :     0.0230971 α      lambda       -0.1112354E-04
   maximum displ.:     0.0102013 α      in ANC's #7, #1, #3, ...

........................................................................
.............................. CYCLE   44 ..............................
........................................................................
   1    -83.6341836 -0.836342E+02  0.902E-03    0.10       0.0  T
   2    -83.6324977  0.168589E-02  0.119E-01    0.11       1.0  T
   3    -83.6341924 -0.169465E-02  0.274E-03    0.10       5.6  T
   4    -83.6341925 -0.196830E-06  0.176E-03    0.10       8.8  T
   5    -83.6341929 -0.325192E-06  0.747E-04    0.10      20.7  T
   6    -83.6341929 -0.184629E-07  0.400E-04    0.10      38.6  T
   7    -83.6341929 -0.806425E-08  0.621E-05    0.10     248.3  T
   8    -83.6341929 -0.325599E-09  0.204E-05    0.10     758.2  T
     SCC iter.                  ...        0 min,  0.028 sec
     gradient                   ...        0 min,  0.084 sec
 * total energy  :   -82.8730816 Eh     change       -0.1243295E-04 Eh
   gradient norm :     0.0015019 Eh/α   predicted    -0.7383142E-05 ( -40.62%)
   displ. norm   :     0.1135369 α      lambda       -0.2853756E-04
   maximum displ.:     0.0538705 α      in ANC's #7, #1, #3, ...

........................................................................
.............................. CYCLE   45 ..............................
........................................................................
   1    -83.6338601 -0.836339E+02  0.382E-02    0.09       0.0  T
   2    -83.6142476  0.196125E-01  0.409E-01    0.15       1.0  T
   3    -83.6340224 -0.197748E-01  0.930E-03    0.10       1.7  T
   4    -83.6340210  0.138399E-05  0.691E-03    0.10       2.2  T
   5    -83.6340241 -0.308708E-05  0.507E-03    0.10       3.0  T
   6    -83.6340267 -0.260714E-05  0.127E-03    0.10      12.1  T
   7    -83.6340268 -0.331141E-07  0.606E-04    0.10      25.5  T
   8    -83.6340268 -0.382611E-07  0.692E-05    0.10     223.0  T
   9    -83.6340268 -0.158920E-09  0.472E-05    0.10     327.0  T
     SCC iter.                  ...        0 min,  0.031 sec
     gradient                   ...        0 min,  0.084 sec
 * total energy  :   -82.8731008 Eh     change       -0.1922327E-04 Eh
   gradient norm :     0.0023626 Eh/α   predicted    -0.1514805E-04 ( -21.20%)
   displ. norm   :     0.0197198 α      lambda       -0.6804974E-05
   maximum displ.:     0.0107852 α      in ANC's #1, #3, #7, ...

........................................................................
.............................. CYCLE   46 ..............................
........................................................................
   1    -83.6339094 -0.836339E+02  0.218E-03    0.10       0.0  T
   2    -83.6338340  0.753438E-04  0.248E-02    0.10       1.0  T
   3    -83.6339093 -0.752733E-04  0.274E-03    0.10       5.6  T
   4    -83.6339096 -0.260789E-06  0.161E-03    0.10       9.6  T
   5    -83.6339098 -0.230661E-06  0.785E-04    0.10      19.7  T
   6    -83.6339098 -0.552712E-07  0.237E-04    0.10      65.1  T
   7    -83.6339099 -0.537142E-08  0.290E-05    0.10     532.8  T
   8    -83.6339099 -0.523528E-10  0.954E-06    0.10    1617.3  T
     SCC iter.                  ...        0 min,  0.027 sec
     gradient                   ...        0 min,  0.084 sec
 * total energy  :   -82.8731078 Eh     change       -0.6961264E-05 Eh
   gradient norm :     0.0017630 Eh/α   predicted    -0.3750424E-05 ( -46.12%)
   displ. norm   :     0.1976759 α      lambda       -0.3801691E-04
   maximum displ.:     0.1038809 α      in ANC's #1, #7, #3, ...

........................................................................
.............................. CYCLE   47 ..............................
........................................................................
   1    -83.6329491 -0.836329E+02  0.277E-02    0.10       0.0  T
   2    -83.6212442  0.117049E-01  0.311E-01    0.13       1.0  T
   3    -83.6330240 -0.117798E-01  0.143E-02    0.10       1.1  T
   4    -83.6330251 -0.112995E-05  0.992E-03    0.10       1.6  T
   5    -83.6330339 -0.876947E-05  0.498E-03    0.10       3.1  T
   6    -83.6330356 -0.167512E-05  0.250E-03    0.10       6.2  T
   7    -83.6330362 -0.589730E-06  0.476E-04    0.10      32.4  T
   8    -83.6330362 -0.213590E-07  0.394E-05    0.10     391.6  T
   9    -83.6330362  0.310109E-09  0.630E-05    0.10     244.8  T
     SCC iter.                  ...        0 min,  0.030 sec
     gradient                   ...        0 min,  0.084 sec
 * total energy  :   -82.8731378 Eh     change       -0.3003708E-04 Eh
   gradient norm :     0.0028190 Eh/α   predicted    -0.1934695E-04 ( -35.59%)
   displ. norm   :     0.0676420 α      lambda       -0.1211827E-04
   maximum displ.:     0.0369367 α      in ANC's #1, #7, #3, ...

........................................................................
.............................. CYCLE   48 ..............................
........................................................................
   1    -83.6330892 -0.836331E+02  0.106E-02    0.10       0.0  T
   2    -83.6307038  0.238540E-02  0.141E-01    0.11       1.0  T
   3    -83.6331025 -0.239862E-02  0.114E-03    0.10      13.6  T
   4    -83.6331025 -0.215711E-07  0.720E-04    0.10      21.4  T
   5    -83.6331025 -0.496101E-07  0.250E-04    0.10      61.8  T
   6    -83.6331025  0.699107E-08  0.308E-04    0.10      50.1  T
   7    -83.6331025 -0.958352E-08  0.215E-05    0.10     718.0  T
   8    -83.6331025 -0.876810E-11  0.146E-05    0.10    1058.3  T
     SCC iter.                  ...        0 min,  0.027 sec
     gradient                   ...        0 min,  0.082 sec
 * total energy  :   -82.8731488 Eh     change       -0.1094184E-04 Eh
   gradient norm :     0.0024859 Eh/α   predicted    -0.6087446E-05 ( -44.37%)
   displ. norm   :     0.1498201 α      lambda       -0.3009835E-04
   maximum displ.:     0.0831767 α      in ANC's #1, #7, #3, ...

........................................................................
.............................. CYCLE   49 ..............................
........................................................................
   1    -83.6335038 -0.836335E+02  0.210E-02    0.10       0.0  T
   2    -83.6253656  0.813820E-02  0.262E-01    0.12       1.0  T
   3    -83.6335550 -0.818938E-02  0.453E-03    0.10       3.4  T
   4    -83.6335542  0.790249E-06  0.438E-03    0.10       3.5  T
   5    -83.6335565 -0.229964E-05  0.712E-04    0.10      21.7  T
   6    -83.6335565 -0.637330E-08  0.530E-04    0.10      29.1  T
   7    -83.6335565 -0.922374E-08  0.303E-04    0.10      51.0  T
   8    -83.6335565 -0.103963E-07  0.366E-05    0.10     421.1  T
   9    -83.6335565 -0.112095E-09  0.161E-05    0.10     957.2  T
     SCC iter.                  ...        0 min,  0.030 sec
     gradient                   ...        0 min,  0.073 sec
 * total energy  :   -82.8731721 Eh     change       -0.2329611E-04 Eh
   gradient norm :     0.0009673 Eh/α   predicted    -0.1538724E-04 ( -33.95%)
   displ. norm   :     0.2648130 α      lambda       -0.2204501E-04
   maximum displ.:     0.1524819 α      in ANC's #1, #3, #7, ...

........................................................................
.............................. CYCLE   50 ..............................
........................................................................
   1    -83.6334221 -0.836334E+02  0.217E-02    0.10       0.0  T
   2    -83.6251957  0.822639E-02  0.263E-01    0.12       1.0  T
   3    -83.6334747 -0.827906E-02  0.438E-03    0.10       3.5  T
   4    -83.6334750 -0.306203E-06  0.297E-03    0.10       5.2  T
   5    -83.6334758 -0.775806E-06  0.156E-03    0.10       9.9  T
   6    -83.6334761 -0.253342E-06  0.435E-04    0.10      35.5  T
   7    -83.6334761 -0.550814E-08  0.195E-04    0.10      79.1  T
   8    -83.6334761 -0.415559E-08  0.331E-05    0.10     466.6  T
     SCC iter.                  ...        0 min,  0.027 sec
     gradient                   ...        0 min,  0.075 sec
 * total energy  :   -82.8731931 Eh     change       -0.2101898E-04 Eh
   gradient norm :     0.0013821 Eh/α   predicted    -0.1136750E-04 ( -45.92%)
   displ. norm   :     0.1159738 α      lambda       -0.9703041E-05
   maximum displ.:     0.0733622 α      in ANC's #1, #3, #7, ...

........................................................................
.............................. CYCLE   51 ..............................
........................................................................
   1    -83.6338650 -0.836339E+02  0.581E-03    0.10       0.0  T
   2    -83.6331757  0.689334E-03  0.761E-02    0.11       1.0  T
   3    -83.6338687 -0.693085E-03  0.172E-03    0.10       9.0  T
   4    -83.6338683  0.472513E-06  0.233E-03    0.10       6.6  T
   5    -83.6338689 -0.586293E-06  0.688E-04    0.10      22.4  T
   6    -83.6338688  0.664438E-08  0.601E-04    0.10      25.7  T
   7    -83.6338689 -0.348932E-07  0.176E-04    0.10      87.5  T
   8    -83.6338689 -0.355810E-08  0.226E-05    0.10     684.0  T
     SCC iter.                  ...        0 min,  0.020 sec
     gradient                   ...        0 min,  0.044 sec
 * total energy  :   -82.8732057 Eh     change       -0.1265874E-04 Eh
   gradient norm :     0.0010323 Eh/α   predicted    -0.4884044E-05 ( -61.42%)
   displ. norm   :     0.1394883 α      lambda       -0.1329351E-04
   maximum displ.:     0.0928600 α      in ANC's #1, #3, #7, ...

........................................................................
.............................. CYCLE   52 ..............................
........................................................................
   1    -83.6340189 -0.836340E+02  0.853E-03    0.10       0.0  T
   2    -83.6328046  0.121432E-02  0.101E-01    0.11       1.0  T
   3    -83.6340242 -0.121965E-02  0.478E-03    0.10       3.2  T
   4    -83.6340261 -0.188616E-05  0.198E-03    0.10       7.8  T
   5    -83.6340265 -0.364138E-06  0.806E-04    0.10      19.2  T
   6    -83.6340264  0.345843E-07  0.886E-04    0.10      17.4  T
   7    -83.6340265 -0.833212E-07  0.214E-04    0.10      72.0  T
   8    -83.6340265 -0.455695E-08  0.548E-05    0.10     281.5  T
   9    -83.6340265 -0.335575E-09  0.533E-06    0.10    2896.1  T
     SCC iter.                  ...        0 min,  0.022 sec
[...]
C24-C5-N6=120.30               C7-N6-C5=118.90                C8-C7-N6=114.57                N21-C7-N6=125.33               
N21-C7-C8=119.90               C9-C8-C7=108.17                C10-C8-C7=110.99               C10-C8-C9=110.42               
N11-C8-C7=106.10               N11-C8-C9=111.42               N11-C8-C10=109.66              H29-C9-C8=111.14               
H30-C9-C8=109.50               H30-C9-H29=109.49              H31-C9-C8=108.21               H31-C9-H29=109.04              
H31-C9-H30=109.43              H32-C10-C8=109.79              H33-C10-C8=108.59              H33-C10-H32=110.08             
H34-C10-C8=109.60              H34-C10-H32=109.50             H34-C10-H33=109.27             
 
 selected dihedral angles (degree)
 ---------------------------------
C3-O2-C1-H26=299.18           C3-O2-C1-H27= 59.68           C3-O2-C1-H28=179.38           O4-C3-O2-C1=  0.92            
C5-C3-O2-C1=181.37            N6-C5-C3-O2=175.39            N6-C5-C3-O4=355.84            C24-C5-C3-O2=351.21           
C24-C5-C3-O4=171.66           C7-N6-C5-C3=177.12            C7-N6-C5-C24=  1.06           C8-C7-N6-C5=180.66            
N21-C7-N6-C5=355.53           C9-C8-C7-N6= 86.09            C9-C8-C7-N21=270.92           C10-C8-C7-N6=207.37           
C10-C8-C7-N21= 32.20          N11-C8-C7-N6=326.43           N11-C8-C7-N21=151.26          H29-C9-C8-C7=175.36           
H29-C9-C8-C10= 53.73          H29-C9-C8-N11=291.61          H30-C9-C8-C7=296.46           H30-C9-C8-C10=174.83          
H30-C9-C8-N11= 52.71          H31-C9-C8-C7= 55.67           H31-C9-C8-C10=294.04          H31-C9-C8-N11=171.91          
H32-C10-C8-C7=182.17          H32-C10-C8-C9=302.12          H32-C10-C8-N11= 65.27         H33-C10-C8-C7=302.57          
H33-C10-C8-C9= 62.52          H33-C10-C8-N11=185.67         H34-C10-C8-C7= 61.85          H34-C10-C8-C9=181.80          
H34-C10-C8-N11=304.95         
           -------------------------------------------------
          |                Final Singlepoint                |
           -------------------------------------------------

          ...................................................
          :                      SETUP                      :
          :.................................................:
          :  # basis functions                 134          :
          :  # atomic orbitals                 134          :
          :  # shells                           84          :
          :  # electrons                       134          :
          :  # halogen bonds                     0          :
          :  max. iterations                   250          :
          :  Hamiltonian                  GFN1-xTB          :
          :  restarted?                      false          :
          :  GBSA solvation                   true          :
          :  PC potential                    false          :
          :  electronic temp.          300.0000000     K    :
          :  accuracy                    1.0000000          :
          :  -> integral cutoff          0.2500000E+02      :
          :  -> integral neglect         0.1000000E-07      :
          :  -> SCF convergence          0.1000000E-05 Eh   :
          :  -> wf. convergence          0.2000000E-04 e    :
          :  Broyden damping             0.4000000          :
          ...................................................

 iter      E             dE          RMSdq      gap      omega  full diag
   1    -83.6341034 -0.836341E+02  0.123E-05    0.13       0.0  T
   2    -83.6341034  0.254678E-08  0.145E-04    0.13     106.6  T
   3    -83.6341034 -0.256030E-08  0.569E-06    0.13    2713.0  T

   *** convergence criteria satisfied after 3 iterations ***

         #    Occupation            Energy/Eh            Energy/eV
      -------------------------------------------------------------
         1        2.0000           -0.8678010             -23.6141
       ...           ...                  ...                  ...
        61        2.0000           -0.4634764             -12.6118
        62        2.0000           -0.4613984             -12.5553
        63        2.0000           -0.4596750             -12.5084
        64        2.0000           -0.4539684             -12.3531
        65        2.0000           -0.4434659             -12.0673
        66        1.9993           -0.4278966             -11.6437
        67        1.8394           -0.4225987             -11.4995 (HOMO)
        68        0.1613           -0.4179702             -11.3735 (LUMO)
        69                         -0.3207634              -8.7284
        70                         -0.2851016              -7.7580
        71                         -0.2727630              -7.4223
        72                         -0.2543782              -6.9220
       ...                                ...                  ...
       134                          0.7306458              19.8819
      -------------------------------------------------------------
                  HL-Gap            0.0046285 Eh            0.1259 eV
             Fermi-level           -0.4202823 Eh          -11.4365 eV

 SCC (total)                   0 d,  0 h,  0 min,  0.136 sec
 SCC setup                      ...        0 min,  0.002 sec (  1.396%)
 Dispersion                     ...        0 min,  0.000 sec (  0.282%)
 classical contributions        ...        0 min,  0.000 sec (  0.084%)
 integral evaluation            ...        0 min,  0.037 sec ( 26.967%)
 iterations                     ...        0 min,  0.011 sec (  7.967%)
 molecular gradient             ...        0 min,  0.085 sec ( 62.717%)
 printout                       ...        0 min,  0.001 sec (  0.560%)

         :::::::::::::::::::::::::::::::::::::::::::::::::::::
         ::                     SUMMARY                     ::
         :::::::::::::::::::::::::::::::::::::::::::::::::::::
         :: total energy             -82.873962454447 Eh    ::
         :: total w/o Gsasa/hb       -82.852783242555 Eh    ::
         :: gradient norm              0.000423666033 Eh/a0 ::
         :: HOMO-LUMO gap              0.125946538443 eV    ::
         ::.................................................::
         :: SCC energy               -83.634103391197 Eh    ::
         :: -> electrostatic           0.365324824140 Eh    ::
         :: -> Gsolv                  -0.060964107784 Eh    ::
         ::    -> Gelec               -0.039784895892 Eh    ::
         ::    -> Gsasa               -0.023163326064 Eh    ::
         ::    -> Ghb                 -0.005640164832 Eh    ::
         ::    -> Gshift               0.007624279005 Eh    ::
         :: repulsion energy           0.787642912660 Eh    ::
         :: dispersion energy         -0.027501975909 Eh    ::
         :: halogen bond corr.         0.000000000000 Eh    ::
         :: add. restraining           0.000000000000 Eh    ::
         :: total charge               0.000000001343 e     ::
         :::::::::::::::::::::::::::::::::::::::::::::::::::::

           -------------------------------------------------
          |                Property Printout                |
           -------------------------------------------------

    * Orbital Energies and Occupations

         #    Occupation            Energy/Eh            Energy/eV
      -------------------------------------------------------------
         1        2.0000           -0.8678010             -23.6141
       ...           ...                  ...                  ...
        55        2.0000           -0.5055699             -13.7573
        56        2.0000           -0.5036948             -13.7062
        57        2.0000           -0.4933522             -13.4248
        58        2.0000           -0.4870097             -13.2522
        59        2.0000           -0.4810983             -13.0914
        60        2.0000           -0.4776064             -12.9963
        61        2.0000           -0.4634764             -12.6118
        62        2.0000           -0.4613984             -12.5553
        63        2.0000           -0.4596750             -12.5084
        64        2.0000           -0.4539684             -12.3531
        65        2.0000           -0.4434659             -12.0673
        66        1.9993           -0.4278966             -11.6437
        67        1.8394           -0.4225987             -11.4995 (HOMO)
        68        0.1613           -0.4179702             -11.3735 (LUMO)
        69                         -0.3207634              -8.7284
        70                         -0.2851016              -7.7580
        71                         -0.2727630              -7.4223
        72                         -0.2543782              -6.9220
        73                         -0.2369990              -6.4491
        74                         -0.1622246              -4.4144
        75                         -0.1386702              -3.7734
        76                         -0.1348749              -3.6701
        77                         -0.1333326              -3.6282
        78                         -0.1265770              -3.4443
       ...                                ...                  ...
       134                          0.7306458              19.8819
      -------------------------------------------------------------
                  HL-Gap            0.0046285 Eh            0.1259 eV
             Fermi-level           -0.4202823 Eh          -11.4365 eV

  Mulliken/CM5 charges         n(s)   n(p)   n(d)
     1C     0.16117  0.03938   0.985  2.853  0.000
     2O    -0.42290 -0.52148   1.691  4.732  0.000
     3C     0.58284  0.64932   0.969  2.448  0.000
     4O    -0.53772 -0.58762   1.720  4.818  0.000
     5C     0.08888  0.17062   1.049  2.863  0.000
     6N    -0.34213 -0.52826   1.543  3.799  0.000
     7C     0.29782  0.45530   1.022  2.680  0.000
     8C     0.16301  0.20864   1.062  2.775  0.000
     9C    -0.08820 -0.22718   1.020  3.068  0.000
    10C    -0.08548 -0.22406   1.023  3.063  0.000
    11N    -0.28396 -0.63411   1.474  3.810  0.000
    12C     0.42045  0.49987   0.992  2.588  0.000
    13C    -0.06706 -0.20501   1.046  3.021  0.000
    14O    -0.62898 -0.67806   1.744  4.885  0.000
    15C     0.36526  0.49167   1.026  2.609  0.000
    16N    -0.23416 -0.34087   1.566  3.668  0.000
    17N    -0.26377 -0.37266   1.566  3.698  0.000
    18C     0.39048  0.49901   1.006  2.604  0.000
    19C    -0.10745 -0.24472   1.011  3.096  0.000
    20O    -0.35749 -0.41750   1.697  4.661  0.000
    21N    -0.38995 -0.56763   1.534  3.856  0.000
    22C     0.47101  0.57974   0.986  2.543  0.000
    23O    -0.55181 -0.58643   1.732  4.819  0.000
    24C     0.25882  0.29446   1.049  2.692  0.000
    25O    -0.47226 -0.66576   1.688  4.784  0.000
    26H     0.06122  0.12303   0.939  0.000  0.000
    27H     0.06214  0.12408   0.938  0.000  0.000
    28H     0.06313  0.12353   0.937  0.000  0.000
    29H     0.06885  0.13074   0.931  0.000  0.000
    30H     0.04902  0.10808   0.951  0.000  0.000
    31H     0.05029  0.10612   0.950  0.000  0.000
    32H     0.06012  0.11813   0.940  0.000  0.000
    33H     0.05355  0.11159   0.946  0.000  0.000
    34H     0.05003  0.10746   0.950  0.000  0.000
    35H     0.26336  0.47697   0.737  0.000  0.000
    36H     0.07424  0.13211   0.926  0.000  0.000
    37H     0.07121  0.12817   0.929  0.000  0.000
    38H     0.06403  0.12442   0.936  0.000  0.000
    39H     0.06569  0.12149   0.934  0.000  0.000
    40H     0.07628  0.13091   0.924  0.000  0.000
    41H     0.08498  0.14468   0.915  0.000  0.000
    42H     0.41544  0.60187   0.585  0.000  0.000

Wiberg/Mayer (AO) data.
largest (>0.10) Wiberg bond orders for each atom

 ---------------------------------------------------------------------------
     #   Z sym  total        # sym  WBO       # sym  WBO       # sym  WBO
 ---------------------------------------------------------------------------
     1   6 C    3.853 --    28 H    0.986    27 H    0.979    26 H    0.979
                             2 O    0.877
     2   8 O    2.210 --     3 C    1.105     1 C    0.877     4 O    0.133
     3   6 C    3.840 --     4 O    1.672     2 O    1.105     5 C    0.982
     4   8 O    1.953 --     3 C    1.672     2 O    0.133
     5   6 C    3.931 --    24 C    1.364     6 N    1.324     3 C    0.982
     6   7 N    3.015 --     5 C    1.324     7 C    1.307
     7   6 C    3.931 --    21 N    1.470     6 N    1.307     8 C    0.976
     8   6 C    3.928 --     7 C    0.976    11 N    0.972     9 C    0.946
                            10 C    0.944
     9   6 C    3.974 --    30 H    0.985    31 H    0.981    29 H    0.974
                             8 C    0.946
    10   6 C    3.973 --    34 H    0.985    32 H    0.983    33 H    0.978
                             8 C    0.944
    11   7 N    3.329 --     8 C    0.972    12 C    0.951    35 H    0.879
                            14 O    0.198
    12   6 C    3.898 --    14 O    1.282    11 N    0.951    15 C    0.827
                            13 C    0.761
    13   6 C    3.850 --    38 H    0.986    37 H    0.981    36 H    0.981
                            12 C    0.761
    14   8 O    1.675 --    12 C    1.282    11 N    0.198
    15   6 C    3.802 --    16 N    1.661    20 O    1.061    12 C    0.827
    16   7 N    2.982 --    15 C    1.661    17 N    1.151
    17   7 N    2.987 --    18 C    1.631    16 N    1.151
    18   6 C    3.858 --    17 N    1.631    20 O    1.051    19 C    1.032
    19   6 C    3.984 --    18 C    1.032    39 H    0.982    40 H    0.963
                            41 H    0.956
    20   8 O    2.313 --    15 C    1.061    18 C    1.051
    21   7 N    2.999 --     7 C    1.470    22 C    1.157
    22   6 C    3.883 --    23 O    1.601    21 N    1.157    24 C    1.002
    23   8 O    1.816 --    22 C    1.601
    24   6 C    3.766 --     5 C    1.364    25 O    1.164    22 C    1.002
    25   8 O    2.082 --    24 C    1.164    42 H    0.788
    26   1 H    1.004 --     1 C    0.979
    27   1 H    1.004 --     1 C    0.979
    28   1 H    1.007 --     1 C    0.986
    29   1 H    1.012 --     9 C    0.974
    30   1 H    1.001 --     9 C    0.985
    31   1 H    1.001 --     9 C    0.981
    32   1 H    1.006 --    10 C    0.983
    33   1 H    1.009 --    10 C    0.978
    34   1 H    1.003 --    10 C    0.985
    35   1 H    0.951 --    11 N    0.879
    36   1 H    0.996 --    13 C    0.981
    37   1 H    1.000 --    13 C    0.981
    38   1 H    0.999 --    13 C    0.986
    39   1 H    0.998 --    19 C    0.982
    40   1 H    0.997 --    19 C    0.963
    41   1 H    1.011 --    19 C    0.956
    42   1 H    0.842 --    25 O    0.788
 ---------------------------------------------------------------------------

Topologies differ in total number of bonds
Writing topology from bond orders to xtbtopo.mol

 dipole moment from electron density (au)
     X       Y       Z   
   0.8497   5.1906   0.8804  total (Debye):   13.555

           -------------------------------------------------
          |                Geometry Summary                 |
           -------------------------------------------------

      molecular mass/u    :      351.3152409
   center of mass at/Å    :        0.2215054      -0.1007607      -0.0538665
  moments of inertia/u·Å² :        0.1715393E+04   0.2812266E+04   0.4206381E+04
rotational constants/cm⁻¹ :        0.9827273E-02   0.5994323E-02   0.4007633E-02

 * 36 selected distances

     #   Z          #   Z                                           value/Å
     1   6 C        2   8 O                                       1.4374965
     2   8 O        3   6 C                                       1.3341770
     3   6 C        4   8 O                                       1.2063551
     5   6 C        6   7 N                                       1.3396858
     6   7 N        7   6 C                                       1.3369274
     8   6 C       10   6 C                                       1.5367540 (max)
     8   6 C       11   7 N                                       1.4360615
    11   7 N       12   6 C                                       1.4473882
    12   6 C       14   8 O                                       1.2741888
    15   6 C       16   7 N                                       1.2868503
    17   7 N       18   6 C                                       1.2938135
    18   6 C       19   6 C                                       1.4774033
    15   6 C       20   8 O                                       1.3457971
    18   6 C       20   8 O                                       1.3480855
     7   6 C       21   7 N                                       1.3051392
    21   7 N       22   6 C                                       1.3702391
    22   6 C       23   8 O                                       1.2211488
     5   6 C       24   6 C                                       1.3906250
    24   6 C       25   8 O                                       1.3213136
     1   6 C       26   1 H                                       1.0915733
     1   6 C       27   1 H                                       1.0913265
     1   6 C       28   1 H                                       1.0867804
     9   6 C       29   1 H                                       1.0877451
     9   6 C       30   1 H                                       1.0884534
     9   6 C       31   1 H                                       1.0885585
    10   6 C       32   1 H                                       1.0882971
    10   6 C       33   1 H                                       1.0888833
    10   6 C       34   1 H                                       1.0878582
    11   7 N       35   1 H                                       1.0130687
    13   6 C       36   1 H                                       1.0853347
    13   6 C       37   1 H                                       1.0855463
    13   6 C       38   1 H                                       1.0839185
    19   6 C       39   1 H                                       1.0871113
    19   6 C       40   1 H                                       1.0893626
    19   6 C       41   1 H                                       1.0905822
    25   8 O       42   1 H                                       0.9736496 (min)

 * 6 distinct bonds (by element types)

   Z      Z             #   av. dist./Å        max./Å        min./Å
   1 H    6 C          15     1.0880888     1.0915733     1.0839185
   6 C    6 C           3     1.4682607     1.5367540     1.3906250
   1 H    7 N           1     1.0130687     1.0130687     1.0130687
   6 C    7 N           8     1.3520131     1.4473882     1.2868503
   1 H    8 O           1     0.9736496     0.9736496     0.9736496
   6 C    8 O           8     1.3110703     1.4374965     1.2063551


optimized geometry written to: xtbopt.xyz


           -------------------------------------------------
          | TOTAL ENERGY              -82.873962454447 Eh   |
          | GRADIENT NORM               0.000423666033 Eh/α |
          | HOMO-LUMO GAP               0.125946538443 eV   |
           -------------------------------------------------

------------------------------------------------------------------------
 * finished run on 2023/06/20 at 18:21:02.446     
------------------------------------------------------------------------
 total:
 * wall-time:     0 d,  0 h,  0 min, 12.478 sec
 *  cpu-time:     0 d,  0 h,  0 min, 12.300 sec
 * ratio c/w:     0.986 speedup
 SCF:
 * wall-time:     0 d,  0 h,  0 min,  0.273 sec
 *  cpu-time:     0 d,  0 h,  0 min,  0.212 sec
 * ratio c/w:     0.776 speedup
 ANC optimizer:
 * wall-time:     0 d,  0 h,  0 min, 12.079 sec
 *  cpu-time:     0 d,  0 h,  0 min, 12.038 sec
 * ratio c/w:     0.997 speedup

