42
 energy: -83.640415443136 gnorm: 0.000368271018 xtb: 6.5.1 (579679a)
C           -4.81740269809330        1.60257782374628       -2.03739954069658
O           -3.85032146672563        1.02281376516308       -1.17760033068229
C           -4.22943798230460        0.89237414459454        0.13625354219090
O           -5.33699595460611        1.27311344563753        0.49064893680750
C           -3.20106222819302        0.28262609654418        0.95566647595731
N           -2.03594582502899       -0.05888230978638        0.28692334199659
C           -1.06779620003807       -0.61777132027002        0.91477765659329
C            0.18682300569791       -1.08559340999729        0.18542511006899
C            0.34979984218926       -0.23761058790892       -1.08738488342484
C           -0.08783543073307       -2.55591653199866       -0.19661783068590
N            1.27670456988166       -0.97770314411637        1.15387577193631
C            2.76241023311290       -1.09724867532530        0.80058223600667
C            3.03808499070032       -2.41129655682312        0.00639435138817
O            3.48638379779667       -0.97708925630718        1.87954636103403
C            3.12235534297277        0.07832701157290       -0.17593754060237
N            3.93269979811471        0.02510193300694       -1.19103841335531
N            4.17634009305239        1.32962326293943       -1.58377225508599
C            3.50648010952974        2.07915759190086       -0.77485387296002
C            3.43347501836532        3.56115603512573       -0.77160601381755
O            2.82063036500514        1.36215939385923        0.13666565179633
N           -1.14890858271525       -0.91149927285007        2.25862429998549
C           -2.23036531818028       -0.62980942838562        3.04282622936429
O           -2.21797827795400       -0.92243762368428        4.24018641941659
C           -3.39407585248544        0.03306051066233        2.34000903849893
O           -4.41666428785681        0.30533134335745        3.00039331116364
H           -5.06151438466055        2.62238439646965       -1.72129877249106
H           -5.73785372651998        1.00900695779285       -2.04677192804528
H           -4.38658193883739        1.62360431269407       -3.03787618492058
H            1.19448286318143       -0.58158587748462       -1.68139964372949
H            0.49711380298301        0.80941526714057       -0.82642874127914
H           -0.55753240915406       -0.31991553766444       -1.68632571275010
H           -1.09559331786246       -2.64309825645468       -0.60389458321775
H            0.60841559785252       -2.91511839250743       -0.95034690211776
H           -0.01241634094353       -3.18705901465176        0.68799426427936
H            1.21778927982860       -0.06048756364308        1.59602734104626
H            2.62790108473905       -3.25884531516710        0.55108634940508
H            4.12007291087257       -2.52758404384065       -0.05415445801760
H            2.63778572628221       -2.38403924999176       -1.00477550362571
H            4.10506447636198        3.95830043425379       -1.52852255193651
H            3.71818993316058        3.95136752844953        0.20519479355127
H            2.41704585751620        3.89200717363088       -0.98537358325275
H           -0.34976747627690       -1.35291505967406        2.69583576421514
