42
 energy: -83.656283998483 gnorm: 0.000204251162 xtb: 6.5.1 (579679a)
C           -5.99277998123624       -1.07381445538385        2.27737072549563
O           -4.78995058674348       -0.70932057613752        1.61175429936422
C           -4.79528567431842       -0.83405523884155        0.26700716393052
O           -5.78091135932985       -1.22508931232428       -0.32878533593348
C           -3.50187512002052       -0.46144961933875       -0.34091961626779
N           -2.54092210120452        0.02432041254960        0.50258571744084
C           -1.36614139006258        0.33013780171664       -0.01308405344563
C           -0.35056737670587        0.90964382452177        0.97051423520448
C           -0.77971745997258        2.35860137280673        1.26756139615667
C           -0.36712391156283        0.07525929766390        2.26408884141776
N            0.96574434289331        0.89218932692304        0.35053938313967
C            2.11804981770654        1.21593966131579        1.05272478735702
O            2.08229185481652        1.88240961067370        2.11361165119962
C            3.32291135694471        0.77567445099531        0.44611021864975
N            4.55425775902957        0.97564559673704        0.88614795045873
N            5.43360734847927        0.39721796418223        0.11580933222417
C            4.69638747564480       -0.27701222244523       -0.96521671362069
C            4.96082272359041       -1.79255424850253       -0.90589920897867
C            5.13026917703956        0.29311747602450       -2.32719525853937
O            3.32201146159196       -0.00572862157166       -0.73108097925952
N           -0.99845560854579        0.22446743730599       -1.28957852020501
C           -1.89896259755505       -0.23303070383937       -2.18830591746746
O           -1.67364342501880       -0.36428620545468       -3.41068625037452
C           -3.22353103666263       -0.59198612781324       -1.67749920036784
O           -4.09378738200274       -1.05189764005298       -2.60778320514788
H           -5.81728424481143       -0.94867532995519        3.34444469862113
H           -6.25013093506644       -2.11488614525113        2.06183395707399
H           -6.81868641503815       -0.43192672758531        1.95806133709635
H           -0.12480412009434        2.80958016907891        2.01202273921923
H           -0.73841614687531        2.95166920436380        0.35345965594031
H           -1.80187797299752        2.36363552464654        1.64554195661703
H            0.26624667141550        0.52983412456588        3.02479660820670
H           -0.01101490472182       -0.93484496793497        2.06116305741947
H           -1.38755694676225        0.01681073446382        2.64173403269486
H            1.07013706983564        0.22383407136793       -0.40549222517690
H            4.64682238137513       -2.17623583512954        0.06363781957326
H            4.40619280700316       -2.30648775996868       -1.68920274234169
H            6.02435616844640       -1.98294320326284       -1.03370869562323
H            4.57985522658683       -0.18865263603589       -3.13364941379491
H            4.93328606369782        1.36393777171183       -2.35061590242982
H            6.19600402960373        0.12612758744741       -2.46910597441506
H           -3.60582903838734       -1.03517484423096       -3.45810535111398
