      -----------------------------------------------------------      
     |                   =====================                   |     
     |                           x T B                           |     
     |                   =====================                   |     
     |                         S. Grimme                         |     
     |          Mulliken Center for Theoretical Chemistry        |     
     |                    University of Bonn                     |     
      -----------------------------------------------------------      

   * xtb version 6.5.1 (579679a) compiled by 'ehlert@majestix' on 2022-07-11

   xtb is free software: you can redistribute it and/or modify it under
   the terms of the GNU Lesser General Public License as published by
   the Free Software Foundation, either version 3 of the License, or
   (at your option) any later version.
   
   xtb is distributed in the hope that it will be useful,
   but WITHOUT ANY WARRANTY; without even the implied warranty of
   MERCHANTABILITY or FITNESS FOR A PARTICULAR PURPOSE.  See the
   GNU Lesser General Public License for more details.
   
   Cite this work as:
   * C. Bannwarth, E. Caldeweyher, S. Ehlert, A. Hansen, P. Pracht,
     J. Seibert, S. Spicher, S. Grimme, WIREs Comput. Mol. Sci., 2020, 11,
     e01493. DOI: 10.1002/wcms.1493
   
   for GFN2-xTB:
   * C. Bannwarth, S. Ehlert and S. Grimme., J. Chem. Theory Comput., 2019,
     15, 1652-1671. DOI: 10.1021/acs.jctc.8b01176
   for GFN1-xTB:
   * S. Grimme, C. Bannwarth, P. Shushkov, J. Chem. Theory Comput., 2017,
     13, 1989-2009. DOI: 10.1021/acs.jctc.7b00118
   for GFN0-xTB:
   * P. Pracht, E. Caldeweyher, S. Ehlert, S. Grimme, ChemRxiv, 2019, preprint.
     DOI: 10.26434/chemrxiv.8326202.v1
   for GFN-FF:
   * S. Spicher and S. Grimme, Angew. Chem. Int. Ed., 2020, 59, 15665-15673.
     DOI: 10.1002/anie.202004239
   
   for ALPB and GBSA implicit solvation:
   * S. Ehlert, M. Stahn, S. Spicher, S. Grimme, J. Chem. Theory Comput.,
     2021, 17, 4250-4261. DOI: 10.1021/acs.jctc.1c00471
   
   for DFT-D4:
   * E. Caldeweyher, C. Bannwarth and S. Grimme, J. Chem. Phys., 2017,
     147, 034112. DOI: 10.1063/1.4993215
   * E. Caldeweyher, S. Ehlert, A. Hansen, H. Neugebauer, S. Spicher,
     C. Bannwarth and S. Grimme, J. Chem. Phys., 2019, 150, 154122.
     DOI: 10.1063/1.5090222
   * E. Caldeweyher, J.-M. Mewes, S. Ehlert and S. Grimme, Phys. Chem. Chem. Phys.
     2020, 22, 8499-8512. DOI: 10.1039/D0CP00502A
   
   for sTDA-xTB:
   * S. Grimme and C. Bannwarth, J. Chem. Phys., 2016, 145, 054103.
     DOI: 10.1063/1.4959605
   
   in the mass-spec context:
   * V. Asgeirsson, C. Bauer and S. Grimme, Chem. Sci., 2017, 8, 4879.
     DOI: 10.1039/c7sc00601b
   * J. Koopman and S. Grimme, ACS Omega 2019, 4, 12, 15120-15133.
     DOI: 10.1021/acsomega.9b02011
   
   for metadynamics refer to:
   * S. Grimme, J. Chem. Theory Comput., 2019, 155, 2847-2862
     DOI: 10.1021/acs.jctc.9b00143
   
   for SPH calculations refer to:
   * S. Spicher and S. Grimme, J. Chem. Theory Comput., 2021, 17, 1701-1714
     DOI: 10.1021/acs.jctc.0c01306
   
   with help from (in alphabetical order)
   P. Atkinson, C. Bannwarth, F. Bohle, G. Brandenburg, E. Caldeweyher
   M. Checinski, S. Dohm, S. Ehlert, S. Ehrlich, I. Gerasimov, C. Hölzer
   A. Katbashev, J. Koopman, C. Lavigne, S. Lehtola, F. März, M. Müller,
   F. Musil, H. Neugebauer, J. Pisarek, C. Plett, P. Pracht, F. Pultar,
   J. Seibert, P. Shushkov, S. Spicher, M. Stahn, M. Steiner, T. Strunk,
   J. Stückrath, T. Rose, and J. Unsleber
   
 * started run on 2023/06/20 at 17:41:18.810     

           -------------------------------------------------
          |                Calculation Setup                |
           -------------------------------------------------

          program call               : /lustre/hpc/kemi/ree/PhD/git/ReactivityQM/dep/xtb-6.5.1/bin/xtb --gfn 1 /lustre/hpc/kemi/ree/PhD/git/ReactivityQM/calculations/R02deprot/reac01prodE05/conf04/R02deprot_reac01prodE05_conf04_gfn1.xyz --opt --vfukui --chrg -2 --uhf 0 --alpb DMSO
          hostname                   : node308
          coordinate file            : /lustre/hpc/kemi/ree/PhD/git/ReactivityQM/calculations/R02deprot/reac01prodE05/conf04/R02deprot_reac01prodE05_conf04_gfn1.xyz
          omp threads                :                     1

   ID    Z sym.   atoms
    1    6 C      1, 3, 5, 6, 8, 11-14, 16, 18, 21, 22, 25
    2    8 O      2, 4, 7, 9, 17, 23
    3    7 N      10, 15, 19, 20, 24
    4    1 H      26-42

           -------------------------------------------------
          |                 G F N 1 - x T B                 |
           -------------------------------------------------

        Reference                      10.1021/acs.jctc.7b00118
      * Hamiltonian:
        H0-scaling (s, p, d)           1.850000    2.250000    2.000000
        zeta-weighting                 0.000000
      * Dispersion:
        s8                             2.400000
        a1                             0.630000
        a2                             5.000000
        s9                             0.000000
      * Repulsion:
        kExp                           1.500000
        rExp                           1.000000
      * Coulomb:
        alpha                          2.000000
        third order                    atomic
        anisotropic                    false
      * Halogen bond correction:
        rad-scale                      1.300000
        damping                        0.440000

      * Solvation model:               ALPB
        Solvent                        DMSO
        Parameter file                 internal GFN1-xTB/ALPB
        Dielectric constant                4.6680E+01
        Reference state                gsolv [1 M gas/solution]
        Free energy shift                  7.6243E-03 Eh       4.7843E+00 kcal/mol
        Temperature                        2.9815E+02 K
        Density                            1.1000E+00 kg/L
        Solvent mass                       7.8130E+01 g/mol
        Interaction kernel             P16
        Born radius scaling (c1)           1.7672E+00
        Born radii integrator          GBOBC
        Born offset                        0.0000E+00 a0       0.0000E+00 AA
        H-bond correction              true
        Ion screening                  false
        Surface tension                    1.0000E-05 Eh       1.5569E+01 dyn/cm
        Grid points                               230 per atom

          ...................................................
          :                      SETUP                      :
          :.................................................:
          :  # basis functions                 134          :
          :  # atomic orbitals                 134          :
          :  # shells                           84          :
          :  # electrons                       136          :
          :  # halogen bonds                     0          :
          :  max. iterations                   250          :
          :  Hamiltonian                  GFN1-xTB          :
          :  restarted?                      false          :
          :  GBSA solvation                   true          :
          :  PC potential                    false          :
          :  electronic temp.          300.0000000     K    :
          :  accuracy                    1.0000000          :
          :  -> integral cutoff          0.2500000E+02      :
          :  -> integral neglect         0.1000000E-07      :
          :  -> SCF convergence          0.1000000E-05 Eh   :
          :  -> wf. convergence          0.2000000E-04 e    :
          :  Broyden damping             0.4000000          :
          ...................................................

 iter      E             dE          RMSdq      gap      omega  full diag
   1    -83.9583365 -0.839583E+02  0.874E+00    0.43       0.0  T
   2    -84.0314458 -0.731093E-01  0.539E+00    1.25       1.0  T
   3    -83.9351248  0.963210E-01  0.291E+00    0.86       1.0  T
   4    -84.1815702 -0.246445E+00  0.113E+00    0.89       1.0  T
   5    -84.2169798 -0.354097E-01  0.675E-01    0.24       1.0  T
   6    -84.0759969  0.140983E+00  0.127E+00    1.07       1.0  T
   7    -84.2761366 -0.200140E+00  0.126E-01    0.02       1.0  T
   8    -84.2488535  0.272831E-01  0.423E-01    0.03       1.0  T
   9    -84.2165519  0.323016E-01  0.647E-01    0.28       1.0  T
  10    -84.2330421 -0.164903E-01  0.540E-01    0.15       1.0  T
  11    -84.2564014 -0.233593E-01  0.365E-01    0.02       1.0  T
  12    -84.2729838 -0.165824E-01  0.170E-01    0.05       1.0  T
  13    -84.2764127 -0.342883E-02  0.817E-02    0.02       1.0  T
  14    -84.2772726 -0.859937E-03  0.347E-02    0.03       1.0  T
  15    -84.2774527 -0.180119E-03  0.719E-03    0.03       2.1  T
  16    -84.2774543 -0.161222E-05  0.647E-03    0.03       2.4  T
  17    -84.2774606 -0.630049E-05  0.120E-03    0.03      12.8  T
  18    -84.2774608 -0.206512E-06  0.370E-04    0.03      41.7  T
  19    -84.2774609 -0.209529E-07  0.559E-05    0.03     276.0  T
  20    -84.2774609 -0.225455E-09  0.409E-05    0.03     377.2  T

   *** convergence criteria satisfied after 20 iterations ***

         #    Occupation            Energy/Eh            Energy/eV
      -------------------------------------------------------------
         1        2.0000           -0.7940842             -21.6081
       ...           ...                  ...                  ...
        62        2.0000           -0.3920657             -10.6686
        63        2.0000           -0.3869045             -10.5282
        64        2.0000           -0.3833538             -10.4316
        65        2.0000           -0.3791940             -10.3184
        66        2.0000           -0.3481650              -9.4741
        67        2.0000           -0.3420463              -9.3076
        68        1.2735           -0.2520368              -6.8583 (HOMO)
        69        0.7265           -0.2509703              -6.8292 (LUMO)
        70                         -0.2262627              -6.1569
        71                         -0.2026055              -5.5132
        72                         -0.1535389              -4.1780
        73                         -0.1344290              -3.6580
       ...                                ...                  ...
       134                          0.7403027              20.1447
      -------------------------------------------------------------
                  HL-Gap            0.0010666 Eh            0.0290 eV
             Fermi-level           -0.2515035 Eh           -6.8438 eV

 SCC (total)                   0 d,  0 h,  0 min,  0.190 sec
 SCC setup                      ...        0 min,  0.002 sec (  1.165%)
 Dispersion                     ...        0 min,  0.000 sec (  0.226%)
 classical contributions        ...        0 min,  0.000 sec (  0.070%)
 integral evaluation            ...        0 min,  0.036 sec ( 18.725%)
 iterations                     ...        0 min,  0.069 sec ( 36.201%)
 molecular gradient             ...        0 min,  0.082 sec ( 43.144%)
 printout                       ...        0 min,  0.001 sec (  0.449%)

         :::::::::::::::::::::::::::::::::::::::::::::::::::::
         ::                     SUMMARY                     ::
         :::::::::::::::::::::::::::::::::::::::::::::::::::::
         :: total energy             -83.559329866389 Eh    ::
         :: total w/o Gsasa/hb       -83.538889123824 Eh    ::
         :: gradient norm              0.150110692323 Eh/a0 ::
         :: HOMO-LUMO gap              0.029022884278 eV    ::
         ::.................................................::
         :: SCC energy               -84.277460862653 Eh    ::
         :: -> electrostatic           0.662653818621 Eh    ::
         :: -> Gsolv                  -0.260026467772 Eh    ::
         ::    -> Gelec               -0.239585725207 Eh    ::
         ::    -> Gsasa               -0.024273550321 Eh    ::
         ::    -> Ghb                 -0.003791471249 Eh    ::
         ::    -> Gshift               0.007624279005 Eh    ::
         :: repulsion energy           0.744507720746 Eh    ::
         :: dispersion energy         -0.026376724482 Eh    ::
         :: halogen bond corr.         0.000000000000 Eh    ::
         :: add. restraining           0.000000000000 Eh    ::
         :: total charge              -2.000000000006 e     ::
         :::::::::::::::::::::::::::::::::::::::::::::::::::::

      ----------------------------------------------------------- 
     |                   =====================                   |
     |                        A N C O P T                        |
     |                   =====================                   |
     |               Approximate Normal Coordinate               |
     |                Rational Function Optimizer                |
      ----------------------------------------------------------- 

          ...................................................
          :                      SETUP                      :
          :.................................................:
          :   optimization level            normal          :
          :   max. optcycles                   200          :
          :   ANC micro-cycles                  20          :
          :   degrees of freedom               120          :
          :.................................................:
          :   RF solver                   davidson          :
          :   write xtbopt.log                true          :
          :   linear?                        false          :
          :   energy convergence         0.5000000E-05 Eh   :
          :   grad. convergence          0.1000000E-02 Eh/α :
          :   maximium RF displ.         1.0000000          :
          :   Hlow (freq-cutoff)         0.1000000E-01      :
          :   Hmax (freq-cutoff)         5.0000000          :
          :   S6 in model hess.         20.0000000          :
          ...................................................

generating ANC from model Hessian ...
Using Lindh-Hessian (1995)
 Shifting diagonal of input Hessian by   9.830192929962145E-003
 Lowest  eigenvalues of input Hessian
    0.000000    0.000000    0.000000    0.000000    0.000000    0.000000
    0.010000    0.010206    0.010592    0.010916    0.011839    0.012460
    0.013395    0.013845    0.014817    0.015673    0.015910    0.016154
 Highest eigenvalues
    1.937987    1.989111    2.081979    2.161274    2.243420    2.288170
 

........................................................................
.............................. CYCLE    1 ..............................
........................................................................
   1    -84.2774609 -0.842775E+02  0.101E-05    0.03       0.0  T
   2    -84.2774609  0.633686E-08  0.202E-04    0.03      76.6  T
   3    -84.2774609 -0.635296E-08  0.373E-07    0.03   41387.4  T
   4    -84.2774609 -0.284217E-13  0.120E-07    0.03  100000.0  T
     SCC iter.                  ...        0 min,  0.014 sec
     gradient                   ...        0 min,  0.082 sec
 * total energy  :   -83.5593299 Eh     change       -0.2629577E-09 Eh
   gradient norm :     0.1501115 Eh/α   predicted     0.0000000E+00 (-100.00%)
   displ. norm   :     0.2729129 α      lambda       -0.2033077E-01
   maximum displ.:     0.0746950 α      in ANC's #26, #65, #7, ...

........................................................................
.............................. CYCLE    2 ..............................
........................................................................
   1    -84.2790104 -0.842790E+02  0.211E-01    0.01       0.0  T
   2    -84.2157149  0.632955E-01  0.719E-01    0.49       1.0  T
   3    -84.2721127 -0.563978E-01  0.289E-01    0.07       1.0  T
   4    -84.2106002  0.615125E-01  0.690E-01    0.07       1.0  T
   5    -84.2661118 -0.555116E-01  0.347E-01    0.08       1.0  T
   6    -84.2828981 -0.167864E-01  0.101E-01    0.02       1.0  T
   7    -84.2839258 -0.102764E-02  0.611E-02    0.04       1.0  T
   8    -84.2844820 -0.556226E-03  0.963E-03    0.03       1.6  T
   9    -84.2844964 -0.143346E-04  0.682E-04    0.03      22.6  T
  10    -84.2844964 -0.295204E-07  0.493E-04    0.03      31.3  T
  11    -84.2844964 -0.278576E-07  0.231E-04    0.03      66.8  T
  12    -84.2844964 -0.976002E-10  0.230E-04    0.03      67.2  T
  13    -84.2844964 -0.806979E-08  0.220E-05    0.03     702.8  T
  14    -84.2844964 -0.732854E-10  0.273E-06    0.03    5643.8  T
     SCC iter.                  ...        0 min,  0.047 sec
     gradient                   ...        0 min,  0.077 sec
 * total energy  :   -83.5741156 Eh     change       -0.1478575E-01 Eh
   gradient norm :     0.0750094 Eh/α   predicted    -0.1093027E-01 ( -26.08%)
   displ. norm   :     0.3007771 α      lambda       -0.9477631E-02
   maximum displ.:     0.0910277 α      in ANC's #13, #24, #7, ...

........................................................................
.............................. CYCLE    3 ..............................
........................................................................
   1    -84.2840993 -0.842841E+02  0.292E-01    0.01       0.0  T
   2    -84.2200545  0.640448E-01  0.795E-01    0.75       1.0  T
   3    -84.2436085 -0.235540E-01  0.599E-01    0.18       1.0  T
   4    -84.2546191 -0.110106E-01  0.519E-01    0.04       1.0  T
   5    -84.2699588 -0.153397E-01  0.418E-01    0.10       1.0  T
   6    -84.2917640 -0.218051E-01  0.165E-01    0.01       1.0  T
   7    -84.2942290 -0.246502E-02  0.108E-01    0.04       1.0  T
   8    -84.2958234 -0.159438E-02  0.305E-02    0.02       1.0  T
   9    -84.2959635 -0.140162E-03  0.378E-03    0.03       4.1  T
  10    -84.2959655 -0.201574E-05  0.994E-04    0.03      15.5  T
  11    -84.2959656 -0.420297E-07  0.838E-04    0.03      18.4  T
  12    -84.2959657 -0.101845E-06  0.154E-04    0.03     100.4  T
  13    -84.2959657 -0.352578E-08  0.244E-05    0.03     632.6  T
     SCC iter.                  ...        0 min,  0.045 sec
     gradient                   ...        0 min,  0.077 sec
 * total energy  :   -83.5795774 Eh     change       -0.5461770E-02 Eh
   gradient norm :     0.0228209 Eh/α   predicted    -0.5169352E-02 (  -5.35%)
   displ. norm   :     0.2269135 α      lambda       -0.1283260E-02
   maximum displ.:     0.1056399 α      in ANC's #13, #7, #5, ...

........................................................................
.............................. CYCLE    4 ..............................
........................................................................
   1    -84.2984000 -0.842984E+02  0.786E-02    0.02       0.0  T
   2    -84.2392923  0.591077E-01  0.644E-01    0.22       1.0  T
   3    -84.2982424 -0.589501E-01  0.845E-02    0.04       1.0  T
   4    -84.2991705 -0.928088E-03  0.236E-02    0.02       1.0  T
   5    -84.2984129  0.757604E-03  0.754E-02    0.04       1.0  T
   6    -84.2992322 -0.819265E-03  0.133E-02    0.02       1.2  T
   7    -84.2992598 -0.275802E-04  0.584E-04    0.03      26.4  T
   8    -84.2992597  0.667170E-07  0.887E-04    0.03      17.4  T
   9    -84.2992598 -0.111242E-06  0.230E-04    0.03      67.2  T
  10    -84.2992598 -0.230040E-08  0.192E-04    0.03      80.6  T
  11    -84.2992598 -0.514730E-08  0.499E-05    0.03     308.9  T
     SCC iter.                  ...        0 min,  0.038 sec
     gradient                   ...        0 min,  0.078 sec
 * total energy  :   -83.5805859 Eh     change       -0.1008541E-02 Eh
   gradient norm :     0.0149676 Eh/α   predicted    -0.6747238E-03 ( -33.10%)
   displ. norm   :     0.3983395 α      lambda       -0.1426388E-02
   maximum displ.:     0.1874908 α      in ANC's #13, #5, #7, ...

........................................................................
.............................. CYCLE    5 ..............................
........................................................................
   1    -84.3002946 -0.843003E+02  0.914E-02    0.02       0.0  T
   2    -84.2377915  0.625031E-01  0.669E-01    0.25       1.0  T
   3    -84.2990657 -0.612741E-01  0.129E-01    0.04       1.0  T
   4    -84.3004341 -0.136846E-02  0.813E-02    0.02       1.0  T
   5    -84.2980215  0.241262E-02  0.152E-01    0.05       1.0  T
   6    -84.3014654 -0.344388E-02  0.193E-03    0.03       8.0  T
   7    -84.3014645  0.904999E-06  0.244E-03    0.03       6.3  T
   8    -84.3014654 -0.917610E-06  0.355E-04    0.03      43.5  T
   9    -84.3014654 -0.743002E-08  0.239E-04    0.03      64.6  T
  10    -84.3014654 -0.158693E-08  0.209E-04    0.03      73.8  T
  11    -84.3014654 -0.620275E-08  0.448E-05    0.03     344.4  T
  12    -84.3014654  0.196593E-09  0.580E-05    0.03     266.2  T
     SCC iter.                  ...        0 min,  0.041 sec
     gradient                   ...        0 min,  0.078 sec
 * total energy  :   -83.5815476 Eh     change       -0.9616497E-03 Eh
   gradient norm :     0.0107172 Eh/α   predicted    -0.8263839E-03 ( -14.07%)
   displ. norm   :     0.3038615 α      lambda       -0.5675061E-03
   maximum displ.:     0.1352020 α      in ANC's #5, #13, #3, ...

........................................................................
.............................. CYCLE    6 ..............................
........................................................................
   1    -84.3019507 -0.843020E+02  0.354E-02    0.02       0.0  T
   2    -84.2676092  0.343415E-01  0.482E-01    0.11       1.0  T
   3    -84.3019904 -0.343812E-01  0.317E-02    0.03       1.0  T
   4    -84.3020954 -0.104962E-03  0.153E-02    0.03       1.0  T
   5    -84.3021211 -0.257849E-04  0.618E-03    0.03       2.5  T
   6    -84.3021255 -0.431492E-05  0.182E-03    0.03       8.5  T
   7    -84.3021259 -0.467903E-06  0.247E-04    0.03      62.4  T
   8    -84.3021259 -0.450159E-08  0.165E-04    0.03      93.6  T
   9    -84.3021259 -0.381377E-08  0.378E-05    0.03     407.9  T
     SCC iter.                  ...        0 min,  0.031 sec
     gradient                   ...        0 min,  0.078 sec
 * total energy  :   -83.5819715 Eh     change       -0.4239707E-03 Eh
   gradient norm :     0.0119549 Eh/α   predicted    -0.3099532E-03 ( -26.89%)
   displ. norm   :     0.3250510 α      lambda       -0.5000985E-03
   maximum displ.:     0.1499360 α      in ANC's #3, #5, #11, ...

........................................................................
.............................. CYCLE    7 ..............................
........................................................................
   1    -84.3023550 -0.843024E+02  0.405E-02    0.02       0.0  T
   2    -84.2598332  0.425218E-01  0.538E-01    0.13       1.0  T
   3    -84.3023718 -0.425386E-01  0.403E-02    0.03       1.0  T
   4    -84.3026024 -0.230642E-03  0.359E-03    0.02       4.3  T
   5    -84.3025582  0.442573E-04  0.176E-02    0.03       1.0  T
   6    -84.3026033 -0.451636E-04  0.112E-03    0.03      13.8  T
   7    -84.3026035 -0.176205E-06  0.223E-04    0.03      69.3  T
   8    -84.3026035  0.100009E-08  0.221E-04    0.03      69.9  T
   9    -84.3026035 -0.463216E-08  0.134E-04    0.03     114.8  T
  10    -84.3026035 -0.230786E-08  0.526E-05    0.03     293.4  T
     SCC iter.                  ...        0 min,  0.034 sec
     gradient                   ...        0 min,  0.078 sec
 * total energy  :   -83.5823345 Eh     change       -0.3629215E-03 Eh
   gradient norm :     0.0099941 Eh/α   predicted    -0.2764832E-03 ( -23.82%)
   displ. norm   :     0.2631295 α      lambda       -0.3209975E-03
   maximum displ.:     0.1357971 α      in ANC's #3, #5, #11, ...

........................................................................
.............................. CYCLE    8 ..............................
........................................................................
   1    -84.3021632 -0.843022E+02  0.717E-02    0.02       0.0  T
   2    -84.2406258  0.615374E-01  0.657E-01    0.22       1.0  T
   3    -84.3016291 -0.610033E-01  0.940E-02    0.04       1.0  T
   4    -84.3014569  0.172143E-03  0.992E-02    0.01       1.0  T
   5    -84.3029427 -0.148575E-02  0.593E-03    0.03       2.6  T
   6    -84.3029456 -0.296406E-05  0.333E-03    0.03       4.6  T
   7    -84.3029467 -0.110684E-05  0.153E-03    0.03      10.1  T
   8    -84.3029470 -0.281138E-06  0.665E-04    0.02      23.2  T
   9    -84.3029471 -0.654655E-07  0.823E-05    0.02     187.6  T
  10    -84.3029471  0.405819E-09  0.952E-05    0.02     162.0  T
     SCC iter.                  ...        0 min,  0.035 sec
     gradient                   ...        0 min,  0.078 sec
 * total energy  :   -83.5825620 Eh     change       -0.2275266E-03 Eh
   gradient norm :     0.0064342 Eh/α   predicted    -0.1716119E-03 ( -24.58%)
   displ. norm   :     0.2003537 α      lambda       -0.1831292E-03
   maximum displ.:     0.1139381 α      in ANC's #3, #18, #5, ...

........................................................................
.............................. CYCLE    9 ..............................
........................................................................
   1    -84.3019874 -0.843020E+02  0.921E-02    0.01       0.0  T
   2    -84.2359649  0.660225E-01  0.689E-01    0.27       1.0  T
   3    -84.2998844 -0.639195E-01  0.150E-01    0.04       1.0  T
   4    -84.3009624 -0.107799E-02  0.124E-01    0.01       1.0  T
   5    -84.3032247 -0.226224E-02  0.191E-02    0.02       1.0  T
   6    -84.3032795 -0.548256E-04  0.166E-03    0.02       9.3  T
   7    -84.3032798 -0.249901E-06  0.509E-04    0.02      30.3  T
   8    -84.3032796  0.120366E-06  0.102E-03    0.02      15.2  T
   9    -84.3032798 -0.154258E-06  0.112E-04    0.02     137.7  T
  10    -84.3032798  0.589978E-09  0.127E-04    0.02     121.9  T
     SCC iter.                  ...        0 min,  0.034 sec
     gradient                   ...        0 min,  0.078 sec
 * total energy  :   -83.5826922 Eh     change       -0.1302370E-03 Eh
   gradient norm :     0.0044145 Eh/α   predicted    -0.9524167E-04 ( -26.87%)
   displ. norm   :     0.1665009 α      lambda       -0.1201144E-03
   maximum displ.:     0.0988510 α      in ANC's #3, #18, #15, ...

........................................................................
.............................. CYCLE   10 ..............................
........................................................................
   1    -84.3027726 -0.843028E+02  0.806E-02    0.01       0.0  T
   2    -84.2382648  0.645078E-01  0.675E-01    0.24       1.0  T
   3    -84.3018563 -0.635916E-01  0.113E-01    0.04       1.0  T
   4    -84.3024324 -0.576086E-03  0.937E-02    0.01       1.0  T
   5    -84.3037581 -0.132565E-02  0.425E-03    0.02       3.6  T
   6    -84.3037602 -0.217485E-05  0.145E-03    0.02      10.7  T
   7    -84.3037605 -0.270936E-06  0.328E-04    0.02      47.0  T
   8    -84.3037605  0.488177E-08  0.353E-04    0.02      43.7  T
   9    -84.3037605 -0.131842E-07  0.194E-04    0.02      79.4  T
  10    -84.3037605 -0.543361E-08  0.372E-05    0.02     414.5  T
     SCC iter.                  ...        0 min,  0.034 sec
     gradient                   ...        0 min,  0.078 sec
 * total energy  :   -83.5827809 Eh     change       -0.8867014E-04 Eh
   gradient norm :     0.0045463 Eh/α   predicted    -0.6172933E-04 ( -30.38%)
   displ. norm   :     0.1736534 α      lambda       -0.1020880E-03
   maximum displ.:     0.1030985 α      in ANC's #3, #18, #14, ...

........................................................................
.............................. CYCLE   11 ..............................
........................................................................
   1    -84.3036723 -0.843037E+02  0.461E-02    0.02       0.0  T
   2    -84.2550228  0.486495E-01  0.576E-01    0.15       1.0  T
   3    -84.3038402 -0.488174E-01  0.319E-02    0.03       1.0  T
   4    -84.3039770 -0.136808E-03  0.974E-03    0.02       1.6  T
   5    -84.3039851 -0.807822E-05  0.656E-03    0.03       2.4  T
   6    -84.3039896 -0.449123E-05  0.347E-03    0.02       4.4  T
   7    -84.3039914 -0.181981E-05  0.239E-04    0.02      64.5  T
   8    -84.3039914 -0.785462E-08  0.339E-05    0.02     455.7  T
   9    -84.3039914  0.476064E-10  0.334E-05    0.02     461.4  T
     SCC iter.                  ...        0 min,  0.030 sec
     gradient                   ...        0 min,  0.082 sec
 * total energy  :   -83.5828549 Eh     change       -0.7395947E-04 Eh
   gradient norm :     0.0048577 Eh/α   predicted    -0.5258768E-04 ( -28.90%)
   displ. norm   :     0.1512748 α      lambda       -0.7738523E-04
   maximum displ.:     0.0890726 α      in ANC's #3, #18, #8, ...

........................................................................
.............................. CYCLE   12 ..............................
........................................................................
   1    -84.3045399 -0.843045E+02  0.266E-02    0.03       0.0  T
   2    -84.2613260  0.432139E-01  0.536E-01    0.04       1.0  T
   3    -84.3046411 -0.433151E-01  0.452E-03    0.02       3.4  T
   4    -84.3046394  0.172211E-05  0.428E-03    0.02       3.6  T
   5    -84.3046418 -0.240277E-05  0.907E-04    0.02      17.0  T
   6    -84.3046418 -0.147794E-07  0.303E-04    0.02      50.9  T
   7    -84.3046418 -0.124056E-07  0.407E-05    0.02     379.1  T
   8    -84.3046418 -0.795808E-12  0.175E-05    0.02     884.1  T
     SCC iter.                  ...        0 min,  0.035 sec
     gradient                   ...        0 min,  0.080 sec
 * total energy  :   -83.5829103 Eh     change       -0.5541801E-04 Eh
   gradient norm :     0.0040677 Eh/α   predicted    -0.3958088E-04 ( -28.58%)
   displ. norm   :     0.1365443 α      lambda       -0.5767988E-04
   maximum displ.:     0.0828239 α      in ANC's #3, #18, #5, ...

........................................................................
.............................. CYCLE   13 ..............................
........................................................................
   1    -84.3035368 -0.843035E+02  0.773E-02    0.03       0.0  T
   2    -84.1495102  0.154027E+00  0.102E+00    0.18       1.0  T
   3    -84.3041385 -0.154628E+00  0.451E-02    0.02       1.0  T
   4    -84.3044049 -0.266374E-03  0.153E-02    0.03       1.0  T
   5    -84.3044373 -0.323934E-04  0.467E-03    0.02       3.3  T
   6    -84.3044403 -0.303255E-05  0.645E-04    0.02      23.9  T
   7    -84.3044404 -0.343822E-07  0.408E-04    0.02      37.8  T
   8    -84.3044404 -0.223844E-07  0.126E-04    0.02     122.5  T
   9    -84.3044404 -0.149882E-09  0.122E-04    0.02     126.6  T
     SCC iter.                  ...        0 min,  0.030 sec
     gradient                   ...        0 min,  0.078 sec
 * total energy  :   -83.5829509 Eh     change       -0.4064690E-04 Eh
   gradient norm :     0.0029393 Eh/α   predicted    -0.2937839E-04 ( -27.72%)
   displ. norm   :     0.1155465 α      lambda       -0.4890867E-04
   maximum displ.:     0.0618261 α      in ANC's #3, #5, #22, ...

........................................................................
.............................. CYCLE   14 ..............................
........................................................................
   1    -84.3035962 -0.843036E+02  0.113E-01    0.04       0.0  T
   2    -84.1330620  0.170534E+00  0.109E+00    0.28       1.0  T
   3    -84.3027448 -0.169683E+00  0.137E-01    0.01       1.0  T
   4    -84.3035082 -0.763387E-03  0.116E-01    0.04       1.0  T
   5    -84.3055321 -0.202395E-02  0.107E-02    0.02       1.4  T
   6    -84.3055486 -0.164905E-04  0.108E-03    0.03      14.2  T
   7    -84.3055482  0.350997E-06  0.176E-03    0.02       8.8  T
   8    -84.3055487 -0.409838E-06  0.584E-04    0.03      26.4  T
   9    -84.3055487 -0.446894E-07  0.213E-04    0.03      72.5  T
  10    -84.3055487 -0.630951E-08  0.591E-05    0.03     261.0  T
  11    -84.3055487 -0.475538E-09  0.179E-05    0.03     863.7  T
     SCC iter.                  ...        0 min,  0.038 sec
     gradient                   ...        0 min,  0.078 sec
 * total energy  :   -83.5829825 Eh     change       -0.3155389E-04 Eh
   gradient norm :     0.0028829 Eh/α   predicted    -0.2480053E-04 ( -21.40%)
   displ. norm   :     0.1144777 α      lambda        0.7391890E-05
   maximum displ.:     0.0612601 α      in ANC's #3, #5, #22, ...

........................................................................
.............................. CYCLE   15 ..............................
........................................................................
   1    -84.3043760 -0.843044E+02  0.115E-01    0.04       0.0  T
   2    -84.1322772  0.172099E+00  0.110E+00    0.28       1.0  T
   3    -84.3033942 -0.171117E+00  0.141E-01    0.01       1.0  T
   4    -84.3042199 -0.825738E-03  0.120E-01    0.04       1.0  T
   5    -84.3063743 -0.215437E-02  0.104E-02    0.02       1.5  T
   6    -84.3063896 -0.153158E-04  0.142E-03    0.03      10.8  T
   7    -84.3063895  0.135848E-06  0.156E-03    0.03       9.9  T
   8    -84.3063898 -0.305665E-06  0.610E-04    0.03      25.3  T
   9    -84.3063898 -0.499457E-07  0.205E-04    0.03      75.3  T
  10    -84.3063898 -0.568291E-08  0.653E-05    0.03     236.4  T
  11    -84.3063898 -0.590063E-09  0.180E-05    0.03     859.5  T
     SCC iter.                  ...        0 min,  0.038 sec
     gradient                   ...        0 min,  0.078 sec
 * total energy  :   -83.5829807 Eh     change        0.1792654E-05 Eh
   gradient norm :     0.0053614 Eh/α   predicted     0.3743342E-05 ( 108.82%)
   displ. norm   :     0.0682441 α      lambda       -0.4951821E-04
   maximum displ.:     0.0305807 α      in ANC's #3, #7, #13, ...

........................................................................
.............................. CYCLE   16 ..............................
........................................................................
   1    -84.3046662 -0.843047E+02  0.897E-03    0.02       0.0  T
   2    -84.3012976  0.336859E-02  0.150E-01    0.05       1.0  T
   3    -84.3046719 -0.337428E-02  0.563E-03    0.03       2.7  T
   4    -84.3046735 -0.159032E-05  0.385E-03    0.03       4.0  T
   5    -84.3046754 -0.190988E-05  0.367E-04    0.03      42.0  T
   6    -84.3046754  0.868116E-08  0.281E-04    0.03      55.0  T
   7    -84.3046754 -0.107933E-07  0.216E-05    0.03     713.0  T
   8    -84.3046754  0.228795E-11  0.109E-05    0.03    1415.9  T
     SCC iter.                  ...        0 min,  0.028 sec
     gradient                   ...        0 min,  0.078 sec
 * total energy  :   -83.5830101 Eh     change       -0.2943862E-04 Eh
   gradient norm :     0.0040868 Eh/α   predicted    -0.2487536E-04 ( -15.50%)
   displ. norm   :     0.0483765 α      lambda       -0.3718342E-04
   maximum displ.:     0.0200572 α      in ANC's #11, #4, #13, ...

........................................................................
.............................. CYCLE   17 ..............................
........................................................................
   1    -84.3044631 -0.843045E+02  0.407E-02    0.02       0.0  T
   2    -84.2615685  0.428946E-01  0.540E-01    0.13       1.0  T
   3    -84.3046265 -0.430580E-01  0.243E-02    0.03       1.0  T
   4    -84.3047085 -0.820787E-04  0.537E-03    0.02       2.9  T
   5    -84.3047104 -0.185483E-05  0.413E-03    0.03       3.7  T
   6    -84.3047128 -0.237210E-05  0.734E-04    0.03      21.0  T
   7    -84.3047128 -0.458107E-07  0.476E-04    0.03      32.4  T
   8    -84.3047128 -0.270764E-07  0.217E-04    0.03      71.2  T
   9    -84.3047128 -0.589264E-08  0.893E-05    0.03     172.7  T
  10    -84.3047128 -0.119266E-08  0.511E-06    0.03    3021.0  T
     SCC iter.                  ...        0 min,  0.034 sec
     gradient                   ...        0 min,  0.078 sec
 * total energy  :   -83.5830359 Eh     change       -0.2572765E-04 Eh
   gradient norm :     0.0020227 Eh/α   predicted    -0.1863989E-04 ( -27.55%)
   displ. norm   :     0.1360715 α      lambda       -0.4086457E-04
   maximum displ.:     0.0633637 α      in ANC's #5, #3, #7, ...

........................................................................
.............................. CYCLE   18 ..............................
........................................................................
   1    -84.3045644 -0.843046E+02  0.145E-02    0.03       0.0  T
   2    -84.2908735  0.136910E-01  0.302E-01    0.01       1.0  T
   3    -84.3045931 -0.137196E-01  0.419E-03    0.03       3.7  T
   4    -84.3045945 -0.136307E-05  0.215E-03    0.03       7.2  T
   5    -84.3045945 -0.471801E-07  0.189E-03    0.03       8.2  T
   6    -84.3045950 -0.480644E-06  0.225E-04    0.03      68.6  T
   7    -84.3045950 -0.642422E-08  0.561E-05    0.03     275.2  T
   8    -84.3045950 -0.273687E-09  0.245E-05    0.03     629.7  T
     SCC iter.                  ...        0 min,  0.028 sec
     gradient                   ...        0 min,  0.078 sec
 * total energy  :   -83.5830632 Eh     change       -0.2732311E-04 Eh
   gradient norm :     0.0023801 Eh/α   predicted    -0.2081129E-04 ( -23.83%)
   displ. norm   :     0.1327602 α      lambda       -0.2638966E-04
   maximum displ.:     0.0717429 α      in ANC's #5, #3, #2, ...

........................................................................
.............................. CYCLE   19 ..............................
........................................................................
   1    -84.3046298 -0.843046E+02  0.215E-02    0.03       0.0  T
   2    -84.2725792  0.320506E-01  0.462E-01    0.03       1.0  T
   3    -84.3046987 -0.321195E-01  0.343E-03    0.03       4.5  T
   4    -84.3046993 -0.636129E-06  0.256E-03    0.03       6.0  T
   5    -84.3046999 -0.539304E-06  0.157E-03    0.03       9.8  T
   6    -84.3047002 -0.334935E-06  0.261E-04    0.03      59.0  T
   7    -84.3047002 -0.913613E-08  0.635E-05    0.03     243.2  T
   8    -84.3047002 -0.519407E-09  0.947E-06    0.03    1629.5  T
     SCC iter.                  ...        0 min,  0.028 sec
     gradient                   ...        0 min,  0.078 sec
 * total energy  :   -83.5830830 Eh     change       -0.1985074E-04 Eh
   gradient norm :     0.0023234 Eh/α   predicted    -0.1343254E-04 ( -32.33%)
   displ. norm   :     0.1828834 α      lambda       -0.2907059E-04
   maximum displ.:     0.0957585 α      in ANC's #5, #3, #2, ...

........................................................................
.............................. CYCLE   20 ..............................
........................................................................
   1    -84.3048570 -0.843049E+02  0.138E-02    0.03       0.0  T
   2    -84.2914010  0.134560E-01  0.299E-01    0.01       1.0  T
   3    -84.3048834 -0.134824E-01  0.455E-03    0.03       3.4  T
   4    -84.3048843 -0.873816E-06  0.362E-03    0.03       4.3  T
   5    -84.3048859 -0.156009E-05  0.143E-03    0.03      10.8  T
   6    -84.3048861 -0.261948E-06  0.317E-04    0.03      48.7  T
   7    -84.3048861 -0.136646E-07  0.692E-05    0.03     223.1  T
   8    -84.3048861 -0.575668E-09  0.165E-05    0.03     933.2  T
     SCC iter.                  ...        0 min,  0.028 sec
     gradient                   ...        0 min,  0.078 sec
 * total energy  :   -83.5831038 Eh     change       -0.2075961E-04 Eh
   gradient norm :     0.0021019 Eh/α   predicted    -0.1502211E-04 ( -27.64%)
   displ. norm   :     0.1449808 α      lambda       -0.2153579E-04
   maximum displ.:     0.0733839 α      in ANC's #5, #3, #2, ...
 * RMSD in coord.:     0.4199115 α      energy gain  -0.2377392E-01 Eh

generating ANC from model Hessian ...
Using Lindh-Hessian (1995)
 Shifting diagonal of input Hessian by   9.816196149676677E-003
 Lowest  eigenvalues of input Hessian
    0.000000    0.000000    0.000000    0.000000    0.000000    0.000000
    0.010000    0.010172    0.010637    0.010812    0.011905    0.012560
    0.013453    0.013791    0.015287    0.015614    0.016017    0.016554
 Highest eigenvalues
    1.988509    2.039594    2.102794    2.166642    2.229226    2.279359
 

........................................................................
.............................. CYCLE   21 ..............................
........................................................................
   1    -84.3051535 -0.843052E+02  0.159E-02    0.02       0.0  T
   2    -84.2930935  0.120599E-01  0.284E-01    0.07       1.0  T
   3    -84.3051901 -0.120966E-01  0.270E-03    0.03       5.7  T
   4    -84.3051910 -0.866056E-06  0.634E-04    0.03      24.3  T
   5    -84.3051910  0.181109E-07  0.584E-04    0.03      26.4  T
   6    -84.3051910 -0.391914E-07  0.606E-05    0.03     254.5  T
   7    -84.3051910  0.265516E-09  0.674E-05    0.03     229.0  T
     SCC iter.                  ...        0 min,  0.024 sec
     gradient                   ...        0 min,  0.078 sec
 * total energy  :   -83.5831186 Eh     change       -0.1480934E-04 Eh
   gradient norm :     0.0016958 Eh/α   predicted     0.0000000E+00 (-100.00%)
   displ. norm   :     0.0261459 α      lambda       -0.9003689E-05
   maximum displ.:     0.0103497 α      in ANC's #11, #10, #12, ...

........................................................................
.............................. CYCLE   22 ..............................
........................................................................
   1    -84.3054422 -0.843054E+02  0.126E-02    0.02       0.0  T
   2    -84.2970713  0.837093E-02  0.237E-01    0.06       1.0  T
   3    -84.3054611 -0.838980E-02  0.624E-03    0.03       2.5  T
   4    -84.3054655 -0.437894E-05  0.277E-03    0.03       5.6  T
   5    -84.3054665 -0.100879E-05  0.673E-04    0.03      22.9  T
   6    -84.3054666 -0.489374E-07  0.168E-04    0.03      92.0  T
   7    -84.3054666 -0.391279E-08  0.200E-05    0.03     770.2  T
     SCC iter.                  ...        0 min,  0.024 sec
     gradient                   ...        0 min,  0.078 sec
 * total energy  :   -83.5831285 Eh     change       -0.9920715E-05 Eh
   gradient norm :     0.0005993 Eh/α   predicted    -0.4571190E-05 ( -53.92%)
   displ. norm   :     0.0566197 α      lambda       -0.1024105E-04
   maximum displ.:     0.0242261 α      in ANC's #11, #3, #21, ...

........................................................................
.............................. CYCLE   23 ..............................
........................................................................
   1    -84.3054386 -0.843054E+02  0.116E-02    0.02       0.0  T
   2    -84.2981579  0.728072E-02  0.221E-01    0.06       1.0  T
   3    -84.3054524 -0.729451E-02  0.706E-03    0.03       2.2  T
   4    -84.3054574 -0.500112E-05  0.377E-03    0.03       4.1  T
   5    -84.3054591 -0.167614E-05  0.155E-03    0.03      10.0  T
   6    -84.3054594 -0.317985E-06  0.226E-04    0.03      68.4  T
   7    -84.3054594 -0.661069E-08  0.598E-05    0.03     257.9  T
   8    -84.3054594 -0.487503E-09  0.319E-06    0.03    4831.3  T
     SCC iter.                  ...        0 min,  0.027 sec
     gradient                   ...        0 min,  0.083 sec
 * total energy  :   -83.5831396 Eh     change       -0.1107720E-04 Eh
   gradient norm :     0.0009796 Eh/α   predicted    -0.5128717E-05 ( -53.70%)
   displ. norm   :     0.0782263 α      lambda       -0.9149202E-05
   maximum displ.:     0.0345176 α      in ANC's #11, #3, #21, ...

........................................................................
.............................. CYCLE   24 ..............................
........................................................................
   1    -84.3052963 -0.843053E+02  0.527E-03    0.02       0.0  T
   2    -84.3037178  0.157857E-02  0.103E-01    0.04       1.0  T
   3    -84.3052989 -0.158115E-02  0.335E-03    0.03       4.6  T
   4    -84.3052997 -0.788078E-06  0.226E-03    0.03       6.8  T
   5    -84.3053003 -0.569520E-06  0.949E-04    0.03      16.3  T
   6    -84.3053004 -0.118628E-06  0.197E-04    0.03      78.5  T
   7    -84.3053004 -0.519385E-08  0.398E-05    0.03     387.7  T
     SCC iter.                  ...        0 min,  0.024 sec
     gradient                   ...        0 min,  0.081 sec
 * total energy  :   -83.5831492 Eh     change       -0.9642189E-05 Eh
   gradient norm :     0.0011483 Eh/α   predicted    -0.4590871E-05 ( -52.39%)
   displ. norm   :     0.0905709 α      lambda       -0.8276495E-05
   maximum displ.:     0.0405476 α      in ANC's #3, #11, #12, ...

........................................................................
.............................. CYCLE   25 ..............................
........................................................................
   1    -84.3051497 -0.843051E+02  0.438E-03    0.02       0.0  T
   2    -84.3041179  0.103181E-02  0.829E-02    0.04       1.0  T
   3    -84.3051523 -0.103438E-02  0.954E-04    0.03      16.2  T
   4    -84.3051523 -0.261298E-07  0.482E-04    0.03      32.0  T
   5    -84.3051523  0.418933E-07  0.580E-04    0.03      26.6  T
   6    -84.3051523 -0.462059E-07  0.992E-05    0.03     155.6  T
   7    -84.3051523 -0.124399E-08  0.201E-05    0.03     769.3  T
     SCC iter.                  ...        0 min,  0.022 sec
     gradient                   ...        0 min,  0.075 sec
 * total energy  :   -83.5831577 Eh     change       -0.8445054E-05 Eh
   gradient norm :     0.0011183 Eh/α   predicted    -0.4155064E-05 ( -50.80%)
   displ. norm   :     0.0950918 α      lambda       -0.8707119E-05
   maximum displ.:     0.0453163 α      in ANC's #3, #11, #12, ...

........................................................................
.............................. CYCLE   26 ..............................
........................................................................
   1    -84.3050449 -0.843050E+02  0.316E-03    0.03       0.0  T
   2    -84.3045886  0.456294E-03  0.551E-02    0.03       1.0  T
   3    -84.3050458 -0.457158E-03  0.164E-03    0.03       9.4  T
   4    -84.3050459 -0.166282E-06  0.100E-03    0.03      15.4  T
   5    -84.3050460 -0.100999E-06  0.414E-04    0.03      37.3  T
   6    -84.3050461 -0.232109E-07  0.803E-05    0.03     192.2  T
   7    -84.3050461 -0.698606E-09  0.349E-05    0.03     442.7  T
     SCC iter.                  ...        0 min,  0.024 sec
     gradient                   ...        0 min,  0.078 sec
 * total energy  :   -83.5831668 Eh     change       -0.9166259E-05 Eh
   gradient norm :     0.0014410 Eh/α   predicted    -0.4375261E-05 ( -52.27%)
   displ. norm   :     0.0943324 α      lambda       -0.1168812E-04
   maximum displ.:     0.0468952 α      in ANC's #3, #12, #25, ...

........................................................................
.............................. CYCLE   27 ..............................
........................................................................
   1    -84.3051928 -0.843052E+02  0.811E-03    0.02       0.0  T
   2    -84.3017390  0.345380E-02  0.152E-01    0.05       1.0  T
   3    -84.3052005 -0.346149E-02  0.338E-03    0.03       4.6  T
   4    -84.3052014 -0.849424E-06  0.218E-03    0.03       7.1  T
   5    -84.3052020 -0.587513E-06  0.758E-04    0.03      20.4  T
   6    -84.3052020 -0.735342E-07  0.267E-05    0.03     577.8  T
   7    -84.3052020 -0.399325E-11  0.208E-05    0.03     741.2  T
     SCC iter.                  ...        0 min,  0.025 sec
     gradient                   ...        0 min,  0.078 sec
 * total energy  :   -83.5831793 Eh     change       -0.1240981E-04 Eh
   gradient norm :     0.0017343 Eh/α   predicted    -0.5868162E-05 ( -52.71%)
   displ. norm   :     0.0945261 α      lambda       -0.1130163E-04
   maximum displ.:     0.0480272 α      in ANC's #3, #12, #5, ...

........................................................................
.............................. CYCLE   28 ..............................
........................................................................
   1    -84.3051932 -0.843052E+02  0.133E-02    0.02       0.0  T
   2    -84.2961581  0.903509E-02  0.246E-01    0.06       1.0  T
   3    -84.3052194 -0.906130E-02  0.141E-03    0.03      10.9  T
   4    -84.3052196 -0.228214E-06  0.383E-04    0.03      40.3  T
   5    -84.3052196  0.183405E-08  0.310E-04    0.03      49.8  T
   6    -84.3052196 -0.813165E-08  0.685E-05    0.03     225.4  T
   7    -84.3052196 -0.649663E-09  0.111E-05    0.03    1392.2  T
     SCC iter.                  ...        0 min,  0.025 sec
     gradient                   ...        0 min,  0.079 sec
 * total energy  :   -83.5831913 Eh     change       -0.1201206E-04 Eh
   gradient norm :     0.0016036 Eh/α   predicted    -0.5675693E-05 ( -52.75%)
   displ. norm   :     0.1328557 α      lambda       -0.9900227E-05
   maximum displ.:     0.0699072 α      in ANC's #3, #12, #5, ...

........................................................................
.............................. CYCLE   29 ..............................
........................................................................
   1    -84.3047128 -0.843047E+02  0.201E-02    0.02       0.0  T
   2    -84.2866749  0.180380E-01  0.348E-01    0.08       1.0  T
   3    -84.3047700 -0.180951E-01  0.546E-03    0.03       2.8  T
   4    -84.3047743 -0.432558E-05  0.453E-04    0.03      34.1  T
   5    -84.3047743  0.166168E-07  0.455E-04    0.03      33.9  T
   6    -84.3047743 -0.902399E-08  0.320E-04    0.03      48.2  T
   7    -84.3047743 -0.147239E-07  0.563E-05    0.03     274.2  T
   8    -84.3047743 -0.413863E-09  0.191E-05    0.03     808.6  T
     SCC iter.                  ...        0 min,  0.028 sec
     gradient                   ...        0 min,  0.079 sec
 * total energy  :   -83.5832007 Eh     change       -0.9420354E-05 Eh
   gradient norm :     0.0020080 Eh/α   predicted    -0.5006091E-05 ( -46.86%)
   displ. norm   :     0.0585713 α      lambda       -0.1428786E-04
   maximum displ.:     0.0318964 α      in ANC's #3, #5, #22, ...

........................................................................
.............................. CYCLE   30 ..............................
........................................................................
   1    -84.3053178 -0.843053E+02  0.697E-03    0.02       0.0  T
   2    -84.3027928  0.252499E-02  0.130E-01    0.04       1.0  T
   3    -84.3053243 -0.253152E-02  0.130E-03    0.03      11.9  T
   4    -84.3053243  0.397262E-07  0.874E-04    0.03      17.7  T
   5    -84.3053243  0.305667E-08  0.675E-04    0.03      22.9  T
   6    -84.3053243 -0.629451E-07  0.955E-05    0.03     161.6  T
   7    -84.3053243 -0.111579E-08  0.190E-05    0.03     812.3  T
     SCC iter.                  ...        0 min,  0.024 sec
     gradient                   ...        0 min,  0.080 sec
 * total energy  :   -83.5832079 Eh     change       -0.7205921E-05 Eh
   gradient norm :     0.0006506 Eh/α   predicted    -0.7169039E-05 (  -0.51%)
   displ. norm   :     0.1107679 α      lambda       -0.7186346E-05
   maximum displ.:     0.0600123 α      in ANC's #3, #12, #11, ...

........................................................................
.............................. CYCLE   31 ..............................
........................................................................
   1    -84.3048822 -0.843049E+02  0.112E-02    0.02       0.0  T
   2    -84.2980703  0.681185E-02  0.213E-01    0.06       1.0  T
   3    -84.3048993 -0.682899E-02  0.384E-03    0.03       4.0  T
   4    -84.3049009 -0.156145E-05  0.176E-03    0.03       8.8  T
   5    -84.3049013 -0.367583E-06  0.579E-04    0.03      26.7  T
   6    -84.3049013 -0.354733E-07  0.122E-04    0.03     126.0  T
   7    -84.3049013 -0.196852E-08  0.235E-05    0.03     656.9  T
     SCC iter.                  ...        0 min,  0.024 sec
     gradient                   ...        0 min,  0.083 sec
 * total energy  :   -83.5832141 Eh     change       -0.6247410E-05 Eh
   gradient norm :     0.0013505 Eh/α   predicted    -0.3621413E-05 ( -42.03%)
   displ. norm   :     0.0481159 α      lambda       -0.5897637E-05
   maximum displ.:     0.0218639 α      in ANC's #3, #11, #12, ...

........................................................................
.............................. CYCLE   32 ..............................
........................................................................
   1    -84.3051620 -0.843052E+02  0.293E-03    0.02       0.0  T
   2    -84.3047513  0.410693E-03  0.523E-02    0.03       1.0  T
   3    -84.3051630 -0.411756E-03  0.776E-04    0.03      19.9  T
   4    -84.3051630  0.434699E-07  0.728E-04    0.03      21.2  T
   5    -84.3051630 -0.482119E-07  0.268E-04    0.03      57.6  T
   6    -84.3051630 -0.823569E-08  0.346E-05    0.03     445.4  T
   7    -84.3051630 -0.696190E-10  0.148E-05    0.03    1041.0  T
     SCC iter.                  ...        0 min,  0.024 sec
     gradient                   ...        0 min,  0.080 sec
 * total energy  :   -83.5832198 Eh     change       -0.5658250E-05 Eh
   gradient norm :     0.0009416 Eh/α   predicted    -0.2952220E-05 ( -47.82%)
   displ. norm   :     0.0585147 α      lambda       -0.2625849E-05
   maximum displ.:     0.0310634 α      in ANC's #3, #11, #12, ...

........................................................................
.............................. CYCLE   33 ..............................
........................................................................
   1    -84.3051438 -0.843051E+02  0.556E-03    0.03       0.0  T
   2    -84.3030075  0.213632E-02  0.119E-01    0.01       1.0  T
   3    -84.3051481 -0.214061E-02  0.188E-03    0.03       8.2  T
   4    -84.3051480  0.688708E-07  0.193E-03    0.03       8.0  T
   5    -84.3051485 -0.422964E-06  0.876E-04    0.03      17.6  T
   6    -84.3051486 -0.107115E-06  0.278E-05    0.03     555.0  T
   7    -84.3051486  0.326565E-10  0.292E-05    0.03     527.6  T
     SCC iter.                  ...        0 min,  0.025 sec
     gradient                   ...        0 min,  0.077 sec
 * total energy  :   -83.5832225 Eh     change       -0.2734885E-05 Eh
   gradient norm :     0.0008360 Eh/α   predicted    -0.1317644E-05 ( -51.82%)
   displ. norm   :     0.0594987 α      lambda       -0.2862936E-05
   maximum displ.:     0.0294475 α      in ANC's #3, #5, #11, ...

   *** GEOMETRY OPTIMIZATION CONVERGED AFTER 33 ITERATIONS ***

------------------------------------------------------------------------
 total energy gain   :        -0.0238927 Eh      -14.9929 kcal/mol
 total RMSD          :         0.4424487 a0        0.2341 Å
 total power (kW/mol):        -1.9009149 (step)  -12.9121 (real)
------------------------------------------------------------------------

 ANCopt (total)                0 d,  0 h,  0 min,  4.858 sec
 optimizer setup                ...        0 min,  0.001 sec (  0.016%)
 model hessian                  ...        0 min,  0.059 sec (  1.217%)
 ANC generation                 ...        0 min,  0.005 sec (  0.094%)
 coordinate transformation      ...        0 min,  0.001 sec (  0.016%)
 single point calculation       ...        0 min,  4.778 sec ( 98.348%)
 optimization log               ...        0 min,  0.008 sec (  0.163%)
 hessian update                 ...        0 min,  0.001 sec (  0.014%)
 rational function              ...        0 min,  0.004 sec (  0.074%)

================
 final structure:
================
42
 xtb: 6.5.1 (579679a)
C            5.73468926823592       -1.19549990576512       -1.70843627067157
O            4.76633931154555       -1.27765978077965       -0.67928957782267
C            3.59293620515956       -0.52592030334359       -0.92510237342775
O            3.54201601666139        0.13598262451887       -1.99141597973554
C            2.61606616904159       -0.63801927763992        0.07646208369041
C            2.73530032823272       -1.28155972713113        1.34770356766180
O            3.76643886573366       -2.16952646990471        1.62341028194210
C            1.82841829814174       -1.04367447350750        2.39831648554271
O            1.86166644630370       -1.59322051794338        3.53462343831095
N            0.82586649241221       -0.07368166800148        2.14680462368942
C            0.60807302601799        0.38785343346714        0.96328904603711
C           -0.53688363951837        1.41132229050365        0.84888692425821
C           -0.01468577928272        2.70098428293617        0.19530989134190
C           -1.04572910188165        1.73882258824147        2.26532219689706
N           -1.62217048850925        0.81382591856740        0.06176044594986
C           -2.82300902138763        1.52055022494904       -0.15121253244217
O           -2.90797035425598        2.76673895952158       -0.03436072424432
C           -3.89901495649448        0.69447486293275       -0.57963390970659
N           -5.15370188281826        1.06425396143220       -0.87900481351767
N           -5.82566639421094       -0.08060175961414       -1.20913443045215
C           -4.99692100947095       -1.06661147326382       -1.10515973107294
C           -5.27472040802390       -2.50178235329831       -1.36546801268404
O           -3.75484639143186       -0.68088095572143       -0.71275049011673
N            1.37693721992860        0.07317939231594       -0.12034162589919
C            0.88747902038807        0.18544457626824       -1.49295492775144
H            6.08895079414049       -0.16561761350414       -1.83940508073767
H            5.32826646498357       -1.54774160950789       -2.66415144885665
H            6.57298590003497       -1.82975495315302       -1.41924605585487
H            4.39367912457219       -2.19785360142468        0.88464310211152
H           -0.68776131919193        3.53243294747116        0.39875355937474
H            0.96675937525202        2.94315909904415        0.60364111330552
H            0.07007002827706        2.59186617101112       -0.88353827920253
H           -1.84713131943292        2.47452405858572        2.21265062455657
H           -1.41979623170511        0.83755026624150        2.75032366290917
H           -0.23197225715235        2.14371679324641        2.86627256140759
H           -1.77815184242394       -0.16232545440396        0.28257515504209
H           -4.62744993142459       -2.87809699790229       -2.15915375328238
H           -6.31389154052416       -2.61997789185901       -1.66446912533487
H           -5.08905752270755       -3.09609065137395       -0.46933514622341
H            1.16201598453199       -0.71595269641463       -2.04370075587438
H           -0.19794656066648        0.27663023425780       -1.49974456200312
H            1.32352361292793        1.04873944992282       -2.00065715710736
 
 Bond Distances (Angstroems)
 ---------------------------
C1-O2=1.4155         C1-H26=1.0970        C1-H27=1.0967        C1-H28=1.0903        O2-C1=1.4155         O2-C3=1.4151         
C3-O2=1.4151         C3-O4=1.2561         C3-C5=1.4036         O4-C3=1.2561         C5-C3=1.4036         C5-C6=1.4298         
C5-N24=1.4422        C6-C5=1.4298         C6-O7=1.3884         C6-C8=1.4081         O7-C6=1.3884         O7-H29=0.9695        
C8-C6=1.4081         C8-O9=1.2627         C8-N10=1.4175        O9-C8=1.2627         N10-C8=1.4175        N10-C11=1.2889       
C11-N10=1.2889       C11-C12=1.5400       C11-N24=1.3654       C12-C11=1.5400       C12-C13=1.5372       C12-C14=1.5403       
C12-N15=1.4678       C13-C12=1.5372       C13-H30=1.0889       C13-H31=1.0902       C13-H32=1.0877       C14-C12=1.5403       
C14-H33=1.0892       C14-H34=1.0897       C14-H35=1.0896       N15-C12=1.4678       N15-C16=1.4095       N15-H36=1.0129       
C16-N15=1.4095       C16-O17=1.2545       C16-C18=1.4226       O17-C16=1.2545       C18-C16=1.4226       C18-N19=1.3419       
C18-O23=1.3893       N19-C18=1.3419       N19-N20=1.3679       N20-N19=1.3679       N20-C21=1.2922       C21-N20=1.2922       
C21-C22=1.4848       C21-O23=1.3585       C22-C21=1.4848       C22-H37=1.0911       C22-H38=1.0878       C22-H39=1.0912       
O23-C18=1.3893       O23-C21=1.3585       N24-C5=1.4422        N24-C11=1.3654       N24-C25=1.4616       C25-N24=1.4616       
C25-H40=1.0914       C25-H41=1.0893       C25-H42=1.0923       H26-C1=1.0970        H27-C1=1.0967        H28-C1=1.0903        
H29-O7=0.9695        H30-C13=1.0889       H31-C13=1.0902       H32-C13=1.0877       H33-C14=1.0892       H34-C14=1.0897       
H35-C14=1.0896       H36-N15=1.0129       H37-C22=1.0911       H38-C22=1.0878       H39-C22=1.0912       H40-C25=1.0914       
H41-C25=1.0893       H42-C25=1.0923       
 C  H  Rav=1.0908 sigma=0.0027  Rmin=1.0877  Rmax=1.0970    15
 C  C  Rav=1.4708 sigma=0.0577  Rmin=1.4036  Rmax=1.5403     8
 N  H  Rav=1.0129 sigma=0.0000  Rmin=1.0129  Rmax=1.0129     1
 N  C  Rav=1.3874 sigma=0.0647  Rmin=1.2889  Rmax=1.4678     9
 N  N  Rav=1.3679 sigma=0.0000  Rmin=1.3679  Rmax=1.3679     1
 O  H  Rav=0.9695 sigma=0.0000  Rmin=0.9695  Rmax=0.9695     1
 O  C  Rav=1.3425 sigma=0.0678  Rmin=1.2545  Rmax=1.4155     8
 
 selected bond angles (degree)
 --------------------
H26-C1-O2=111.24               H27-C1-O2=111.19               H27-C1-H26=108.49              H28-C1-O2=107.42               
H28-C1-H26=109.24              H28-C1-H27=109.22              C3-O2-C1=114.21                O4-C3-O2=117.45                
C5-C3-O2=114.25                C5-C3-O4=128.29                C6-C5-C3=127.76                N24-C5-C3=117.47               
N24-C5-C6=114.51               O7-C6-C5=121.76                C8-C6-C5=122.25                C8-C6-O7=115.99                
H29-O7-C6=110.36               O9-C8-C6=125.52                N10-C8-C6=116.02               N10-C8-O9=118.43               
C11-N10-C8=121.84              
 
 selected dihedral angles (degree)
 ---------------------------------
C3-O2-C1-H26= 61.91           C3-O2-C1-H27=300.87           C3-O2-C1-H28=181.41           O4-C3-O2-C1=358.89            
C5-C3-O2-C1=178.22            C6-C5-C3-O2=  7.76            C6-C5-C3-O4=187.01            N24-C5-C3-O2=181.55           
N24-C5-C3-O4=  0.80           O7-C6-C5-C3=344.07            O7-C6-C5-N24=170.13           C8-C6-C5-C3=163.30            
C8-C6-C5-N24=349.35           H29-O7-C6-C5=  5.56           H29-O7-C6-C8=186.28           O9-C8-C6-C5=178.73            
O9-C8-C6-O7=357.99            N10-C8-C6-C5=356.85           N10-C8-C6-O7=176.12           C11-N10-C8-C6= 11.82          
C11-N10-C8-O9=190.09          
           -------------------------------------------------
          |                Final Singlepoint                |
           -------------------------------------------------

          ...................................................
          :                      SETUP                      :
          :.................................................:
          :  # basis functions                 134          :
          :  # atomic orbitals                 134          :
          :  # shells                           84          :
          :  # electrons                       136          :
          :  # halogen bonds                     0          :
          :  max. iterations                   250          :
          :  Hamiltonian                  GFN1-xTB          :
          :  restarted?                      false          :
          :  GBSA solvation                   true          :
          :  PC potential                    false          :
          :  electronic temp.          300.0000000     K    :
          :  accuracy                    1.0000000          :
          :  -> integral cutoff          0.2500000E+02      :
          :  -> integral neglect         0.1000000E-07      :
          :  -> SCF convergence          0.1000000E-05 Eh   :
          :  -> wf. convergence          0.2000000E-04 e    :
          :  Broyden damping             0.4000000          :
          ...................................................

 iter      E             dE          RMSdq      gap      omega  full diag
   1    -84.3051486 -0.843051E+02  0.133E-05    0.03       0.0  T
   2    -84.3051486  0.108394E-07  0.269E-04    0.03      57.5  T
   3    -84.3051486 -0.108609E-07  0.516E-06    0.03    2990.6  T
   4    -84.3051486 -0.339639E-11  0.169E-06    0.03    9140.4  T

   *** convergence criteria satisfied after 4 iterations ***

         #    Occupation            Energy/Eh            Energy/eV
      -------------------------------------------------------------
         1        2.0000           -0.7963184             -21.6689
       ...           ...                  ...                  ...
        62        2.0000           -0.3931259             -10.6975
        63        2.0000           -0.3917427             -10.6599
        64        2.0000           -0.3904297             -10.6241
        65        2.0000           -0.3822622             -10.4019
        66        2.0000           -0.3517212              -9.5708
        67        2.0000           -0.3467033              -9.4343
        68        1.2394           -0.2643114              -7.1923 (HOMO)
        69        0.7606           -0.2633835              -7.1670 (LUMO)
        70                         -0.2162785              -5.8852
        71                         -0.2055653              -5.5937
        72                         -0.1546665              -4.2087
        73                         -0.1355293              -3.6879
       ...                                ...                  ...
       134                          0.7030568              19.1312
      -------------------------------------------------------------
                  HL-Gap            0.0009279 Eh            0.0252 eV
             Fermi-level           -0.2638475 Eh           -7.1797 eV

 SCC (total)                   0 d,  0 h,  0 min,  0.128 sec
 SCC setup                      ...        0 min,  0.002 sec (  1.444%)
 Dispersion                     ...        0 min,  0.000 sec (  0.262%)
 classical contributions        ...        0 min,  0.000 sec (  0.086%)
 integral evaluation            ...        0 min,  0.033 sec ( 25.778%)
 iterations                     ...        0 min,  0.015 sec ( 11.483%)
 molecular gradient             ...        0 min,  0.077 sec ( 60.336%)
 printout                       ...        0 min,  0.001 sec (  0.583%)

         :::::::::::::::::::::::::::::::::::::::::::::::::::::
         ::                     SUMMARY                     ::
         :::::::::::::::::::::::::::::::::::::::::::::::::::::
         :: total energy             -83.583222534947 Eh    ::
         :: total w/o Gsasa/hb       -83.562581919548 Eh    ::
         :: gradient norm              0.000837412250 Eh/a0 ::
         :: HOMO-LUMO gap              0.025248755594 eV    ::
         ::.................................................::
         :: SCC energy               -84.305148566582 Eh    ::
         :: -> electrostatic           0.670659607556 Eh    ::
         :: -> Gsolv                  -0.260037387206 Eh    ::
         ::    -> Gelec               -0.239396771806 Eh    ::
         ::    -> Gsasa               -0.024272571428 Eh    ::
         ::    -> Ghb                 -0.003992322976 Eh    ::
         ::    -> Gshift               0.007624279005 Eh    ::
         :: repulsion energy           0.748536545983 Eh    ::
         :: dispersion energy         -0.026610514349 Eh    ::
         :: halogen bond corr.         0.000000000000 Eh    ::
         :: add. restraining           0.000000000000 Eh    ::
         :: total charge              -2.000000000000 e     ::
         :::::::::::::::::::::::::::::::::::::::::::::::::::::

           -------------------------------------------------
          |                Property Printout                |
           -------------------------------------------------

    * Orbital Energies and Occupations

         #    Occupation            Energy/Eh            Energy/eV
      -------------------------------------------------------------
         1        2.0000           -0.7963184             -21.6689
       ...           ...                  ...                  ...
        56        2.0000           -0.4360418             -11.8653
        57        2.0000           -0.4349722             -11.8362
        58        2.0000           -0.4228185             -11.5055
        59        2.0000           -0.4039745             -10.9927
        60        2.0000           -0.4006868             -10.9032
        61        2.0000           -0.3978434             -10.8259
        62        2.0000           -0.3931259             -10.6975
        63        2.0000           -0.3917427             -10.6599
        64        2.0000           -0.3904297             -10.6241
        65        2.0000           -0.3822622             -10.4019
        66        2.0000           -0.3517212              -9.5708
        67        2.0000           -0.3467033              -9.4343
        68        1.2394           -0.2643114              -7.1923 (HOMO)
        69        0.7606           -0.2633835              -7.1670 (LUMO)
        70                         -0.2162785              -5.8852
        71                         -0.2055653              -5.5937
        72                         -0.1546665              -4.2087
        73                         -0.1355293              -3.6879
        74                         -0.1221006              -3.3225
        75                         -0.1063521              -2.8940
        76                         -0.0997151              -2.7134
        77                         -0.0939705              -2.5571
        78                         -0.0869718              -2.3666
        79                         -0.0783479              -2.1320
       ...                                ...                  ...
       134                          0.7030568              19.1312
      -------------------------------------------------------------
                  HL-Gap            0.0009279 Eh            0.0252 eV
             Fermi-level           -0.2638475 Eh           -7.1797 eV

  Mulliken/CM5 charges         n(s)   n(p)   n(d)
     1C     0.18352  0.06471   0.965  2.852  0.000
     2O    -0.48573 -0.58359   1.704  4.782  0.000
     3C     0.46064  0.51598   0.962  2.578  0.000
     4O    -0.69095 -0.74212   1.747  4.944  0.000
     5C    -0.05079  0.01168   1.040  3.011  0.000
     6C     0.13253  0.16364   1.022  2.846  0.000
     7O    -0.57300 -0.76378   1.703  4.870  0.000
     8C     0.38052  0.47809   0.979  2.640  0.000
     9O    -0.72107 -0.75240   1.754  4.967  0.000
    10N    -0.48272 -0.66038   1.546  3.937  0.000
    11C     0.25962  0.41329   1.019  2.721  0.000
    12C     0.15587  0.19538   1.065  2.779  0.000
    13C    -0.08909 -0.22897   1.012  3.077  0.000
    14C    -0.08696 -0.22449   1.013  3.074  0.000
    15N    -0.39132 -0.73865   1.455  3.936  0.000
    16C     0.38354  0.47892   0.976  2.641  0.000
    17O    -0.67393 -0.71720   1.746  4.928  0.000
    18C     0.26340  0.37699   1.002  2.734  0.000
    19N    -0.34121 -0.43551   1.585  3.756  0.000
    20N    -0.31355 -0.42125   1.571  3.743  0.000
    21C     0.35340  0.46190   0.992  2.655  0.000
    22C    -0.10978 -0.24680   1.008  3.101  0.000
    23O    -0.41549 -0.46948   1.711  4.704  0.000
    24N    -0.23217 -0.47576   1.443  3.790  0.000
    25C     0.06139 -0.02535   0.984  2.955  0.000
    26H     0.01980  0.08131   0.980  0.000  0.000
    27H     0.02147  0.08329   0.979  0.000  0.000
    28H     0.01871  0.07883   0.981  0.000  0.000
    29H     0.35648  0.54750   0.644  0.000  0.000
    30H     0.03656  0.09624   0.963  0.000  0.000
    31H     0.01626  0.07184   0.984  0.000  0.000
    32H     0.02860  0.08778   0.971  0.000  0.000
    33H     0.02986  0.08949   0.970  0.000  0.000
    34H     0.02180  0.08197   0.978  0.000  0.000
    35H     0.01755  0.07516   0.982  0.000  0.000
    36H     0.21644  0.42077   0.784  0.000  0.000
    37H     0.05352  0.10767   0.946  0.000  0.000
    38H     0.04535  0.10118   0.955  0.000  0.000
    39H     0.05324  0.10738   0.947  0.000  0.000
    40H     0.03337  0.10002   0.967  0.000  0.000
    41H     0.02456  0.09872   0.975  0.000  0.000
    42H     0.02975  0.09600   0.970  0.000  0.000

Wiberg/Mayer (AO) data.
largest (>0.10) Wiberg bond orders for each atom

 ---------------------------------------------------------------------------
     #   Z sym  total        # sym  WBO       # sym  WBO       # sym  WBO
 ---------------------------------------------------------------------------
     1   6 C    3.911 --    28 H    0.987    26 H    0.981    27 H    0.981
                             2 O    0.939
     2   8 O    2.067 --     1 C    0.939     3 C    0.917
     3   6 C    3.730 --     4 O    1.407     5 C    1.313     2 O    0.917
     4   8 O    1.682 --     3 C    1.407
     5   6 C    3.741 --     3 C    1.313     6 C    1.217    24 N    0.967
     6   6 C    3.699 --     8 C    1.286     5 C    1.217     7 O    0.996
     7   8 O    1.943 --     6 C    0.996    29 H    0.835
     8   6 C    3.833 --     9 O    1.407     6 C    1.286    10 N    1.032
     9   8 O    1.625 --     8 C    1.407
    10   7 N    2.966 --    11 C    1.602     8 C    1.032    24 N    0.132
    11   6 C    3.931 --    10 N    1.602    24 N    1.198    12 C    0.962
    12   6 C    3.950 --    13 C    0.992    14 C    0.991    11 C    0.962
                            15 N    0.942
    13   6 C    3.994 --    12 C    0.992    31 H    0.988    32 H    0.982
                            30 H    0.981
    14   6 C    3.993 --    12 C    0.991    35 H    0.987    34 H    0.985
                            33 H    0.984
    15   7 N    3.147 --    16 C    1.061    12 C    0.942    36 H    0.921
                            17 O    0.101
    16   6 C    3.738 --    17 O    1.427    18 C    1.179    15 N    1.061
    17   8 O    1.666 --    16 C    1.427    15 N    0.101
    18   6 C    3.685 --    19 N    1.377    16 C    1.179    23 O    0.960
    19   7 N    2.703 --    18 C    1.377    20 N    1.189
    20   7 N    2.981 --    21 C    1.629    19 N    1.189
    21   6 C    3.808 --    20 N    1.629    23 O    1.037    22 C    1.023
    22   6 C    3.994 --    21 C    1.023    38 H    0.986    39 H    0.972
                            37 H    0.971
    23   8 O    2.166 --    21 C    1.037    18 C    0.960
    24   7 N    3.342 --    11 C    1.198     5 C    0.967    25 C    0.946
                            10 N    0.132
    25   6 C    3.952 --    40 H    0.982    42 H    0.978    41 H    0.976
                            24 N    0.946
    26   1 H    1.020 --     1 C    0.981
    27   1 H    1.020 --     1 C    0.981
    28   1 H    1.018 --     1 C    0.987
    29   1 H    0.895 --     7 O    0.835
    30   1 H    1.025 --    13 C    0.981
    31   1 H    1.008 --    13 C    0.988
    32   1 H    1.009 --    13 C    0.982
    33   1 H    1.016 --    14 C    0.984
    34   1 H    1.022 --    14 C    0.985
    35   1 H    1.018 --    14 C    0.987
    36   1 H    0.967 --    15 N    0.921
    37   1 H    1.001 --    22 C    0.971
    38   1 H    1.005 --    22 C    0.986
    39   1 H    1.001 --    22 C    0.972
    40   1 H    1.016 --    25 C    0.982
    41   1 H    1.022 --    25 C    0.976
    42   1 H    1.031 --    25 C    0.978
 ---------------------------------------------------------------------------

Topologies differ in total number of bonds
Writing topology from bond orders to xtbtopo.mol

 dipole moment from electron density (au)
     X       Y       Z   
   0.8178  -1.9785  -3.8311  total (Debye):   11.155

           -------------------------------------------------
          |                Geometry Summary                 |
           -------------------------------------------------

      molecular mass/u    :      351.3152409
   center of mass at/Å    :       -0.0927878      -0.0416852       0.0864250
  moments of inertia/u·Å² :        0.1350553E+04   0.4786195E+04   0.4902104E+04
rotational constants/cm⁻¹ :        0.1248202E-01   0.3522137E-02   0.3438856E-02

 * 35 selected distances

     #   Z          #   Z                                           value/Å
     1   6 C        2   8 O                                       1.4154841
     3   6 C        5   6 C                                       1.4035573
     5   6 C        6   6 C                                       1.4298309
     6   6 C        7   8 O                                       1.3884330
     6   6 C        8   6 C                                       1.4081237
    10   7 N       11   6 C                                       1.2888592
    12   6 C       13   6 C                                       1.5372319
    12   6 C       14   6 C                                       1.5402823 (max)
    12   6 C       15   7 N                                       1.4677936
    15   7 N       16   6 C                                       1.4095497
    16   6 C       18   6 C                                       1.4225802
    18   6 C       19   7 N                                       1.3418641
    20   7 N       21   6 C                                       1.2922249
    21   6 C       22   6 C                                       1.4848060
    18   6 C       23   8 O                                       1.3892835
    21   6 C       23   8 O                                       1.3585002
    11   6 C       24   7 N                                       1.3654405
    24   7 N       25   6 C                                       1.4615883
     1   6 C       26   1 H                                       1.0969557
     1   6 C       27   1 H                                       1.0966519
     1   6 C       28   1 H                                       1.0902531
     7   8 O       29   1 H                                       0.9695411 (min)
    13   6 C       30   1 H                                       1.0889110
    13   6 C       31   1 H                                       1.0902375
    13   6 C       32   1 H                                       1.0876598
    14   6 C       33   1 H                                       1.0891633
    14   6 C       34   1 H                                       1.0896993
    14   6 C       35   1 H                                       1.0896243
    15   7 N       36   1 H                                       1.0128973
    22   6 C       37   1 H                                       1.0911045
    22   6 C       38   1 H                                       1.0877724
    22   6 C       39   1 H                                       1.0912046
    25   6 C       40   1 H                                       1.0914251
    25   6 C       41   1 H                                       1.0892703
    25   6 C       42   1 H                                       1.0923254

 * 6 distinct bonds (by element types)

   Z      Z             #   av. dist./Å        max./Å        min./Å
   1 H    6 C          15     1.0908172     1.0969557     1.0876598
   6 C    6 C           7     1.4609160     1.5402823     1.4035573
   1 H    7 N           1     1.0128973     1.0128973     1.0128973
   6 C    7 N           7     1.3753315     1.4677936     1.2888592
   1 H    8 O           1     0.9695411     0.9695411     0.9695411
   6 C    8 O           4     1.3879252     1.4154841     1.3585002


optimized geometry written to: xtbopt.xyz


           -------------------------------------------------
          | TOTAL ENERGY              -83.583222534947 Eh   |
          | GRADIENT NORM               0.000837412250 Eh/α |
          | HOMO-LUMO GAP               0.025248755594 eV   |
           -------------------------------------------------

------------------------------------------------------------------------
 * finished run on 2023/06/20 at 17:41:24.094     
------------------------------------------------------------------------
 total:
 * wall-time:     0 d,  0 h,  0 min,  5.284 sec
 *  cpu-time:     0 d,  0 h,  0 min,  5.222 sec
 * ratio c/w:     0.988 speedup
 SCF:
 * wall-time:     0 d,  0 h,  0 min,  0.191 sec
 *  cpu-time:     0 d,  0 h,  0 min,  0.191 sec
 * ratio c/w:     0.998 speedup
 ANC optimizer:
 * wall-time:     0 d,  0 h,  0 min,  4.993 sec
 *  cpu-time:     0 d,  0 h,  0 min,  4.982 sec
 * ratio c/w:     0.998 speedup

