      -----------------------------------------------------------      
     |                   =====================                   |     
     |                           x T B                           |     
     |                   =====================                   |     
     |                         S. Grimme                         |     
     |          Mulliken Center for Theoretical Chemistry        |     
     |                    University of Bonn                     |     
      -----------------------------------------------------------      

   * xtb version 6.5.1 (579679a) compiled by 'ehlert@majestix' on 2022-07-11

   xtb is free software: you can redistribute it and/or modify it under
   the terms of the GNU Lesser General Public License as published by
   the Free Software Foundation, either version 3 of the License, or
   (at your option) any later version.
   
   xtb is distributed in the hope that it will be useful,
   but WITHOUT ANY WARRANTY; without even the implied warranty of
   MERCHANTABILITY or FITNESS FOR A PARTICULAR PURPOSE.  See the
   GNU Lesser General Public License for more details.
   
   Cite this work as:
   * C. Bannwarth, E. Caldeweyher, S. Ehlert, A. Hansen, P. Pracht,
     J. Seibert, S. Spicher, S. Grimme, WIREs Comput. Mol. Sci., 2020, 11,
     e01493. DOI: 10.1002/wcms.1493
   
   for GFN2-xTB:
   * C. Bannwarth, S. Ehlert and S. Grimme., J. Chem. Theory Comput., 2019,
     15, 1652-1671. DOI: 10.1021/acs.jctc.8b01176
   for GFN1-xTB:
   * S. Grimme, C. Bannwarth, P. Shushkov, J. Chem. Theory Comput., 2017,
     13, 1989-2009. DOI: 10.1021/acs.jctc.7b00118
   for GFN0-xTB:
   * P. Pracht, E. Caldeweyher, S. Ehlert, S. Grimme, ChemRxiv, 2019, preprint.
     DOI: 10.26434/chemrxiv.8326202.v1
   for GFN-FF:
   * S. Spicher and S. Grimme, Angew. Chem. Int. Ed., 2020, 59, 15665-15673.
     DOI: 10.1002/anie.202004239
   
   for ALPB and GBSA implicit solvation:
   * S. Ehlert, M. Stahn, S. Spicher, S. Grimme, J. Chem. Theory Comput.,
     2021, 17, 4250-4261. DOI: 10.1021/acs.jctc.1c00471
   
   for DFT-D4:
   * E. Caldeweyher, C. Bannwarth and S. Grimme, J. Chem. Phys., 2017,
     147, 034112. DOI: 10.1063/1.4993215
   * E. Caldeweyher, S. Ehlert, A. Hansen, H. Neugebauer, S. Spicher,
     C. Bannwarth and S. Grimme, J. Chem. Phys., 2019, 150, 154122.
     DOI: 10.1063/1.5090222
   * E. Caldeweyher, J.-M. Mewes, S. Ehlert and S. Grimme, Phys. Chem. Chem. Phys.
     2020, 22, 8499-8512. DOI: 10.1039/D0CP00502A
   
   for sTDA-xTB:
   * S. Grimme and C. Bannwarth, J. Chem. Phys., 2016, 145, 054103.
     DOI: 10.1063/1.4959605
   
   in the mass-spec context:
   * V. Asgeirsson, C. Bauer and S. Grimme, Chem. Sci., 2017, 8, 4879.
     DOI: 10.1039/c7sc00601b
   * J. Koopman and S. Grimme, ACS Omega 2019, 4, 12, 15120-15133.
     DOI: 10.1021/acsomega.9b02011
   
   for metadynamics refer to:
   * S. Grimme, J. Chem. Theory Comput., 2019, 155, 2847-2862
     DOI: 10.1021/acs.jctc.9b00143
   
   for SPH calculations refer to:
   * S. Spicher and S. Grimme, J. Chem. Theory Comput., 2021, 17, 1701-1714
     DOI: 10.1021/acs.jctc.0c01306
   
   with help from (in alphabetical order)
   P. Atkinson, C. Bannwarth, F. Bohle, G. Brandenburg, E. Caldeweyher
   M. Checinski, S. Dohm, S. Ehlert, S. Ehrlich, I. Gerasimov, C. Hölzer
   A. Katbashev, J. Koopman, C. Lavigne, S. Lehtola, F. März, M. Müller,
   F. Musil, H. Neugebauer, J. Pisarek, C. Plett, P. Pracht, F. Pultar,
   J. Seibert, P. Shushkov, S. Spicher, M. Stahn, M. Steiner, T. Strunk,
   J. Stückrath, T. Rose, and J. Unsleber
   
 * started run on 2023/06/20 at 15:33:19.180     

           -------------------------------------------------
          |                Calculation Setup                |
           -------------------------------------------------

          program call               : /lustre/hpc/kemi/ree/PhD/git/ReactivityQM/dep/xtb-6.5.1/bin/xtb --gfn 1 /lustre/hpc/kemi/ree/PhD/git/ReactivityQM/calculations/RaltegravirCLI/reac02prodN12/conf06/RaltegravirCLI_reac02prodN12_conf06_gfn1.xyz --opt --vfukui --chrg 1 --uhf 0 --alpb DMSO
          hostname                   : node308
          coordinate file            : /lustre/hpc/kemi/ree/PhD/git/ReactivityQM/calculations/RaltegravirCLI/reac02prodN12/conf06/RaltegravirCLI_reac02prodN12_conf06_gfn1.xyz
          omp threads                :                     1

   ID    Z sym.   atoms
    1    6 C      1, 3, 5, 6, 8, 9, 12-16, 18, 19, 21-24
    2    7 N      2, 11, 20, 25
    3    8 O      4, 7, 10
    4    9 F      17
    5    1 H      26-47

           -------------------------------------------------
          |                 G F N 1 - x T B                 |
           -------------------------------------------------

        Reference                      10.1021/acs.jctc.7b00118
      * Hamiltonian:
        H0-scaling (s, p, d)           1.850000    2.250000    2.000000
        zeta-weighting                 0.000000
      * Dispersion:
        s8                             2.400000
        a1                             0.630000
        a2                             5.000000
        s9                             0.000000
      * Repulsion:
        kExp                           1.500000
        rExp                           1.000000
      * Coulomb:
        alpha                          2.000000
        third order                    atomic
        anisotropic                    false
      * Halogen bond correction:
        rad-scale                      1.300000
        damping                        0.440000

      * Solvation model:               ALPB
        Solvent                        DMSO
        Parameter file                 internal GFN1-xTB/ALPB
        Dielectric constant                4.6680E+01
        Reference state                gsolv [1 M gas/solution]
        Free energy shift                  7.6243E-03 Eh       4.7843E+00 kcal/mol
        Temperature                        2.9815E+02 K
        Density                            1.1000E+00 kg/L
        Solvent mass                       7.8130E+01 g/mol
        Interaction kernel             P16
        Born radius scaling (c1)           1.7672E+00
        Born radii integrator          GBOBC
        Born offset                        0.0000E+00 a0       0.0000E+00 AA
        H-bond correction              true
        Ion screening                  false
        Surface tension                    1.0000E-05 Eh       1.5569E+01 dyn/cm
        Grid points                               230 per atom

          ...................................................
          :                      SETUP                      :
          :.................................................:
          :  # basis functions                 144          :
          :  # atomic orbitals                 144          :
          :  # shells                           94          :
          :  # electrons                       134          :
          :  # halogen bonds                     0          :
          :  max. iterations                   250          :
          :  Hamiltonian                  GFN1-xTB          :
          :  restarted?                      false          :
          :  GBSA solvation                   true          :
          :  PC potential                    false          :
          :  electronic temp.          300.0000000     K    :
          :  accuracy                    1.0000000          :
          :  -> integral cutoff          0.2500000E+02      :
          :  -> integral neglect         0.1000000E-07      :
          :  -> SCF convergence          0.1000000E-05 Eh   :
          :  -> wf. convergence          0.2000000E-04 e    :
          :  Broyden damping             0.4000000          :
          ...................................................

 iter      E             dE          RMSdq      gap      omega  full diag
   1    -80.0884431 -0.800884E+02  0.849E+00    1.29       0.0  T
   2    -80.2952160 -0.206773E+00  0.517E+00    0.15       1.0  T
   3    -80.2508934  0.443226E-01  0.188E+00    1.40       1.0  T
   4    -80.3464635 -0.955701E-01  0.599E-01    0.52       1.0  T
   5    -80.3561217 -0.965811E-02  0.234E-01    0.44       1.0  T
   6    -80.3563215 -0.199838E-03  0.173E-01    0.26       1.0  T
   7    -80.3578331 -0.151164E-02  0.112E-01    0.44       1.0  T
   8    -80.3584646 -0.631488E-03  0.301E-02    0.39       1.0  T
   9    -80.3584962 -0.315285E-04  0.784E-03    0.37       1.9  T
  10    -80.3584990 -0.281699E-05  0.115E-03    0.36      12.7  T
  11    -80.3584989  0.807964E-07  0.153E-03    0.37       9.5  T
  12    -80.3584990 -0.103123E-06  0.208E-04    0.36      70.0  T
  13    -80.3584990 -0.538904E-09  0.646E-05    0.36     225.7  T
  14    -80.3584990 -0.313875E-09  0.182E-05    0.36     802.9  T

   *** convergence criteria satisfied after 14 iterations ***

         #    Occupation            Energy/Eh            Energy/eV
      -------------------------------------------------------------
         1        2.0000           -0.8839029             -24.0522
       ...           ...                  ...                  ...
        61        2.0000           -0.4955622             -13.4849
        62        2.0000           -0.4808290             -13.0840
        63        2.0000           -0.4772523             -12.9867
        64        2.0000           -0.4677123             -12.7271
        65        2.0000           -0.4588074             -12.4848
        66        1.9998           -0.4464863             -12.1495
        67        1.9984           -0.4445022             -12.0955 (HOMO)
        68        0.0018           -0.4311160             -11.7313 (LUMO)
        69                         -0.3483105              -9.4780
        70                         -0.3011397              -8.1944
        71                         -0.2767926              -7.5319
        72                         -0.2754642              -7.4958
       ...                                ...                  ...
       144                          0.6592782              17.9399
      -------------------------------------------------------------
                  HL-Gap            0.0133862 Eh            0.3643 eV
             Fermi-level           -0.4377535 Eh          -11.9119 eV

 SCC (total)                   0 d,  0 h,  0 min,  0.209 sec
 SCC setup                      ...        0 min,  0.003 sec (  1.200%)
 Dispersion                     ...        0 min,  0.000 sec (  0.238%)
 classical contributions        ...        0 min,  0.000 sec (  0.078%)
 integral evaluation            ...        0 min,  0.054 sec ( 25.688%)
 iterations                     ...        0 min,  0.057 sec ( 27.130%)
 molecular gradient             ...        0 min,  0.094 sec ( 45.123%)
 printout                       ...        0 min,  0.001 sec (  0.516%)

         :::::::::::::::::::::::::::::::::::::::::::::::::::::
         ::                     SUMMARY                     ::
         :::::::::::::::::::::::::::::::::::::::::::::::::::::
         :: total energy             -79.471593589090 Eh    ::
         :: total w/o Gsasa/hb       -79.444817890903 Eh    ::
         :: gradient norm              0.116610181244 Eh/a0 ::
         :: HOMO-LUMO gap              0.364255858114 eV    ::
         ::.................................................::
         :: SCC energy               -80.358498993338 Eh    ::
         :: -> electrostatic           0.315733695602 Eh    ::
         :: -> Gsolv                  -0.107088784405 Eh    ::
         ::    -> Gelec               -0.080313086219 Eh    ::
         ::    -> Gsasa               -0.024523951637 Eh    ::
         ::    -> Ghb                 -0.009876025554 Eh    ::
         ::    -> Gshift               0.007624279005 Eh    ::
         :: repulsion energy           0.917861402272 Eh    ::
         :: dispersion energy         -0.030955998023 Eh    ::
         :: halogen bond corr.         0.000000000000 Eh    ::
         :: add. restraining           0.000000000000 Eh    ::
         :: total charge               1.000000000000 e     ::
         :::::::::::::::::::::::::::::::::::::::::::::::::::::

      ----------------------------------------------------------- 
     |                   =====================                   |
     |                        A N C O P T                        |
     |                   =====================                   |
     |               Approximate Normal Coordinate               |
     |                Rational Function Optimizer                |
      ----------------------------------------------------------- 

          ...................................................
          :                      SETUP                      :
          :.................................................:
          :   optimization level            normal          :
          :   max. optcycles                   200          :
          :   ANC micro-cycles                  20          :
          :   degrees of freedom               135          :
          :.................................................:
          :   RF solver                   davidson          :
          :   write xtbopt.log                true          :
          :   linear?                        false          :
          :   energy convergence         0.5000000E-05 Eh   :
          :   grad. convergence          0.1000000E-02 Eh/α :
          :   maximium RF displ.         1.0000000          :
          :   Hlow (freq-cutoff)         0.1000000E-01      :
          :   Hmax (freq-cutoff)         5.0000000          :
          :   S6 in model hess.         20.0000000          :
          ...................................................

generating ANC from model Hessian ...
Using Lindh-Hessian (1995)
 Shifting diagonal of input Hessian by   9.775834564330999E-003
 Lowest  eigenvalues of input Hessian
    0.000000    0.000000    0.000000    0.000000    0.000000    0.000000
    0.010000    0.010069    0.010679    0.010760    0.011025    0.012082
    0.012935    0.013578    0.014847    0.015750    0.016666    0.018359
 Highest eigenvalues
    1.936129    2.039424    2.094404    2.149582    2.304341    2.315731
 

........................................................................
.............................. CYCLE    1 ..............................
........................................................................
   1    -80.3584990 -0.803585E+02  0.101E-05    0.36       0.0  T
   2    -80.3584990  0.781597E-12  0.111E-05    0.36    1317.4  T
   3    -80.3584990 -0.812861E-11  0.168E-06    0.36    8665.5  T
     SCC iter.                  ...        0 min,  0.013 sec
     gradient                   ...        0 min,  0.094 sec
 * total energy  :   -79.4715936 Eh     change       -0.7531753E-11 Eh
   gradient norm :     0.1166101 Eh/α   predicted     0.0000000E+00 (-100.00%)
   displ. norm   :     0.2590007 α      lambda       -0.1455365E-01
   maximum displ.:     0.0881280 α      in ANC's #73, #4, #33, ...

........................................................................
.............................. CYCLE    2 ..............................
........................................................................
   1    -80.3649885 -0.803650E+02  0.637E-02    0.51       0.0  T
   2    -80.3651288 -0.140331E-03  0.260E-02    0.46       1.0  T
   3    -80.3651441 -0.153359E-04  0.171E-02    0.48       1.0  T
   4    -80.3651481 -0.394010E-05  0.660E-03    0.47       2.2  T
   5    -80.3651486 -0.528979E-06  0.164E-03    0.47       8.9  T
   6    -80.3651487 -0.626763E-07  0.404E-04    0.47      36.1  T
   7    -80.3651487 -0.430980E-08  0.156E-04    0.47      93.6  T
   8    -80.3651487 -0.618513E-09  0.428E-05    0.47     341.1  T
     SCC iter.                  ...        0 min,  0.032 sec
     gradient                   ...        0 min,  0.097 sec
 * total energy  :   -79.4823612 Eh     change       -0.1076761E-01 Eh
   gradient norm :     0.0688319 Eh/α   predicted    -0.7774118E-02 ( -27.80%)
   displ. norm   :     0.2895779 α      lambda       -0.8059035E-02
   maximum displ.:     0.1231582 α      in ANC's #4, #21, #73, ...

........................................................................
.............................. CYCLE    3 ..............................
........................................................................
   1    -80.3755011 -0.803755E+02  0.647E-02    0.68       0.0  T
   2    -80.3756618 -0.160705E-03  0.237E-02    0.63       1.0  T
   3    -80.3756684 -0.661305E-05  0.141E-02    0.63       1.0  T
   4    -80.3756691 -0.729565E-06  0.488E-03    0.63       3.0  T
   5    -80.3756693 -0.214021E-06  0.115E-03    0.63      12.6  T
   6    -80.3756694 -0.332354E-07  0.272E-04    0.63      53.7  T
   7    -80.3756694 -0.116636E-08  0.113E-04    0.63     129.5  T
   8    -80.3756694 -0.184485E-09  0.306E-05    0.63     476.8  T
     SCC iter.                  ...        0 min,  0.032 sec
     gradient                   ...        0 min,  0.094 sec
 * total energy  :   -79.4870533 Eh     change       -0.4692131E-02 Eh
   gradient norm :     0.0191425 Eh/α   predicted    -0.4369147E-02 (  -6.88%)
   displ. norm   :     0.2369452 α      lambda       -0.1202071E-02
   maximum displ.:     0.1498096 α      in ANC's #4, #3, #9, ...

........................................................................
.............................. CYCLE    4 ..............................
........................................................................
   1    -80.3772395 -0.803772E+02  0.174E-02    0.70       0.0  T
   2    -80.3772527 -0.132628E-04  0.688E-03    0.68       2.1  T
   3    -80.3772534 -0.651997E-06  0.380E-03    0.68       3.8  T
   4    -80.3772534 -0.484032E-07  0.146E-03    0.68      10.0  T
   5    -80.3772535 -0.884195E-08  0.240E-04    0.68      60.7  T
   6    -80.3772535 -0.110300E-08  0.866E-05    0.68     168.4  T
   7    -80.3772535 -0.915747E-10  0.335E-05    0.68     435.6  T
     SCC iter.                  ...        0 min,  0.028 sec
     gradient                   ...        0 min,  0.094 sec
 * total energy  :   -79.4879918 Eh     change       -0.9385112E-03 Eh
   gradient norm :     0.0109774 Eh/α   predicted    -0.6348210E-03 ( -32.36%)
   displ. norm   :     0.3916420 α      lambda       -0.1250118E-02
   maximum displ.:     0.2584243 α      in ANC's #4, #3, #9, ...

........................................................................
.............................. CYCLE    5 ..............................
........................................................................
   1    -80.3770957 -0.803771E+02  0.221E-02    0.74       0.0  T
   2    -80.3771175 -0.217240E-04  0.978E-03    0.73       1.5  T
   3    -80.3771190 -0.149172E-05  0.525E-03    0.72       2.8  T
   4    -80.3771190 -0.626486E-07  0.194E-03    0.72       7.5  T
   5    -80.3771190 -0.160717E-07  0.294E-04    0.72      49.6  T
   6    -80.3771190 -0.252669E-08  0.111E-04    0.72     131.0  T
   7    -80.3771190 -0.165528E-09  0.504E-05    0.72     289.6  T
     SCC iter.                  ...        0 min,  0.028 sec
     gradient                   ...        0 min,  0.093 sec
 * total energy  :   -79.4888749 Eh     change       -0.8831049E-03 Eh
   gradient norm :     0.0093353 Eh/α   predicted    -0.7209586E-03 ( -18.36%)
   displ. norm   :     0.3469042 α      lambda       -0.6365336E-03
   maximum displ.:     0.2360443 α      in ANC's #4, #9, #3, ...

........................................................................
.............................. CYCLE    6 ..............................
........................................................................
   1    -80.3767250 -0.803767E+02  0.123E-02    0.75       0.0  T
   2    -80.3767325 -0.754131E-05  0.554E-03    0.74       2.6  T
   3    -80.3767330 -0.523955E-06  0.293E-03    0.74       5.0  T
   4    -80.3767330 -0.254691E-07  0.130E-03    0.74      11.2  T
   5    -80.3767331 -0.808743E-08  0.204E-04    0.74      71.6  T
   6    -80.3767331 -0.112514E-08  0.725E-05    0.74     201.3  T
   7    -80.3767331 -0.592166E-10  0.355E-05    0.74     410.9  T
     SCC iter.                  ...        0 min,  0.027 sec
     gradient                   ...        0 min,  0.093 sec
 * total energy  :   -79.4893811 Eh     change       -0.5061491E-03 Eh
   gradient norm :     0.0108973 Eh/α   predicted    -0.3565687E-03 ( -29.55%)
   displ. norm   :     0.4051101 α      lambda       -0.6589959E-03
   maximum displ.:     0.2696992 α      in ANC's #4, #9, #3, ...

........................................................................
.............................. CYCLE    7 ..............................
........................................................................
   1    -80.3769483 -0.803769E+02  0.887E-03    0.75       0.0  T
   2    -80.3769532 -0.486739E-05  0.412E-03    0.75       3.5  T
   3    -80.3769536 -0.400443E-06  0.196E-03    0.75       7.4  T
   4    -80.3769536 -0.219563E-07  0.106E-03    0.75      13.7  T
   5    -80.3769536 -0.661460E-08  0.190E-04    0.75      76.7  T
   6    -80.3769536 -0.319218E-09  0.590E-05    0.75     247.4  T
     SCC iter.                  ...        0 min,  0.024 sec
     gradient                   ...        0 min,  0.093 sec
 * total energy  :   -79.4899297 Eh     change       -0.5486292E-03 Eh
   gradient norm :     0.0107368 Eh/α   predicted    -0.3835741E-03 ( -30.08%)
   displ. norm   :     0.4993367 α      lambda       -0.7497625E-03
   maximum displ.:     0.3289730 α      in ANC's #4, #9, #3, ...

........................................................................
.............................. CYCLE    8 ..............................
........................................................................
   1    -80.3776636 -0.803777E+02  0.115E-02    0.74       0.0  T
   2    -80.3776690 -0.539204E-05  0.496E-03    0.74       2.9  T
   3    -80.3776695 -0.480310E-06  0.251E-03    0.74       5.8  T
   4    -80.3776696 -0.454035E-07  0.105E-03    0.74      13.9  T
   5    -80.3776696 -0.421863E-08  0.197E-04    0.74      74.0  T
   6    -80.3776696 -0.429708E-09  0.711E-05    0.74     205.3  T
     SCC iter.                  ...        0 min,  0.024 sec
     gradient                   ...        0 min,  0.093 sec
 * total energy  :   -79.4905304 Eh     change       -0.6006892E-03 Eh
   gradient norm :     0.0098469 Eh/α   predicted    -0.4683578E-03 ( -22.03%)
   displ. norm   :     0.5109380 α      lambda       -0.6379714E-03
   maximum displ.:     0.3373226 α      in ANC's #4, #9, #3, ...

........................................................................
.............................. CYCLE    9 ..............................
........................................................................
   1    -80.3791969 -0.803792E+02  0.148E-02    0.73       0.0  T
   2    -80.3792026 -0.576386E-05  0.602E-03    0.73       2.4  T
   3    -80.3792030 -0.414164E-06  0.332E-03    0.73       4.4  T
   4    -80.3792031 -0.695087E-07  0.106E-03    0.73      13.7  T
   5    -80.3792031 -0.651401E-08  0.205E-04    0.73      71.3  T
   6    -80.3792031 -0.816470E-09  0.756E-05    0.73     193.0  T
   7    -80.3792031 -0.624993E-10  0.263E-05    0.73     555.4  T
     SCC iter.                  ...        0 min,  0.027 sec
     gradient                   ...        0 min,  0.094 sec
 * total energy  :   -79.4910255 Eh     change       -0.4950725E-03 Eh
   gradient norm :     0.0090580 Eh/α   predicted    -0.4023092E-03 ( -18.74%)
   displ. norm   :     0.4746671 α      lambda       -0.4809794E-03
   maximum displ.:     0.3146411 α      in ANC's #4, #5, #3, ...

........................................................................
.............................. CYCLE   10 ..............................
........................................................................
   1    -80.3810978 -0.803811E+02  0.139E-02    0.72       0.0  T
   2    -80.3811026 -0.477528E-05  0.542E-03    0.72       2.7  T
   3    -80.3811028 -0.236525E-06  0.304E-03    0.72       4.8  T
   4    -80.3811028 -0.510928E-07  0.919E-04    0.72      15.9  T
   5    -80.3811029 -0.775901E-08  0.181E-04    0.72      80.6  T
   6    -80.3811029 -0.625391E-09  0.624E-05    0.72     233.9  T
     SCC iter.                  ...        0 min,  0.024 sec
     gradient                   ...        0 min,  0.094 sec
 * total energy  :   -79.4914059 Eh     change       -0.3804360E-03 Eh
   gradient norm :     0.0085311 Eh/α   predicted    -0.2946767E-03 ( -22.54%)
   displ. norm   :     0.4627752 α      lambda       -0.4125276E-03
   maximum displ.:     0.3041648 α      in ANC's #4, #5, #3, ...

........................................................................
.............................. CYCLE   11 ..............................
........................................................................
   1    -80.3828394 -0.803828E+02  0.113E-02    0.71       0.0  T
   2    -80.3828434 -0.400152E-05  0.429E-03    0.71       3.4  T
   3    -80.3828436 -0.143675E-06  0.243E-03    0.71       6.0  T
   4    -80.3828436 -0.256091E-07  0.777E-04    0.71      18.8  T
   5    -80.3828436 -0.776674E-08  0.168E-04    0.71      86.9  T
   6    -80.3828436 -0.473591E-09  0.485E-05    0.71     300.5  T
     SCC iter.                  ...        0 min,  0.024 sec
     gradient                   ...        0 min,  0.093 sec
 * total energy  :   -79.4917163 Eh     change       -0.3104252E-03 Eh
   gradient norm :     0.0081633 Eh/α   predicted    -0.2504459E-03 ( -19.32%)
   displ. norm   :     0.3970421 α      lambda       -0.3335848E-03
   maximum displ.:     0.2536880 α      in ANC's #4, #5, #8, ...

........................................................................
.............................. CYCLE   12 ..............................
........................................................................
   1    -80.3842218 -0.803842E+02  0.686E-03    0.71       0.0  T
   2    -80.3842242 -0.235050E-05  0.309E-03    0.72       4.7  T
   3    -80.3842242 -0.679672E-07  0.172E-03    0.72       8.5  T
   4    -80.3842243 -0.216306E-08  0.581E-04    0.72      25.1  T
   5    -80.3842243 -0.512973E-08  0.112E-04    0.72     130.4  T
   6    -80.3842243 -0.291848E-09  0.328E-05    0.72     444.7  T
     SCC iter.                  ...        0 min,  0.024 sec
     gradient                   ...        0 min,  0.093 sec
 * total energy  :   -79.4919870 Eh     change       -0.2706276E-03 Eh
   gradient norm :     0.0078296 Eh/α   predicted    -0.1930886E-03 ( -28.65%)
   displ. norm   :     0.5658741 α      lambda       -0.4080081E-03
   maximum displ.:     0.3512476 α      in ANC's #4, #5, #8, ...

........................................................................
.............................. CYCLE   13 ..............................
........................................................................
   1    -80.3813691 -0.803814E+02  0.783E-03    0.72       0.0  T
   2    -80.3813718 -0.273305E-05  0.348E-03    0.72       4.2  T
   3    -80.3813720 -0.186665E-06  0.193E-03    0.72       7.6  T
   4    -80.3813720 -0.114320E-07  0.619E-04    0.72      23.6  T
   5    -80.3813720 -0.125787E-08  0.122E-04    0.72     119.4  T
   6    -80.3813720 -0.251106E-09  0.386E-05    0.72     377.6  T
     SCC iter.                  ...        0 min,  0.024 sec
     gradient                   ...        0 min,  0.093 sec
 * total energy  :   -79.4922774 Eh     change       -0.2904306E-03 Eh
   gradient norm :     0.0099688 Eh/α   predicted    -0.2693301E-03 (  -7.27%)
   displ. norm   :     0.4225749 α      lambda       -0.5264328E-03
   maximum displ.:     0.2144035 α      in ANC's #5, #6, #4, ...

........................................................................
.............................. CYCLE   14 ..............................
........................................................................
   1    -80.3860877 -0.803861E+02  0.200E-02    0.73       0.0  T
   2    -80.3860997 -0.119371E-04  0.933E-03    0.73       1.6  T
   3    -80.3861001 -0.403245E-06  0.490E-03    0.73       3.0  T
   4    -80.3861001 -0.327499E-07  0.153E-03    0.73       9.5  T
   5    -80.3861001 -0.234484E-07  0.198E-04    0.73      73.6  T
   6    -80.3861001 -0.643169E-09  0.691E-05    0.73     211.1  T
     SCC iter.                  ...        0 min,  0.020 sec
     gradient                   ...        0 min,  0.070 sec
 * total energy  :   -79.4924495 Eh     change       -0.1721031E-03 Eh
   gradient norm :     0.0138888 Eh/α   predicted    -0.3102219E-03 (  80.25%)
   displ. norm   :     0.3826181 α      lambda       -0.3803396E-03
   maximum displ.:     0.2323135 α      in ANC's #4, #5, #9, ...

........................................................................
.............................. CYCLE   15 ..............................
........................................................................
   1    -80.3813362 -0.803813E+02  0.128E-02    0.74       0.0  T
   2    -80.3813398 -0.366008E-05  0.604E-03    0.74       2.4  T
   3    -80.3813400 -0.151338E-06  0.317E-03    0.74       4.6  T
   4    -80.3813400 -0.233952E-07  0.782E-04    0.74      18.6  T
   5    -80.3813400 -0.108520E-07  0.154E-04    0.74      94.6  T
   6    -80.3813400 -0.458385E-09  0.339E-05    0.74     430.5  T
     SCC iter.                  ...        0 min,  0.026 sec
     gradient                   ...        0 min,  0.099 sec
 * total energy  :   -79.4926869 Eh     change       -0.2373768E-03 Eh
   gradient norm :     0.0086687 Eh/α   predicted    -0.2180115E-03 (  -8.16%)
   displ. norm   :     0.1634440 α      lambda       -0.2127286E-03
   maximum displ.:     0.0800706 α      in ANC's #4, #5, #6, ...

........................................................................
.............................. CYCLE   16 ..............................
........................................................................
   1    -80.3809450 -0.803809E+02  0.720E-03    0.74       0.0  T
   2    -80.3809465 -0.158314E-05  0.448E-03    0.74       3.3  T
   3    -80.3809467 -0.181673E-06  0.247E-03    0.74       5.9  T
   4    -80.3809467 -0.104221E-07  0.448E-04    0.74      32.6  T
   5    -80.3809467 -0.220307E-08  0.838E-05    0.74     174.1  T
   6    -80.3809467 -0.156604E-09  0.304E-05    0.74     479.1  T
     SCC iter.                  ...        0 min,  0.026 sec
     gradient                   ...        0 min,  0.099 sec
 * total energy  :   -79.4928143 Eh     change       -0.1274357E-03 Eh
   gradient norm :     0.0091111 Eh/α   predicted    -0.1092153E-03 ( -14.30%)
   displ. norm   :     0.2345841 α      lambda       -0.2130205E-03
   maximum displ.:     0.1236536 α      in ANC's #5, #6, #4, ...

........................................................................
.............................. CYCLE   17 ..............................
........................................................................
   1    -80.3833892 -0.803834E+02  0.112E-02    0.75       0.0  T
   2    -80.3833978 -0.865109E-05  0.389E-03    0.75       3.7  T
   3    -80.3833982 -0.340549E-06  0.225E-03    0.75       6.5  T
   4    -80.3833982 -0.208960E-07  0.115E-03    0.75      12.6  T
   5    -80.3833982 -0.499286E-08  0.246E-04    0.75      59.2  T
   6    -80.3833982 -0.799204E-09  0.540E-05    0.75     270.3  T
   7    -80.3833982 -0.398188E-10  0.155E-05    0.75     939.8  T
     SCC iter.                  ...        0 min,  0.030 sec
     gradient                   ...        0 min,  0.099 sec
 * total energy  :   -79.4929238 Eh     change       -0.1094620E-03 Eh
   gradient norm :     0.0069841 Eh/α   predicted    -0.1123750E-03 (   2.66%)
   displ. norm   :     0.2013475 α      lambda       -0.9724473E-04
   maximum displ.:     0.1073090 α      in ANC's #5, #4, #6, ...

........................................................................
.............................. CYCLE   18 ..............................
........................................................................
   1    -80.3824455 -0.803824E+02  0.541E-03    0.74       0.0  T
   2    -80.3824464 -0.916270E-06  0.206E-03    0.74       7.1  T
   3    -80.3824465 -0.987975E-07  0.121E-03    0.74      12.1  T
   4    -80.3824465 -0.665280E-08  0.362E-04    0.74      40.3  T
   5    -80.3824465 -0.603009E-09  0.807E-05    0.74     180.8  T
   6    -80.3824465 -0.129944E-09  0.209E-05    0.74     697.5  T
     SCC iter.                  ...        0 min,  0.025 sec
     gradient                   ...        0 min,  0.099 sec
 * total energy  :   -79.4929872 Eh     change       -0.6346560E-04 Eh
   gradient norm :     0.0041043 Eh/α   predicted    -0.5059713E-04 ( -20.28%)
   displ. norm   :     0.1087413 α      lambda       -0.5967493E-04
   maximum displ.:     0.0551136 α      in ANC's #5, #4, #6, ...

........................................................................
.............................. CYCLE   19 ..............................
........................................................................
   1    -80.3839712 -0.803840E+02  0.464E-03    0.74       0.0  T
   2    -80.3839717 -0.504884E-06  0.210E-03    0.74       6.9  T
   3    -80.3839717 -0.362077E-07  0.118E-03    0.74      12.4  T
   4    -80.3839717 -0.589371E-08  0.299E-04    0.74      48.8  T
   5    -80.3839717 -0.116029E-08  0.615E-05    0.74     237.2  T
   6    -80.3839717 -0.700737E-10  0.177E-05    0.74     826.2  T
     SCC iter.                  ...        0 min,  0.025 sec
     gradient                   ...        0 min,  0.098 sec
 * total energy  :   -79.4930246 Eh     change       -0.3738356E-04 Eh
   gradient norm :     0.0031459 Eh/α   predicted    -0.3019298E-04 ( -19.23%)
   displ. norm   :     0.3163431 α      lambda       -0.6250129E-04
   maximum displ.:     0.1957559 α      in ANC's #4, #5, #6, ...

........................................................................
.............................. CYCLE   20 ..............................
........................................................................
   1    -80.3824074 -0.803824E+02  0.423E-03    0.74       0.0  T
   2    -80.3824082 -0.825438E-06  0.216E-03    0.74       6.8  T
   3    -80.3824083 -0.888409E-07  0.116E-03    0.74      12.5  T
   4    -80.3824083 -0.462610E-08  0.367E-04    0.74      39.8  T
   5    -80.3824083 -0.498716E-09  0.762E-05    0.74     191.5  T
   6    -80.3824083 -0.782592E-10  0.266E-05    0.74     548.4  T
     SCC iter.                  ...        0 min,  0.026 sec
     gradient                   ...        0 min,  0.098 sec
 * total energy  :   -79.4930593 Eh     change       -0.3465015E-04 Eh
   gradient norm :     0.0033742 Eh/α   predicted    -0.3439751E-04 (  -0.73%)
   displ. norm   :     0.1020646 α      lambda       -0.3131329E-04
   maximum displ.:     0.0670788 α      in ANC's #4, #5, #6, ...
 * RMSD in coord.:     0.8507051 α      energy gain  -0.2146569E-01 Eh

generating ANC from model Hessian ...
Using Lindh-Hessian (1995)
 Shifting diagonal of input Hessian by   9.780984723472934E-003
 Lowest  eigenvalues of input Hessian
    0.000000    0.000000    0.000000    0.000000    0.000000    0.000000
    0.010000    0.010051    0.010609    0.010764    0.011037    0.012084
    0.012421    0.013397    0.014957    0.015808    0.016508    0.018728
 Highest eigenvalues
    2.001474    2.022372    2.099957    2.137275    2.347610    2.386869
 

........................................................................
.............................. CYCLE   21 ..............................
........................................................................
   1    -80.3836164 -0.803836E+02  0.255E-03    0.74       0.0  T
   2    -80.3836165 -0.158281E-06  0.126E-03    0.74      11.5  T
   3    -80.3836165 -0.658282E-08  0.687E-04    0.74      21.2  T
   4    -80.3836165 -0.713484E-09  0.157E-04    0.74      92.8  T
   5    -80.3836165 -0.464922E-09  0.347E-05    0.74     419.8  T
     SCC iter.                  ...        0 min,  0.021 sec
     gradient                   ...        0 min,  0.098 sec
 * total energy  :   -79.4930821 Eh     change       -0.2276954E-04 Eh
   gradient norm :     0.0023931 Eh/α   predicted     0.0000000E+00 (-100.00%)
   displ. norm   :     0.0243529 α      lambda       -0.1605565E-04
   maximum displ.:     0.0134737 α      in ANC's #4, #17, #3, ...

........................................................................
.............................. CYCLE   22 ..............................
........................................................................
   1    -80.3839960 -0.803840E+02  0.143E-03    0.74       0.0  T
   2    -80.3839961 -0.479446E-07  0.597E-04    0.74      24.4  T
   3    -80.3839961 -0.637171E-08  0.343E-04    0.74      42.5  T
   4    -80.3839961 -0.653003E-09  0.639E-05    0.74     228.4  T
   5    -80.3839961 -0.401457E-10  0.199E-05    0.74     733.6  T
     SCC iter.                  ...        0 min,  0.021 sec
     gradient                   ...        0 min,  0.098 sec
 * total energy  :   -79.4930956 Eh     change       -0.1358461E-04 Eh
   gradient norm :     0.0010422 Eh/α   predicted    -0.8387812E-05 ( -38.26%)
   displ. norm   :     0.1035424 α      lambda       -0.2713487E-04
   maximum displ.:     0.0585841 α      in ANC's #4, #17, #3, ...

........................................................................
.............................. CYCLE   23 ..............................
........................................................................
   1    -80.3844455 -0.803844E+02  0.388E-03    0.74       0.0  T
   2    -80.3844460 -0.485936E-06  0.159E-03    0.74       9.1  T
   3    -80.3844460 -0.705052E-07  0.786E-04    0.74      18.6  T
   4    -80.3844460 -0.273367E-08  0.182E-04    0.74      80.0  T
   5    -80.3844460 -0.275662E-09  0.567E-05    0.74     257.3  T
     SCC iter.                  ...        0 min,  0.022 sec
     gradient                   ...        0 min,  0.098 sec
 * total energy  :   -79.4931164 Eh     change       -0.2077672E-04 Eh
   gradient norm :     0.0023801 Eh/α   predicted    -0.1363220E-04 ( -34.39%)
   displ. norm   :     0.0348026 α      lambda       -0.9805895E-05
   maximum displ.:     0.0196757 α      in ANC's #4, #3, #1, ...

........................................................................
.............................. CYCLE   24 ..............................
........................................................................
   1    -80.3842672 -0.803843E+02  0.551E-04    0.74       0.0  T
   2    -80.3842672 -0.892157E-08  0.273E-04    0.74      53.5  T
   3    -80.3842672 -0.533774E-09  0.132E-04    0.74     110.6  T
   4    -80.3842672 -0.679847E-10  0.411E-05    0.74     354.8  T
     SCC iter.                  ...        0 min,  0.017 sec
     gradient                   ...        0 min,  0.100 sec
 * total energy  :   -79.4931254 Eh     change       -0.9002448E-05 Eh
   gradient norm :     0.0018535 Eh/α   predicted    -0.4909027E-05 ( -45.47%)
   displ. norm   :     0.2126374 α      lambda       -0.3550908E-04
   maximum displ.:     0.1162947 α      in ANC's #4, #3, #1, ...

........................................................................
.............................. CYCLE   25 ..............................
........................................................................
   1    -80.3831063 -0.803831E+02  0.343E-03    0.74       0.0  T
   2    -80.3831066 -0.277121E-06  0.145E-03    0.74      10.0  T
   3    -80.3831066 -0.111340E-07  0.740E-04    0.74      19.7  T
   4    -80.3831066 -0.263286E-08  0.216E-04    0.74      67.4  T
   5    -80.3831066 -0.501217E-09  0.481E-05    0.74     303.3  T
   6    -80.3831066 -0.491696E-10  0.176E-05    0.74     828.2  T
     SCC iter.                  ...        0 min,  0.026 sec
     gradient                   ...        0 min,  0.099 sec
 * total energy  :   -79.4931533 Eh     change       -0.2783610E-04 Eh
   gradient norm :     0.0022619 Eh/α   predicted    -0.1812081E-04 ( -34.90%)
   displ. norm   :     0.0446196 α      lambda       -0.8725304E-05
   maximum displ.:     0.0248695 α      in ANC's #4, #1, #3, ...

........................................................................
.............................. CYCLE   26 ..............................
........................................................................
   1    -80.3834063 -0.803834E+02  0.605E-04    0.74       0.0  T
   2    -80.3834063 -0.601135E-08  0.338E-04    0.74      43.2  T
   3    -80.3834063 -0.367194E-09  0.167E-04    0.74      87.6  T
   4    -80.3834063 -0.176385E-09  0.317E-05    0.74     459.8  T
     SCC iter.                  ...        0 min,  0.018 sec
     gradient                   ...        0 min,  0.098 sec
 * total energy  :   -79.4931613 Eh     change       -0.8044081E-05 Eh
   gradient norm :     0.0017258 Eh/α   predicted    -0.4373177E-05 ( -45.63%)
   displ. norm   :     0.2496758 α      lambda       -0.3205911E-04
   maximum displ.:     0.1363031 α      in ANC's #4, #1, #3, ...

........................................................................
.............................. CYCLE   27 ..............................
........................................................................
   1    -80.3844878 -0.803845E+02  0.303E-03    0.74       0.0  T
   2    -80.3844881 -0.251147E-06  0.172E-03    0.74       8.5  T
   3    -80.3844881 -0.207311E-07  0.951E-04    0.74      15.3  T
   4    -80.3844881 -0.347475E-08  0.214E-04    0.74      68.2  T
   5    -80.3844881 -0.635580E-09  0.591E-05    0.74     246.8  T
   6    -80.3844881 -0.774776E-10  0.227E-05    0.74     641.5  T
     SCC iter.                  ...        0 min,  0.026 sec
     gradient                   ...        0 min,  0.099 sec
 * total energy  :   -79.4931903 Eh     change       -0.2895882E-04 Eh
   gradient norm :     0.0018333 Eh/α   predicted    -0.1647396E-04 ( -43.11%)
   displ. norm   :     0.1671123 α      lambda       -0.1095190E-04
   maximum displ.:     0.0931463 α      in ANC's #4, #1, #3, ...

........................................................................
.............................. CYCLE   28 ..............................
........................................................................
   1    -80.3840655 -0.803841E+02  0.159E-03    0.74       0.0  T
   2    -80.3840655 -0.764755E-07  0.568E-04    0.74      25.7  T
   3    -80.3840655 -0.462211E-08  0.291E-04    0.74      50.1  T
   4    -80.3840655 -0.801066E-09  0.111E-04    0.74     131.0  T
   5    -80.3840655 -0.660378E-10  0.278E-05    0.74     524.9  T
     SCC iter.                  ...        0 min,  0.021 sec
     gradient                   ...        0 min,  0.100 sec
 * total energy  :   -79.4932033 Eh     change       -0.1307886E-04 Eh
   gradient norm :     0.0014026 Eh/α   predicted    -0.5547601E-05 ( -57.58%)
   displ. norm   :     0.1557812 α      lambda       -0.1250083E-04
   maximum displ.:     0.0859764 α      in ANC's #4, #1, #2, ...

........................................................................
.............................. CYCLE   29 ..............................
........................................................................
   1    -80.3841852 -0.803842E+02  0.161E-03    0.74       0.0  T
   2    -80.3841852 -0.823841E-07  0.619E-04    0.74      23.6  T
   3    -80.3841852 -0.509183E-08  0.328E-04    0.74      44.5  T
   4    -80.3841852 -0.665551E-09  0.121E-04    0.74     120.6  T
   5    -80.3841852 -0.816840E-10  0.343E-05    0.74     424.7  T
     SCC iter.                  ...        0 min,  0.022 sec
     gradient                   ...        0 min,  0.099 sec
 * total energy  :   -79.4932182 Eh     change       -0.1489797E-04 Eh
   gradient norm :     0.0007888 Eh/α   predicted    -0.6318471E-05 ( -57.59%)
   displ. norm   :     0.1793079 α      lambda       -0.1280210E-04
   maximum displ.:     0.0979702 α      in ANC's #4, #1, #2, ...

........................................................................
.............................. CYCLE   30 ..............................
........................................................................
   1    -80.3837834 -0.803838E+02  0.160E-03    0.74       0.0  T
   2    -80.3837835 -0.744405E-07  0.574E-04    0.74      25.4  T
   3    -80.3837835 -0.505058E-08  0.309E-04    0.74      47.3  T
   4    -80.3837835 -0.818076E-09  0.113E-04    0.74     129.3  T
   5    -80.3837835 -0.640483E-10  0.334E-05    0.74     436.3  T
     SCC iter.                  ...        0 min,  0.022 sec
     gradient                   ...        0 min,  0.100 sec
 * total energy  :   -79.4932332 Eh     change       -0.1493914E-04 Eh
   gradient norm :     0.0007813 Eh/α   predicted    -0.6496016E-05 ( -56.52%)
   displ. norm   :     0.1718573 α      lambda       -0.1128867E-04
   maximum displ.:     0.0909301 α      in ANC's #4, #1, #2, ...

........................................................................
.............................. CYCLE   31 ..............................
........................................................................
   1    -80.3837969 -0.803838E+02  0.142E-03    0.74       0.0  T
   2    -80.3837969 -0.494053E-07  0.582E-04    0.74      25.0  T
   3    -80.3837969 -0.319312E-08  0.308E-04    0.74      47.3  T
   4    -80.3837969 -0.532197E-09  0.896E-05    0.74     162.8  T
   5    -80.3837969 -0.754738E-10  0.277E-05    0.74     526.1  T
     SCC iter.                  ...        0 min,  0.022 sec
     gradient                   ...        0 min,  0.099 sec
 * total energy  :   -79.4932460 Eh     change       -0.1280399E-04 Eh
   gradient norm :     0.0009616 Eh/α   predicted    -0.5720375E-05 ( -55.32%)
   displ. norm   :     0.1649571 α      lambda       -0.8782341E-05
   maximum displ.:     0.0872865 α      in ANC's #4, #1, #2, ...

........................................................................
.............................. CYCLE   32 ..............................
........................................................................
   1    -80.3835054 -0.803835E+02  0.133E-03    0.74       0.0  T
   2    -80.3835055 -0.523745E-07  0.593E-04    0.74      24.6  T
   3    -80.3835055 -0.381839E-08  0.323E-04    0.74      45.1  T
   4    -80.3835055 -0.507086E-09  0.103E-04    0.74     141.9  T
   5    -80.3835055 -0.690363E-10  0.261E-05    0.74     559.2  T
     SCC iter.                  ...        0 min,  0.022 sec
     gradient                   ...        0 min,  0.099 sec
 * total energy  :   -79.4932561 Eh     change       -0.1016190E-04 Eh
   gradient norm :     0.0010031 Eh/α   predicted    -0.4445092E-05 ( -56.26%)
   displ. norm   :     0.1523821 α      lambda       -0.8695179E-05
   maximum displ.:     0.0802674 α      in ANC's #1, #2, #4, ...

........................................................................
.............................. CYCLE   33 ..............................
........................................................................
   1    -80.3837381 -0.803837E+02  0.139E-03    0.74       0.0  T
   2    -80.3837381 -0.824202E-07  0.638E-04    0.74      22.9  T
   3    -80.3837382 -0.699536E-08  0.348E-04    0.74      41.9  T
   4    -80.3837382 -0.644008E-09  0.139E-04    0.74     104.7  T
   5    -80.3837382 -0.654552E-10  0.309E-05    0.74     472.7  T
     SCC iter.                  ...        0 min,  0.022 sec
     gradient                   ...        0 min,  0.099 sec
 * total energy  :   -79.4932660 Eh     change       -0.9877978E-05 Eh
   gradient norm :     0.0008184 Eh/α   predicted    -0.4392841E-05 ( -55.53%)
   displ. norm   :     0.1541536 α      lambda       -0.8651274E-05
   maximum displ.:     0.0822888 α      in ANC's #1, #2, #4, ...

........................................................................
.............................. CYCLE   34 ..............................
........................................................................
   1    -80.3837347 -0.803837E+02  0.156E-03    0.74       0.0  T
   2    -80.3837348 -0.108512E-06  0.624E-04    0.74      23.4  T
   3    -80.3837348 -0.932206E-08  0.317E-04    0.74      46.0  T
   4    -80.3837348 -0.778655E-09  0.143E-04    0.74     101.7  T
   5    -80.3837348 -0.397193E-10  0.361E-05    0.74     403.6  T
     SCC iter.                  ...        0 min,  0.021 sec
     gradient                   ...        0 min,  0.099 sec
 * total energy  :   -79.4932762 Eh     change       -0.1017951E-04 Eh
   gradient norm :     0.0006719 Eh/α   predicted    -0.4373384E-05 ( -57.04%)
   displ. norm   :     0.1698291 α      lambda       -0.1052092E-04
   maximum displ.:     0.0937593 α      in ANC's #2, #1, #4, ...

........................................................................
.............................. CYCLE   35 ..............................
........................................................................
   1    -80.3840517 -0.803841E+02  0.194E-03    0.74       0.0  T
   2    -80.3840518 -0.157128E-06  0.724E-04    0.74      20.1  T
   3    -80.3840518 -0.135477E-07  0.357E-04    0.74      40.9  T
   4    -80.3840518 -0.127416E-08  0.157E-04    0.74      92.9  T
   5    -80.3840518 -0.456737E-10  0.442E-05    0.74     330.1  T
     SCC iter.                  ...        0 min,  0.019 sec
     gradient                   ...        0 min,  0.085 sec
 * total energy  :   -79.4932878 Eh     change       -0.1157797E-04 Eh
   gradient norm :     0.0008775 Eh/α   predicted    -0.5331800E-05 ( -53.95%)
   displ. norm   :     0.1773807 α      lambda       -0.9209765E-05
   maximum displ.:     0.1006482 α      in ANC's #2, #1, #4, ...

........................................................................
.............................. CYCLE   36 ..............................
........................................................................
   1    -80.3839497 -0.803839E+02  0.167E-03    0.74       0.0  T
   2    -80.3839498 -0.119528E-06  0.586E-04    0.73      24.9  T
   3    -80.3839498 -0.774837E-08  0.298E-04    0.73      48.9  T
   4    -80.3839498 -0.893991E-09  0.129E-04    0.73     113.5  T
   5    -80.3839498 -0.503633E-10  0.422E-05    0.73     345.5  T
     SCC iter.                  ...        0 min,  0.023 sec
     gradient                   ...        0 min,  0.107 sec
 * total energy  :   -79.4932983 Eh     change       -0.1056263E-04 Eh
   gradient norm :     0.0009386 Eh/α   predicted    -0.4670373E-05 ( -55.78%)
   displ. norm   :     0.1346467 α      lambda       -0.7921291E-05
   maximum displ.:     0.0814048 α      in ANC's #2, #1, #4, ...

........................................................................
.............................. CYCLE   37 ..............................
........................................................................
   1    -80.3842816 -0.803843E+02  0.131E-03    0.73       0.0  T
   2    -80.3842817 -0.791478E-07  0.477E-04    0.73      30.6  T
   3    -80.3842817 -0.406723E-08  0.245E-04    0.73      59.5  T
   4    -80.3842817 -0.498773E-09  0.113E-04    0.73     129.3  T
   5    -80.3842817 -0.836877E-10  0.344E-05    0.73     423.8  T
     SCC iter.                  ...        0 min,  0.019 sec
     gradient                   ...        0 min,  0.096 sec
 * total energy  :   -79.4933079 Eh     change       -0.9596504E-05 Eh
   gradient norm :     0.0007070 Eh/α   predicted    -0.3995110E-05 ( -58.37%)
   displ. norm   :     0.1662635 α      lambda       -0.8790348E-05
   maximum displ.:     0.1032842 α      in ANC's #2, #1, #4, ...

........................................................................
.............................. CYCLE   38 ..............................
........................................................................
   1    -80.3841208 -0.803841E+02  0.131E-03    0.73       0.0  T
   2    -80.3841209 -0.852111E-07  0.511E-04    0.73      28.5  T
   3    -80.3841209 -0.542329E-08  0.267E-04    0.73      54.6  T
   4    -80.3841209 -0.568846E-09  0.125E-04    0.73     116.8  T
   5    -80.3841209 -0.843556E-10  0.356E-05    0.73     410.3  T
     SCC iter.                  ...        0 min,  0.021 sec
     gradient                   ...        0 min,  0.081 sec
 * total energy  :   -79.4933181 Eh     change       -0.1019580E-04 Eh
   gradient norm :     0.0005386 Eh/α   predicted    -0.4450437E-05 ( -56.35%)
   displ. norm   :     0.1151208 α      lambda       -0.6913010E-05
   maximum displ.:     0.0772702 α      in ANC's #2, #1, #4, ...

........................................................................
.............................. CYCLE   39 ..............................
........................................................................
   1    -80.3845387 -0.803845E+02  0.109E-03    0.73       0.0  T
   2    -80.3845387 -0.401527E-07  0.484E-04    0.73      30.1  T
   3    -80.3845387 -0.248377E-08  0.262E-04    0.73      55.8  T
   4    -80.3845387 -0.332435E-09  0.107E-04    0.73     135.8  T
   5    -80.3845387 -0.982681E-10  0.220E-05    0.73     663.4  T
     SCC iter.                  ...        0 min,  0.019 sec
     gradient                   ...        0 min,  0.097 sec
 * total energy  :   -79.4933266 Eh     change       -0.8474394E-05 Eh
   gradient norm :     0.0006823 Eh/α   predicted    -0.3480481E-05 ( -58.93%)
   displ. norm   :     0.1551400 α      lambda       -0.9736126E-05
   maximum displ.:     0.1033085 α      in ANC's #2, #1, #4, ...

........................................................................
.............................. CYCLE   40 ..............................
........................................................................
   1    -80.3843900 -0.803844E+02  0.116E-03    0.73       0.0  T
   2    -80.3843900 -0.499067E-07  0.448E-04    0.73      32.6  T
   3    -80.3843900 -0.353032E-08  0.228E-04    0.73      63.9  T
   4    -80.3843900 -0.495390E-09  0.103E-04    0.73     142.1  T
   5    -80.3843900 -0.400036E-10  0.192E-05    0.73     759.4  T
     SCC iter.                  ...        0 min,  0.021 sec
     gradient                   ...        0 min,  0.097 sec
 * total energy  :   -79.4933394 Eh     change       -0.1283370E-04 Eh
   gradient norm :     0.0008705 Eh/α   predicted    -0.4922142E-05 ( -61.65%)
   displ. norm   :     0.1876475 α      lambda       -0.1331548E-04
   maximum displ.:     0.1273288 α      in ANC's #2, #1, #8, ...

........................................................................
.............................. CYCLE   41 ..............................
........................................................................
   1    -80.3842924 -0.803843E+02  0.157E-03    0.73       0.0  T
   2    -80.3842925 -0.103488E-06  0.687E-04    0.72      21.2  T
   3    -80.3842925 -0.740292E-08  0.343E-04    0.72      42.5  T
   4    -80.3842925 -0.780645E-09  0.145E-04    0.72     100.9  T
   5    -80.3842925 -0.682547E-10  0.259E-05    0.72     562.4  T
     SCC iter.                  ...        0 min,  0.021 sec
     gradient                   ...        0 min,  0.098 sec
 * total energy  :   -79.4933572 Eh     change       -0.1777675E-04 Eh
   gradient norm :     0.0009719 Eh/α   predicted    -0.6764050E-05 ( -61.95%)
   displ. norm   :     0.2608022 α      lambda       -0.1872256E-04
   maximum displ.:     0.1768205 α      in ANC's #2, #1, #8, ...

........................................................................
.............................. CYCLE   42 ..............................
........................................................................
   1    -80.3839512 -0.803840E+02  0.230E-03    0.72       0.0  T
   2    -80.3839515 -0.217733E-06  0.978E-04    0.72      14.9  T
   3    -80.3839515 -0.161047E-07  0.487E-04    0.72      30.0  T
   4    -80.3839515 -0.160362E-08  0.196E-04    0.72      74.3  T
   5    -80.3839515 -0.104436E-09  0.370E-05    0.72     394.6  T
     SCC iter.                  ...        0 min,  0.021 sec
     gradient                   ...        0 min,  0.094 sec
 * total energy  :   -79.4933807 Eh     change       -0.2346988E-04 Eh
   gradient norm :     0.0011251 Eh/α   predicted    -0.9647008E-05 ( -58.90%)
   displ. norm   :     0.2576751 α      lambda       -0.1682703E-04
   maximum displ.:     0.1786818 α      in ANC's #2, #1, #8, ...
 * RMSD in coord.:     0.4425207 α      energy gain  -0.3213993E-03 Eh

generating ANC from model Hessian ...
Using Lindh-Hessian (1995)
 Shifting diagonal of input Hessian by   9.786958548754301E-003
 Lowest  eigenvalues of input Hessian
    0.000000    0.000000    0.000000    0.000000    0.000000    0.000000
    0.010000    0.010058    0.010620    0.010763    0.011055    0.012106
    0.012373    0.013314    0.015050    0.015849    0.016504    0.018891
 Highest eigenvalues
    2.000677    2.023261    2.102285    2.137606    2.348639    2.388296
 

........................................................................
.............................. CYCLE   43 ..............................
........................................................................
   1    -80.3839590 -0.803840E+02  0.228E-03    0.72       0.0  T
   2    -80.3839592 -0.231317E-06  0.945E-04    0.72      15.4  T
   3    -80.3839592 -0.186345E-07  0.476E-04    0.72      30.6  T
   4    -80.3839592 -0.161884E-08  0.193E-04    0.72      75.6  T
   5    -80.3839592 -0.595008E-10  0.384E-05    0.72     379.7  T
     SCC iter.                  ...        0 min,  0.021 sec
     gradient                   ...        0 min,  0.095 sec
 * total energy  :   -79.4933984 Eh     change       -0.1773296E-04 Eh
   gradient norm :     0.0013511 Eh/α   predicted     0.0000000E+00 (-100.00%)
   displ. norm   :     0.0254770 α      lambda       -0.1869616E-05
   maximum displ.:     0.0110336 α      in ANC's #2, #10, #3, ...

........................................................................
.............................. CYCLE   44 ..............................
........................................................................
   1    -80.3845187 -0.803845E+02  0.131E-03    0.72       0.0  T
   2    -80.3845187 -0.204017E-07  0.709E-04    0.72      20.6  T
   3    -80.3845187 -0.836820E-09  0.328E-04    0.72      44.5  T
   4    -80.3845187 -0.786713E-09  0.665E-05    0.72     219.5  T
   5    -80.3845187 -0.600409E-10  0.149E-05    0.72     980.0  T
     SCC iter.                  ...        0 min,  0.020 sec
     gradient                   ...        0 min,  0.094 sec
 * total energy  :   -79.4934066 Eh     change       -0.8190386E-05 Eh
   gradient norm :     0.0004881 Eh/α   predicted    -0.3801168E-05 ( -53.59%)
   displ. norm   :     0.0547311 α      lambda       -0.8222390E-05
   maximum displ.:     0.0258716 α      in ANC's #2, #3, #10, ...

........................................................................
.............................. CYCLE   45 ..............................
........................................................................
   1    -80.3848002 -0.803848E+02  0.138E-03    0.72       0.0  T
   2    -80.3848002 -0.514604E-07  0.583E-04    0.72      25.0  T
   3    -80.3848002 -0.236849E-08  0.297E-04    0.72      49.1  T
   4    -80.3848002 -0.503064E-09  0.104E-04    0.72     140.5  T
   5    -80.3848002 -0.850804E-10  0.230E-05    0.72     633.6  T
     SCC iter.                  ...        0 min,  0.020 sec
     gradient                   ...        0 min,  0.094 sec
 * total energy  :   -79.4934157 Eh     change       -0.9112737E-05 Eh
   gradient norm :     0.0008367 Eh/α   predicted    -0.4117428E-05 ( -54.82%)
   displ. norm   :     0.0743108 α      lambda       -0.7345828E-05
   maximum displ.:     0.0385251 α      in ANC's #2, #3, #13, ...

........................................................................
.............................. CYCLE   46 ..............................
........................................................................
   1    -80.3847591 -0.803848E+02  0.149E-03    0.72       0.0  T
   2    -80.3847591 -0.680604E-07  0.515E-04    0.71      28.3  T
   3    -80.3847591 -0.289556E-08  0.261E-04    0.71      55.9  T
   4    -80.3847591 -0.472312E-09  0.985E-05    0.71     148.1  T
   5    -80.3847591 -0.701590E-10  0.274E-05    0.71     532.8  T
     SCC iter.                  ...        0 min,  0.020 sec
     gradient                   ...        0 min,  0.094 sec
 * total energy  :   -79.4934234 Eh     change       -0.7728480E-05 Eh
   gradient norm :     0.0008224 Eh/α   predicted    -0.3685498E-05 ( -52.31%)
   displ. norm   :     0.0632835 α      lambda       -0.4693334E-05
   maximum displ.:     0.0365254 α      in ANC's #2, #3, #1, ...

........................................................................
.............................. CYCLE   47 ..............................
........................................................................
   1    -80.3846269 -0.803846E+02  0.113E-03    0.71       0.0  T
   2    -80.3846270 -0.393463E-07  0.384E-04    0.71      38.0  T
   3    -80.3846270 -0.158032E-08  0.188E-04    0.71      77.8  T
   4    -80.3846270 -0.170928E-09  0.699E-05    0.71     208.6  T
     SCC iter.                  ...        0 min,  0.016 sec
     gradient                   ...        0 min,  0.094 sec
 * total energy  :   -79.4934288 Eh     change       -0.5365264E-05 Eh
   gradient norm :     0.0005967 Eh/α   predicted    -0.2351336E-05 ( -56.17%)
   displ. norm   :     0.0681777 α      lambda       -0.4779167E-05
   maximum displ.:     0.0415349 α      in ANC's #2, #3, #1, ...

........................................................................
.............................. CYCLE   48 ..............................
........................................................................
   1    -80.3844568 -0.803845E+02  0.107E-03    0.71       0.0  T
   2    -80.3844568 -0.358384E-07  0.435E-04    0.71      33.5  T
   3    -80.3844568 -0.178696E-08  0.230E-04    0.71      63.5  T
   4    -80.3844568 -0.249713E-09  0.895E-05    0.71     162.9  T
   5    -80.3844568 -0.868425E-10  0.186E-05    0.71     786.2  T
     SCC iter.                  ...        0 min,  0.020 sec
     gradient                   ...        0 min,  0.094 sec
 * total energy  :   -79.4934343 Eh     change       -0.5513902E-05 Eh
   gradient norm :     0.0004549 Eh/α   predicted    -0.2395486E-05 ( -56.56%)
   displ. norm   :     0.0726787 α      lambda       -0.4647406E-05
   maximum displ.:     0.0457492 α      in ANC's #2, #3, #1, ...

........................................................................
.............................. CYCLE   49 ..............................
........................................................................
   1    -80.3843491 -0.803843E+02  0.939E-04    0.72       0.0  T
   2    -80.3843491 -0.347498E-07  0.403E-04    0.71      36.2  T
   3    -80.3843491 -0.193788E-08  0.223E-04    0.71      65.4  T
   4    -80.3843491 -0.212182E-09  0.950E-05    0.71     153.6  T
   5    -80.3843491 -0.794671E-10  0.163E-05    0.71     893.5  T
     SCC iter.                  ...        0 min,  0.021 sec
     gradient                   ...        0 min,  0.094 sec
 * total energy  :   -79.4934396 Eh     change       -0.5284375E-05 Eh
   gradient norm :     0.0005638 Eh/α   predicted    -0.2329929E-05 ( -55.91%)
   displ. norm   :     0.0704581 α      lambda       -0.4099457E-05
   maximum displ.:     0.0449921 α      in ANC's #2, #3, #1, ...

........................................................................
.............................. CYCLE   50 ..............................
........................................................................
   1    -80.3843392 -0.803843E+02  0.846E-04    0.71       0.0  T
   2    -80.3843392 -0.247441E-07  0.351E-04    0.71      41.5  T
   3    -80.3843392 -0.238543E-08  0.185E-04    0.71      79.0  T
   4    -80.3843392 -0.223508E-09  0.801E-05    0.71     182.1  T
     SCC iter.                  ...        0 min,  0.016 sec
     gradient                   ...        0 min,  0.094 sec
 * total energy  :   -79.4934445 Eh     change       -0.4846855E-05 Eh
   gradient norm :     0.0005840 Eh/α   predicted    -0.2054414E-05 ( -57.61%)
   displ. norm   :     0.0796398 α      lambda       -0.4283851E-05
   maximum displ.:     0.0505983 α      in ANC's #2, #1, #3, ...

   *** GEOMETRY OPTIMIZATION CONVERGED AFTER 50 ITERATIONS ***

------------------------------------------------------------------------
 total energy gain   :        -0.0218509 Eh      -13.7116 kcal/mol
 total RMSD          :         1.0200999 a0        0.5398 Å
 total power (kW/mol):        -1.1473889 (step)   -6.9256 (real)
------------------------------------------------------------------------

 ANCopt (total)                0 d,  0 h,  0 min,  8.284 sec
 optimizer setup                ...        0 min,  0.001 sec (  0.011%)
 model hessian                  ...        0 min,  0.119 sec (  1.442%)
 ANC generation                 ...        0 min,  0.010 sec (  0.118%)
 coordinate transformation      ...        0 min,  0.002 sec (  0.027%)
 single point calculation       ...        0 min,  8.121 sec ( 98.033%)
 optimization log               ...        0 min,  0.016 sec (  0.188%)
 hessian update                 ...        0 min,  0.002 sec (  0.022%)
 rational function              ...        0 min,  0.008 sec (  0.092%)

================
 final structure:
================
47
 xtb: 6.5.1 (579679a)
C           -3.64669225262434        1.36606771017217       -1.93140785921370
N           -2.46171302315567        0.62639702611464       -1.48513623402470
C           -1.71842265612765        0.04611054026686       -2.58676833364621
O           -2.01686136398999        0.32302861554132       -3.70635748447230
C           -0.69975986435827       -0.99247262544180       -2.17241166480147
C           -1.51658945987974       -2.32129927903548       -2.02978071438783
O            0.25614942087812       -1.11447834275508       -3.16570017482424
C           -0.16964709776511       -0.70851257014475       -0.80339019309824
C            1.14086076835691       -1.30973206236558       -0.37358837514712
O            1.81989390376594       -1.97629220465272       -1.14374377309309
N            1.44316947997844       -1.06609993960174        0.90199646460062
C            2.65680714478720       -1.59627966539446        1.51938699163212
C            3.77495382566713       -0.58109252274435        1.41765986232667
C            4.08258625442074        0.23612946626144        2.50179493689832
C            5.09527883526057        1.18052212729372        2.40484081039715
C            5.77905204561782        1.28778382916433        1.20710183292166
F            6.75493603770137        2.20079564796931        1.10324789899221
C            5.49489292492957        0.49281484462653        0.11052093171575
C            4.48149775076026       -0.44751632254756        0.22421270617626
N           -0.87331625348723       -0.07312155878823        0.07195885673105
C           -2.06287812056638        0.51801906541087       -0.23226309546433
C           -2.84544109538864        0.99664067714022        0.97021770457884
C           -1.98369861315986        0.92345324384680        2.23828008544988
C           -4.05869588016026        0.05831888251784        1.11395226465079
N           -3.31308346237774        2.35655828138528        0.75802131994224
H           -4.39961674745035        0.64432503870967       -2.24631554918683
H           -3.35935772845745        1.98570248533288       -2.78068786291843
H           -4.01616997801688        1.98306500947855       -1.11728423372867
H           -1.94745559973427       -2.55417289112307       -3.00150857856723
H           -0.82769280220608       -3.11003667563889       -1.73672492743102
H           -2.29983571231611       -2.21681006225919       -1.28445538945672
H            1.01431868994821       -1.63628055937837       -2.83119597384983
H            0.82310333647260       -0.49536946040419        1.45493185920308
H            2.42347643957743       -1.81980339232941        2.56163885807980
H            2.91881842791513       -2.51747753454317        0.99127487391608
H            3.52968077912133        0.13607151845992        3.42766235603214
H            5.34595884800814        1.82218715952820        3.23920610550313
H            6.05320130241659        0.60951904584617       -0.80951833016451
H            4.23512936645151       -1.08157613864882       -0.61927045827837
H           -2.56037204422818        1.30438381914567        3.07913800845819
H           -1.69110606588308       -0.10467901529996        2.44248313014753
H           -1.08845830769743        1.53023972584712        2.11907410492055
H           -3.72632893652695       -0.97416922610369        1.20537422072210
H           -4.60647538055424        0.33631562102193        2.01269393200470
H           -4.71984016405818        0.14741777075618        0.25468974096998
H           -2.53406314099212        2.99635432169131        0.82488309203918
H           -3.98019783087729        2.58905157566942        1.48011325674121
 
 Bond Distances (Angstroems)
 ---------------------------
C1-N2=1.4664         C1-H26=1.0895        C1-H27=1.0899        C1-H28=1.0863        N2-C1=1.4664         N2-C3=1.4501         
N2-C21=1.3193        C3-N2=1.4501         C3-O4=1.1913         C3-C5=1.5126         O4-C3=1.1913         C5-C3=1.5126         
C5-C6=1.5663         C5-O7=1.3839         C5-C8=1.4953         C6-C5=1.5663         C6-H29=1.0882        C6-H30=1.0875        
C6-H31=1.0862        O7-C5=1.3839         O7-H32=0.9793        C8-C5=1.4953         C8-C9=1.5045         C8-N20=1.2904        
C9-C8=1.5045         C9-O10=1.2241        C9-N11=1.3334        O10-C9=1.2241        N11-C9=1.3334        N11-C12=1.4612       
N11-H33=1.0079       C12-N11=1.4612       C12-C13=1.5137       C12-H34=1.0912       C12-H35=1.0937       C13-C12=1.5137       
C13-C14=1.3921       C13-C19=1.3933       C14-C13=1.3921       C14-C15=1.3881       C14-H36=1.0830       C15-C14=1.3881       
C15-C16=1.3833       C15-H37=1.0820       C16-C15=1.3833       C16-F17=1.3404       C16-C18=1.3839       F17-C16=1.3404       
C18-C16=1.3839       C18-C19=1.3871       C18-H38=1.0825       C19-C13=1.3933       C19-C18=1.3871       C19-H39=1.0836       
N20-C8=1.2904        N20-C21=1.3627       C21-N2=1.3193        C21-N20=1.3627       C21-C22=1.5124       C22-C21=1.5124       
C22-C23=1.5349       C22-C24=1.5405       C22-N25=1.4536       C23-C22=1.5349       C23-H40=1.0884       C23-H41=1.0883       
C23-H42=1.0881       C24-C22=1.5405       C24-H43=1.0885       C24-H44=1.0886       C24-H45=1.0878       N25-C22=1.4536       
N25-H46=1.0103       N25-H47=1.0102       H26-C1=1.0895        H27-C1=1.0899        H28-C1=1.0863        H29-C6=1.0882        
H30-C6=1.0875        H31-C6=1.0862        H32-O7=0.9793        H33-N11=1.0079       H34-C12=1.0912       H35-C12=1.0937       
H36-C14=1.0830       H37-C15=1.0820       H38-C18=1.0825       H39-C19=1.0836       H40-C23=1.0884       H41-C23=1.0883       
H42-C23=1.0881       H43-C24=1.0885       H44-C24=1.0886       H45-C24=1.0878       H46-N25=1.0103       H47-N25=1.0102       
 C  H  Rav=1.0874 sigma=0.0030  Rmin=1.0820  Rmax=1.0937    18
 C  C  Rav=1.4649 sigma=0.0686  Rmin=1.3833  Rmax=1.5663    14
 N  H  Rav=1.0095 sigma=0.0011  Rmin=1.0079  Rmax=1.0103     3
 N  C  Rav=1.3921 sigma=0.0684  Rmin=1.2904  Rmax=1.4664     8
 O  H  Rav=0.9793 sigma=0.0000  Rmin=0.9793  Rmax=0.9793     1
 O  C  Rav=1.2665 sigma=0.0841  Rmin=1.1913  Rmax=1.3839     3
 F  C  Rav=1.3404 sigma=0.0000  Rmin=1.3404  Rmax=1.3404     1
 
 selected bond angles (degree)
 --------------------
H26-C1-N2=108.20               H27-C1-N2=108.11               H27-C1-H26=109.49              H28-C1-N2=109.47               
H28-C1-H26=110.97              H28-C1-H27=110.53              C3-N2-C1=112.63                C21-N2-C1=125.08               
C21-N2-C3=122.25               O4-C3-N2=119.51                C5-C3-N2=114.32                C5-C3-O4=125.86                
C6-C5-C3=104.85                O7-C5-C3=109.21                O7-C5-C6=110.53                C8-C5-C3=111.05                
C8-C5-C6=105.23                C8-C5-O7=115.40                H29-C6-C5=107.86               H30-C6-C5=108.03               
H30-C6-H29=109.65              H31-C6-C5=110.91               H31-C6-H29=110.35              H31-C6-H30=109.98              
H32-O7-C5=109.67               C9-C8-C5=119.63                N20-C8-C5=121.42               N20-C8-C9=118.55               
O10-C9-C8=121.40               N11-C9-C8=113.44               N11-C9-O10=125.14              
 
 selected dihedral angles (degree)
 ---------------------------------
C3-N2-C1-H26= 73.39           C3-N2-C1-H27=314.90           C3-N2-C1-H28=194.44           C21-N2-C1-H26=251.28          
C21-N2-C1-H27=132.79          C21-N2-C1-H28= 12.32          O4-C3-N2-C1=  8.11            O4-C3-N2-C21=190.16           
C5-C3-N2-C1=194.20            C5-C3-N2-C21= 16.24           C6-C5-C3-N2= 83.32            C6-C5-C3-O4=269.85            
O7-C5-C3-N2=201.78            O7-C5-C3-O4= 28.32            C8-C5-C3-N2=330.17            C8-C5-C3-O4=156.70            
H29-C6-C5-C3= 61.22           H29-C6-C5-O7=303.65           H29-C6-C5-C8=178.43           H30-C6-C5-C3=179.67           
H30-C6-C5-O7= 62.10           H30-C6-C5-C8=296.88           H31-C6-C5-C3=300.27           H31-C6-C5-O7=182.70           
H31-C6-C5-C8= 57.48           H32-O7-C5-C3=168.09           H32-O7-C5-C6=282.94           H32-O7-C5-C8= 42.17           
C9-C8-C5-C3=200.13            C9-C8-C5-C6= 87.22            C9-C8-C5-O7=325.10            N20-C8-C5-C3= 27.46           
N20-C8-C5-C6=274.55           N20-C8-C5-O7=152.43           O10-C9-C8-C5=  3.64           O10-C9-C8-N20=176.53          
N11-C9-C8-C5=185.13           N11-C9-C8-N20=358.01          
           -------------------------------------------------
          |                Final Singlepoint                |
           -------------------------------------------------

          ...................................................
          :                      SETUP                      :
          :.................................................:
          :  # basis functions                 144          :
          :  # atomic orbitals                 144          :
          :  # shells                           94          :
          :  # electrons                       134          :
          :  # halogen bonds                     0          :
          :  max. iterations                   250          :
          :  Hamiltonian                  GFN1-xTB          :
          :  restarted?                      false          :
          :  GBSA solvation                   true          :
          :  PC potential                    false          :
          :  electronic temp.          300.0000000     K    :
          :  accuracy                    1.0000000          :
          :  -> integral cutoff          0.2500000E+02      :
          :  -> integral neglect         0.1000000E-07      :
          :  -> SCF convergence          0.1000000E-05 Eh   :
          :  -> wf. convergence          0.2000000E-04 e    :
          :  Broyden damping             0.4000000          :
          ...................................................

 iter      E             dE          RMSdq      gap      omega  full diag
   1    -80.3843392 -0.803843E+02  0.113E-05    0.71       0.0  T
   2    -80.3843392 -0.152056E-11  0.549E-06    0.71    2655.2  T
   3    -80.3843392 -0.213163E-12  0.281E-06    0.71    5188.0  T

   *** convergence criteria satisfied after 3 iterations ***

         #    Occupation            Energy/Eh            Energy/eV
      -------------------------------------------------------------
         1        2.0000           -0.8864696             -24.1221
       ...           ...                  ...                  ...
        61        2.0000           -0.4939417             -13.4408
        62        2.0000           -0.4810133             -13.0890
        63        2.0000           -0.4743702             -12.9083
        64        2.0000           -0.4714639             -12.8292
        65        2.0000           -0.4592445             -12.4967
        66        2.0000           -0.4464077             -12.1474
        67        2.0000           -0.4419374             -12.0257 (HOMO)
        68        0.0000           -0.4156910             -11.3115 (LUMO)
        69                         -0.3442222              -9.3668
        70                         -0.3012958              -8.1987
        71                         -0.2811142              -7.6495
        72                         -0.2763472              -7.5198
       ...                                ...                  ...
       144                          0.6949651              18.9110
      -------------------------------------------------------------
                  HL-Gap            0.0262464 Eh            0.7142 eV
             Fermi-level           -0.4288099 Eh          -11.6685 eV

 SCC (total)                   0 d,  0 h,  0 min,  0.150 sec
 SCC setup                      ...        0 min,  0.002 sec (  1.475%)
 Dispersion                     ...        0 min,  0.000 sec (  0.274%)
 classical contributions        ...        0 min,  0.000 sec (  0.093%)
 integral evaluation            ...        0 min,  0.040 sec ( 26.453%)
 iterations                     ...        0 min,  0.012 sec (  8.308%)
 molecular gradient             ...        0 min,  0.094 sec ( 62.726%)
 printout                       ...        0 min,  0.001 sec (  0.635%)

         :::::::::::::::::::::::::::::::::::::::::::::::::::::
         ::                     SUMMARY                     ::
         :::::::::::::::::::::::::::::::::::::::::::::::::::::
         :: total energy             -79.493444457165 Eh    ::
         :: total w/o Gsasa/hb       -79.466897688725 Eh    ::
         :: gradient norm              0.000585028712 Eh/a0 ::
         :: HOMO-LUMO gap              0.714201008687 eV    ::
         ::.................................................::
         :: SCC energy               -80.384339213363 Eh    ::
         :: -> electrostatic           0.316324111925 Eh    ::
         :: -> Gsolv                  -0.109498462222 Eh    ::
         ::    -> Gelec               -0.082951693782 Eh    ::
         ::    -> Gsasa               -0.024602007828 Eh    ::
         ::    -> Ghb                 -0.009569039617 Eh    ::
         ::    -> Gshift               0.007624279005 Eh    ::
         :: repulsion energy           0.922031177822 Eh    ::
         :: dispersion energy         -0.031136421624 Eh    ::
         :: halogen bond corr.         0.000000000000 Eh    ::
         :: add. restraining           0.000000000000 Eh    ::
         :: total charge               1.000000000000 e     ::
         :::::::::::::::::::::::::::::::::::::::::::::::::::::

           -------------------------------------------------
          |                Property Printout                |
           -------------------------------------------------

    * Orbital Energies and Occupations

         #    Occupation            Energy/Eh            Energy/eV
      -------------------------------------------------------------
         1        2.0000           -0.8864696             -24.1221
       ...           ...                  ...                  ...
        55        2.0000           -0.5218696             -14.2008
        56        2.0000           -0.5207304             -14.1698
        57        2.0000           -0.5183415             -14.1048
        58        2.0000           -0.5157315             -14.0338
        59        2.0000           -0.5135171             -13.9735
        60        2.0000           -0.5109716             -13.9042
        61        2.0000           -0.4939417             -13.4408
        62        2.0000           -0.4810133             -13.0890
        63        2.0000           -0.4743702             -12.9083
        64        2.0000           -0.4714639             -12.8292
        65        2.0000           -0.4592445             -12.4967
        66        2.0000           -0.4464077             -12.1474
        67        2.0000           -0.4419374             -12.0257 (HOMO)
        68        0.0000           -0.4156910             -11.3115 (LUMO)
        69                         -0.3442222              -9.3668
        70                         -0.3012958              -8.1987
        71                         -0.2811142              -7.6495
        72                         -0.2763472              -7.5198
        73                         -0.2446922              -6.6584
        74                         -0.1619502              -4.4069
        75                         -0.1547974              -4.2123
        76                         -0.1537497              -4.1837
        77                         -0.1452597              -3.9527
        78                         -0.1415299              -3.8512
       ...                                ...                  ...
       144                          0.6949651              18.9110
      -------------------------------------------------------------
                  HL-Gap            0.0262464 Eh            0.7142 eV
             Fermi-level           -0.4288099 Eh          -11.6685 eV

  Mulliken/CM5 charges         n(s)   n(p)   n(d)
     1C     0.03538 -0.05203   1.005  2.959  0.000
     2N    -0.16258 -0.41365   1.466  3.697  0.000
     3C     0.48832  0.58313   1.029  2.482  0.000
     4O    -0.45302 -0.50060   1.716  4.737  0.000
     5C     0.22956  0.24970   1.029  2.741  0.000
     6C    -0.09760 -0.23878   1.038  3.059  0.000
     7O    -0.56153 -0.75603   1.694  4.867  0.000
     8C     0.18874  0.28001   1.113  2.698  0.000
     9C     0.46894  0.57754   0.973  2.558  0.000
    10O    -0.56537 -0.62601   1.724  4.841  0.000
    11N    -0.28552 -0.64634   1.433  3.853  0.000
    12C     0.08883  0.04473   1.014  2.897  0.000
    13C    -0.01738 -0.02680   1.084  2.934  0.000
    14C    -0.03021 -0.08317   1.064  2.966  0.000
    15C    -0.06184 -0.11277   1.059  3.003  0.000
    16C     0.24953  0.26091   1.046  2.704  0.000
    17F    -0.26809 -0.29237   1.828  5.440  0.000
    18C    -0.06307 -0.11390   1.060  3.003  0.000
    19C    -0.02395 -0.07613   1.065  2.959  0.000
    20N    -0.33341 -0.53277   1.520  3.813  0.000
    21C     0.33607  0.48371   1.059  2.605  0.000
    22C     0.14875  0.18364   1.066  2.785  0.000
    23C    -0.11691 -0.25690   1.027  3.090  0.000
    24C    -0.10434 -0.24581   1.027  3.077  0.000
    25N    -0.50572 -0.97307   1.474  4.032  0.000
    26H     0.08839  0.15262   0.912  0.000  0.000
    27H     0.09455  0.16301   0.905  0.000  0.000
    28H     0.08328  0.16183   0.917  0.000  0.000
    29H     0.09067  0.14755   0.909  0.000  0.000
    30H     0.08812  0.14536   0.912  0.000  0.000
    31H     0.06069  0.11907   0.939  0.000  0.000
    32H     0.40103  0.58697   0.599  0.000  0.000
    33H     0.26416  0.46937   0.736  0.000  0.000
    34H     0.06639  0.13243   0.934  0.000  0.000
    35H     0.07688  0.14744   0.923  0.000  0.000
    36H     0.05402  0.11130   0.946  0.000  0.000
    37H     0.06626  0.12339   0.934  0.000  0.000
    38H     0.06486  0.12195   0.935  0.000  0.000
    39H     0.05770  0.11842   0.942  0.000  0.000
    40H     0.06670  0.12241   0.933  0.000  0.000
    41H     0.05307  0.11148   0.947  0.000  0.000
    42H     0.05443  0.11318   0.946  0.000  0.000
    43H     0.05725  0.11221   0.943  0.000  0.000
    44H     0.07716  0.13255   0.923  0.000  0.000
    45H     0.05673  0.11482   0.943  0.000  0.000
    46H     0.24363  0.43511   0.756  0.000  0.000
    47H     0.25042  0.44130   0.750  0.000  0.000

Wiberg/Mayer (AO) data.
largest (>0.10) Wiberg bond orders for each atom

 ---------------------------------------------------------------------------
     #   Z sym  total        # sym  WBO       # sym  WBO       # sym  WBO
 ---------------------------------------------------------------------------
     1   6 C    3.880 --    27 H    0.967    26 H    0.964    28 H    0.957
                             2 N    0.906
     2   7 N    3.567 --    21 C    1.441     3 C    0.958     1 C    0.906
     3   6 C    3.853 --     4 O    1.801     2 N    0.958     5 C    0.952
     4   8 O    2.047 --     3 C    1.801
     5   6 C    3.944 --     7 O    1.006     8 C    0.997     3 C    0.952
                             6 C    0.868
     6   6 C    3.967 --    31 H    0.986    30 H    0.976    29 H    0.974
                             5 C    0.868
     7   8 O    1.917 --     5 C    1.006    32 H    0.797
     8   6 C    3.904 --    20 N    1.623     5 C    0.997     9 C    0.974
     9   6 C    3.921 --    10 O    1.555    11 N    1.317     8 C    0.974
    10   8 O    1.935 --     9 C    1.555    11 N    0.201
    11   7 N    3.433 --     9 C    1.317    12 C    0.924    33 H    0.888
                            10 O    0.201
    12   6 C    3.923 --    13 C    0.985    34 H    0.972    35 H    0.967
                            11 N    0.924
    13   6 C    3.983 --    14 C    1.422    19 C    1.415    12 C    0.985
    14   6 C    3.992 --    15 C    1.441    13 C    1.422    36 H    0.970
                            18 C    0.110
    15   6 C    3.990 --    14 C    1.441    16 C    1.401    37 H    0.968
                            19 C    0.111
    16   6 C    3.862 --    15 C    1.401    18 C    1.397    17 F    0.931
    17   9 F    1.060 --    16 C    0.931
    18   6 C    3.991 --    19 C    1.447    16 C    1.397    38 H    0.969
                            14 C    0.110
    19   6 C    3.992 --    18 C    1.447    13 C    1.415    39 H    0.969
                            15 C    0.111
    20   7 N    3.073 --     8 C    1.623    21 C    1.195
    21   6 C    3.872 --     2 N    1.441    20 N    1.195    22 C    0.990
    22   6 C    3.955 --    21 C    0.990    23 C    0.986    25 N    0.986
                            24 C    0.949
    23   6 C    3.988 --    22 C    0.986    42 H    0.983    40 H    0.982
                            41 H    0.982
    24   6 C    3.985 --    43 H    0.984    45 H    0.983    44 H    0.975
                            22 C    0.949
    25   7 N    3.007 --    22 C    0.986    46 H    0.929    47 H    0.925
    26   1 H    0.994 --     1 C    0.964
    27   1 H    0.998 --     1 C    0.967
    28   1 H    1.020 --     1 C    0.957
    29   1 H    0.995 --     6 C    0.974
    30   1 H    0.995 --     6 C    0.976
    31   1 H    0.995 --     6 C    0.986
    32   1 H    0.856 --     7 O    0.797
    33   1 H    0.944 --    11 N    0.888
    34   1 H    0.998 --    12 C    0.972
    35   1 H    1.002 --    12 C    0.967
    36   1 H    0.998 --    14 C    0.970
    37   1 H    0.996 --    15 C    0.968
    38   1 H    0.997 --    18 C    0.969
    39   1 H    1.005 --    19 C    0.969
    40   1 H    0.998 --    23 C    0.982
    41   1 H    1.005 --    23 C    0.982
    42   1 H    1.003 --    23 C    0.983
    43   1 H    0.998 --    24 C    0.984
    44   1 H    0.993 --    24 C    0.975
    45   1 H    0.998 --    24 C    0.983
    46   1 H    0.944 --    25 N    0.929
    47   1 H    0.940 --    25 N    0.925
 ---------------------------------------------------------------------------

Topologies differ in total number of bonds
Writing topology from bond orders to xtbtopo.mol

 dipole moment from electron density (au)
     X       Y       Z   
  -4.4192   0.0490   2.9517  total (Debye):   13.508

           -------------------------------------------------
          |                Geometry Summary                 |
           -------------------------------------------------

      molecular mass/u    :      349.3806376
   center of mass at/Å    :        0.5914397       0.0363592      -0.1491696
  moments of inertia/u·Å² :        0.1433367E+04   0.4490679E+04   0.5061013E+04
rotational constants/cm⁻¹ :        0.1176087E-01   0.3753916E-02   0.3330881E-02

 * 41 selected distances

     #   Z          #   Z                                           value/Å
     1   6 C        2   7 N                                       1.4664403
     3   6 C        4   8 O                                       1.1913142
     5   6 C        7   8 O                                       1.3839329
     9   6 C       10   8 O                                       1.2241438
     9   6 C       11   7 N                                       1.3333657
    11   7 N       12   6 C                                       1.4612250
    13   6 C       14   6 C                                       1.3920628
    14   6 C       15   6 C                                       1.3881009
    15   6 C       16   6 C                                       1.3833401
    16   6 C       17   9 F                                       1.3404201
    16   6 C       18   6 C                                       1.3839119
    13   6 C       19   6 C                                       1.3933282
    18   6 C       19   6 C                                       1.3871260
     8   6 C       20   7 N                                       1.2903907
     2   7 N       21   6 C                                       1.3192826
    20   7 N       21   6 C                                       1.3627384
    22   6 C       23   6 C                                       1.5349069
    22   6 C       24   6 C                                       1.5404853 (max)
    22   6 C       25   7 N                                       1.4536482
     1   6 C       26   1 H                                       1.0894838
     1   6 C       27   1 H                                       1.0898556
     1   6 C       28   1 H                                       1.0862766
     6   6 C       29   1 H                                       1.0881778
     6   6 C       30   1 H                                       1.0874591
     6   6 C       31   1 H                                       1.0862333
     7   8 O       32   1 H                                       0.9792811 (min)
    11   7 N       33   1 H                                       1.0079450
    12   6 C       34   1 H                                       1.0911898
    12   6 C       35   1 H                                       1.0936901
    14   6 C       36   1 H                                       1.0830267
    15   6 C       37   1 H                                       1.0820075
    18   6 C       38   1 H                                       1.0824974
    19   6 C       39   1 H                                       1.0836020
    23   6 C       40   1 H                                       1.0884405
    23   6 C       41   1 H                                       1.0882856
    23   6 C       42   1 H                                       1.0880512
    24   6 C       43   1 H                                       1.0885117
    24   6 C       44   1 H                                       1.0886144
    24   6 C       45   1 H                                       1.0878339
    25   7 N       46   1 H                                       1.0102882
    25   7 N       47   1 H                                       1.0102038

 * 7 distinct bonds (by element types)

   Z      Z             #   av. dist./Å        max./Å        min./Å
   1 H    6 C          18     1.0874020     1.0936901     1.0820075
   6 C    6 C           8     1.4254078     1.5404853     1.3833401
   1 H    7 N           3     1.0094790     1.0102882     1.0079450
   6 C    7 N           7     1.3838701     1.4664403     1.2903907
   1 H    8 O           1     0.9792811     0.9792811     0.9792811
   6 C    8 O           3     1.2664636     1.3839329     1.1913142
   6 C    9 F           1     1.3404201     1.3404201     1.3404201


optimized geometry written to: xtbopt.xyz


           -------------------------------------------------
          | TOTAL ENERGY              -79.493444457165 Eh   |
          | GRADIENT NORM               0.000585028712 Eh/α |
          | HOMO-LUMO GAP               0.714201008687 eV   |
           -------------------------------------------------

------------------------------------------------------------------------
 * finished run on 2023/06/20 at 15:33:27.954     
------------------------------------------------------------------------
 total:
 * wall-time:     0 d,  0 h,  0 min,  8.774 sec
 *  cpu-time:     0 d,  0 h,  0 min,  8.667 sec
 * ratio c/w:     0.988 speedup
 SCF:
 * wall-time:     0 d,  0 h,  0 min,  0.210 sec
 *  cpu-time:     0 d,  0 h,  0 min,  0.197 sec
 * ratio c/w:     0.936 speedup
 ANC optimizer:
 * wall-time:     0 d,  0 h,  0 min,  8.440 sec
 *  cpu-time:     0 d,  0 h,  0 min,  8.416 sec
 * ratio c/w:     0.997 speedup

