42
 energy: -83.581057820282 gnorm: 0.000969213736 xtb: 6.5.1 (579679a)
C           -4.20130498795149       -0.96331158241075       -1.23560351020834
O           -4.01400329071680        0.44517956506224       -1.34734545416727
C           -3.80840155366780        1.14184864906160       -0.16668914652713
O           -4.85497444570774        1.97816723811552        0.20504597204760
C           -5.95435092326695        2.06859479206207       -0.66984767625101
C           -2.65106887232324        1.03444660913457        0.57583151760386
N           -1.70759140301267        0.13862228893650        0.05467429683168
C           -0.59372323632108       -0.04843577464721        0.67974935663004
C            0.41811161397518       -1.05817289363402        0.15948652089530
C            0.22306120430497       -1.26584733866194       -1.34930437102712
C            0.19011386137997       -2.37573588840261        0.91923606199668
N            1.75216779036153       -0.52646964487162        0.45251423502150
C            2.90132367195158       -1.20305110144446       -0.01366281106230
O            2.91960578186452       -2.43249448538802       -0.25228581574247
C            4.01475141420354       -0.32353191466888       -0.10678662496910
N            4.00399908597526        0.99916624171996        0.12216499579215
N            5.28059211228059        1.44048582038093       -0.10216310206714
C            5.99000388541609        0.41688075023672       -0.44613909631304
C            7.43355634950774        0.40507344489664       -0.79435032269008
O            5.28273504755742       -0.73969338060081       -0.47962539105111
N           -0.29241325735922        0.58428002836009        1.84409064753706
C           -1.13679686615839        1.51595189233676        2.47330512543741
O           -0.72477940650416        2.03142656692780        3.54672294537333
C           -2.39652813561246        1.77607647270273        1.81161069962375
O           -3.23340627881326        2.60910747221333        2.29433387055131
H           -5.03051331358109       -1.20401554599365       -0.56009224254783
H           -4.43571147415552       -1.33207096587757       -2.23520736863450
H           -3.28688352672881       -1.44998075587753       -0.87382803632609
H           -6.48869273945114        1.11358374361236       -0.75192785956200
H           -5.65308844442952        2.38381930020755       -1.67686802908571
H           -6.63240201762349        2.81554942925445       -0.25251322405554
H            0.42297477972529       -0.33774264720987       -1.88505592692617
H           -0.80645280541115       -1.56486623005325       -1.54354842682078
H            0.89334613811895       -2.04132963542562       -1.71671652891032
H            0.38753463470895       -2.22958469467135        1.98115128862453
H           -0.84578424977793       -2.68984400926214        0.79270045748189
H            0.84334817434049       -3.16078632059407        0.54313809103341
H            1.81943955518588        0.47353582848362        0.27983700925138
H            7.57149818437459        0.11865503604061       -1.83768620911097
H            7.85392856961924        1.39591841457561       -0.63840666551172
H            7.96864370594841       -0.31555314227551       -0.17534439631991
H            0.57813266777444        0.37614836765109        2.30861614415221
