42
 energy: -83.647746244883 gnorm: 0.000308265850 xtb: 6.5.1 (579679a)
C            5.40540955334212        3.41279761662398        0.18031932409526
O            4.65779841304967        2.44927029410868       -0.54391084460840
C            3.68251606991769        1.80949972406786        0.15733524905809
O            3.47962969575236        2.09418622259448        1.33388232685842
C            2.95035113044228        0.80480939103210       -0.59404295335333
N            1.97119335137227        0.18148809360760        0.15984568574342
C            1.24064791668979       -0.74620739407658       -0.34264454541648
C            0.18362402123103       -1.42171063101214        0.52392527161868
C            0.24524610783184       -2.95037598248994        0.38696180085654
C            0.44119602843190       -1.03510189395355        1.98414513009195
N           -1.15065800213446       -0.91736756413824        0.18207196586930
C           -1.83154301198953       -1.20864296887210       -0.95681257267252
O           -1.33492198106625       -1.80452493113866       -1.91811927010862
C           -3.21533619904639       -0.53729837939490       -1.04548563468110
C           -4.21489339828254       -1.45286885857645       -1.77320675897522
N           -2.95064613200395        0.70240075600529       -1.78268000093544
N           -3.27099262652274        1.71177229383882       -0.92467903263503
C           -3.69446633505798        1.24540004816613        0.18887863440429
C           -4.18145599417302        1.99561172899929        1.37861214207360
O           -3.69936761788229       -0.16676188390302        0.24002233531532
N            1.39659783808344       -1.15263673564635       -1.64804178028072
C            2.32105798449707       -0.63061007019153       -2.50642734988765
O            2.40506152562185       -1.05986501795202       -3.65876320280205
C            3.19734950082047        0.46939300379097       -1.95005711519660
O            4.05172581449275        0.98795779344365       -2.69721664777475
H            5.91380234974917        2.95004795741582        1.03223232989456
H            6.14367533474053        3.82795998417240       -0.50468284813000
H            4.75686883680298        4.21258357385752        0.55249706316280
H            0.00194320965922       -3.27152463298489       -0.62382207719491
H           -0.46567450626637       -3.40672910940925        1.07352988727326
H            1.24660116486175       -3.29845240885882        0.63619054100661
H            1.43225627711047       -1.37137876915080        2.28486630016496
H            0.39207503636738        0.04712300527061        2.10458585860376
H           -0.29934533054855       -1.50053785496141        2.63146871010514
H           -1.72080841062186       -0.65506678431151        0.97405840296245
H           -4.42791858365885       -2.33203367678361       -1.16739342008700
H           -5.13979304556662       -0.90784970769835       -1.95013457811998
H           -3.79009844412189       -1.76306695881942       -2.72663277277778
H           -4.07554061614632        3.06422580490198        1.19628322788435
H           -5.23331813902999        1.77633881893918        1.57755816296291
H           -3.61345567568127        1.73067497683188        2.27318728502628
H            0.79360588893166       -1.88292687333712       -2.00857922939864
