42
 energy: -82.970073630416 gnorm: 0.000441225350 xtb: 6.5.1 (579679a)
C           -4.18570360989841        2.72545784378309       -1.50699429466984
O           -3.70908643981001        1.62899908592902       -0.71389958197297
C           -2.53222168713473        1.77424039069425       -0.13469877170836
O           -1.83291943806579        2.75012687589165       -0.22298918452467
C           -2.13813445746307        0.54353531456242        0.65634925740938
N           -0.91596176537286        0.17937071490629        0.60750305302286
C           -0.55714272480715       -0.99509537553640        1.29341715850377
C            0.72841018785624       -1.63974073962293        0.83985811587326
C            1.36093704220895       -2.43954418552820        1.98211610072110
C            0.38394507264127       -2.55161811348722       -0.35271795846943
N            1.62139999089209       -0.57162657677037        0.40052438865218
C            2.85669274872698       -0.78624656208512       -0.09517191698168
O            3.41021270503562       -1.86828178233944       -0.17958952673408
C            3.48305646647316        0.49509273391539       -0.51289206809376
N            2.93171741171664        1.67013050471798       -0.45889253049057
N            3.85309424306429        2.55828290205193       -0.92615282273017
C            4.90885714412028        1.86788603528411       -1.23474278378757
C            6.18703340439747        2.36835193211465       -1.78615655430494
O            4.73667882472259        0.55915895621948       -0.99715419697037
N           -1.24733498389102       -1.51552428009782        2.23374073620843
C           -2.47152457299040       -0.93316597170700        2.58034551094960
O           -2.94249309353210       -0.98524109040270        3.68565348196405
C           -3.18222967091092       -0.24924927103416        1.41674306360915
C           -3.73957817198938       -1.32710581697045        0.45537692985394
O           -4.20806924828611        0.57112537890338        1.89165557246497
H           -3.53158165968009        2.86852113642523       -2.36927365130516
H           -5.18874251489873        2.45812769733693       -1.83077999131206
H           -4.20464057430276        3.63712779173583       -0.90644666225935
H            1.64555830079761       -1.76913909144028        2.79176402733277
H            2.24213757431137       -2.96874368844422        1.62581498455614
H            0.63718007474232       -3.16113581781090        2.35691848087469
H           -0.04362107647469       -1.96012164174087       -1.16040414350503
H            1.28751519480334       -3.04452998285229       -0.70703626105824
H           -0.33592639841200       -3.30546496004364       -0.03983223401301
H            1.22553846074655        0.35828178613693        0.33185990441455
H            6.36023838904101        1.93839348679148       -2.77267283745570
H            6.15284870862765        3.45221157181123       -1.86332284041686
H            7.01294887006603        2.07188221088231       -1.14007660603161
H           -4.48027838358981       -1.91749274095554        0.98997923809614
H           -4.21515135061447       -0.83465041557671       -0.38958375271125
H           -2.93804720099715       -1.97210933121010        0.10354674489892
H           -4.42561179188799        0.31951908553623        2.80414042209290
