      -----------------------------------------------------------      
     |                   =====================                   |     
     |                           x T B                           |     
     |                   =====================                   |     
     |                         S. Grimme                         |     
     |          Mulliken Center for Theoretical Chemistry        |     
     |                    University of Bonn                     |     
      -----------------------------------------------------------      

   * xtb version 6.5.1 (579679a) compiled by 'ehlert@majestix' on 2022-07-11

   xtb is free software: you can redistribute it and/or modify it under
   the terms of the GNU Lesser General Public License as published by
   the Free Software Foundation, either version 3 of the License, or
   (at your option) any later version.
   
   xtb is distributed in the hope that it will be useful,
   but WITHOUT ANY WARRANTY; without even the implied warranty of
   MERCHANTABILITY or FITNESS FOR A PARTICULAR PURPOSE.  See the
   GNU Lesser General Public License for more details.
   
   Cite this work as:
   * C. Bannwarth, E. Caldeweyher, S. Ehlert, A. Hansen, P. Pracht,
     J. Seibert, S. Spicher, S. Grimme, WIREs Comput. Mol. Sci., 2020, 11,
     e01493. DOI: 10.1002/wcms.1493
   
   for GFN2-xTB:
   * C. Bannwarth, S. Ehlert and S. Grimme., J. Chem. Theory Comput., 2019,
     15, 1652-1671. DOI: 10.1021/acs.jctc.8b01176
   for GFN1-xTB:
   * S. Grimme, C. Bannwarth, P. Shushkov, J. Chem. Theory Comput., 2017,
     13, 1989-2009. DOI: 10.1021/acs.jctc.7b00118
   for GFN0-xTB:
   * P. Pracht, E. Caldeweyher, S. Ehlert, S. Grimme, ChemRxiv, 2019, preprint.
     DOI: 10.26434/chemrxiv.8326202.v1
   for GFN-FF:
   * S. Spicher and S. Grimme, Angew. Chem. Int. Ed., 2020, 59, 15665-15673.
     DOI: 10.1002/anie.202004239
   
   for ALPB and GBSA implicit solvation:
   * S. Ehlert, M. Stahn, S. Spicher, S. Grimme, J. Chem. Theory Comput.,
     2021, 17, 4250-4261. DOI: 10.1021/acs.jctc.1c00471
   
   for DFT-D4:
   * E. Caldeweyher, C. Bannwarth and S. Grimme, J. Chem. Phys., 2017,
     147, 034112. DOI: 10.1063/1.4993215
   * E. Caldeweyher, S. Ehlert, A. Hansen, H. Neugebauer, S. Spicher,
     C. Bannwarth and S. Grimme, J. Chem. Phys., 2019, 150, 154122.
     DOI: 10.1063/1.5090222
   * E. Caldeweyher, J.-M. Mewes, S. Ehlert and S. Grimme, Phys. Chem. Chem. Phys.
     2020, 22, 8499-8512. DOI: 10.1039/D0CP00502A
   
   for sTDA-xTB:
   * S. Grimme and C. Bannwarth, J. Chem. Phys., 2016, 145, 054103.
     DOI: 10.1063/1.4959605
   
   in the mass-spec context:
   * V. Asgeirsson, C. Bauer and S. Grimme, Chem. Sci., 2017, 8, 4879.
     DOI: 10.1039/c7sc00601b
   * J. Koopman and S. Grimme, ACS Omega 2019, 4, 12, 15120-15133.
     DOI: 10.1021/acsomega.9b02011
   
   for metadynamics refer to:
   * S. Grimme, J. Chem. Theory Comput., 2019, 155, 2847-2862
     DOI: 10.1021/acs.jctc.9b00143
   
   for SPH calculations refer to:
   * S. Spicher and S. Grimme, J. Chem. Theory Comput., 2021, 17, 1701-1714
     DOI: 10.1021/acs.jctc.0c01306
   
   with help from (in alphabetical order)
   P. Atkinson, C. Bannwarth, F. Bohle, G. Brandenburg, E. Caldeweyher
   M. Checinski, S. Dohm, S. Ehlert, S. Ehrlich, I. Gerasimov, C. Hölzer
   A. Katbashev, J. Koopman, C. Lavigne, S. Lehtola, F. März, M. Müller,
   F. Musil, H. Neugebauer, J. Pisarek, C. Plett, P. Pracht, F. Pultar,
   J. Seibert, P. Shushkov, S. Spicher, M. Stahn, M. Steiner, T. Strunk,
   J. Stückrath, T. Rose, and J. Unsleber
   
 * started run on 2023/06/20 at 15:23:10.559     

           -------------------------------------------------
          |                Calculation Setup                |
           -------------------------------------------------

          program call               : /lustre/hpc/kemi/ree/PhD/git/ReactivityQM/dep/xtb-6.5.1/bin/xtb --gfn 1 /lustre/hpc/kemi/ree/PhD/git/ReactivityQM/calculations/RaltegravirCLI/reac02prodN06/conf14/RaltegravirCLI_reac02prodN06_conf14_gfn1.xyz --opt --vfukui --chrg 1 --uhf 0 --alpb DMSO
          hostname                   : node308
          coordinate file            : /lustre/hpc/kemi/ree/PhD/git/ReactivityQM/calculations/RaltegravirCLI/reac02prodN06/conf14/RaltegravirCLI_reac02prodN06_conf14_gfn1.xyz
          omp threads                :                     1

   ID    Z sym.   atoms
    1    6 C      1, 3, 5, 7-9, 12-16, 18, 19, 21-24
    2    7 N      2, 11, 20, 25
    3    8 O      4, 6, 10
    4    9 F      17
    5    1 H      26-47

           -------------------------------------------------
          |                 G F N 1 - x T B                 |
           -------------------------------------------------

        Reference                      10.1021/acs.jctc.7b00118
      * Hamiltonian:
        H0-scaling (s, p, d)           1.850000    2.250000    2.000000
        zeta-weighting                 0.000000
      * Dispersion:
        s8                             2.400000
        a1                             0.630000
        a2                             5.000000
        s9                             0.000000
      * Repulsion:
        kExp                           1.500000
        rExp                           1.000000
      * Coulomb:
        alpha                          2.000000
        third order                    atomic
        anisotropic                    false
      * Halogen bond correction:
        rad-scale                      1.300000
        damping                        0.440000

      * Solvation model:               ALPB
        Solvent                        DMSO
        Parameter file                 internal GFN1-xTB/ALPB
        Dielectric constant                4.6680E+01
        Reference state                gsolv [1 M gas/solution]
        Free energy shift                  7.6243E-03 Eh       4.7843E+00 kcal/mol
        Temperature                        2.9815E+02 K
        Density                            1.1000E+00 kg/L
        Solvent mass                       7.8130E+01 g/mol
        Interaction kernel             P16
        Born radius scaling (c1)           1.7672E+00
        Born radii integrator          GBOBC
        Born offset                        0.0000E+00 a0       0.0000E+00 AA
        H-bond correction              true
        Ion screening                  false
        Surface tension                    1.0000E-05 Eh       1.5569E+01 dyn/cm
        Grid points                               230 per atom

          ...................................................
          :                      SETUP                      :
          :.................................................:
          :  # basis functions                 144          :
          :  # atomic orbitals                 144          :
          :  # shells                           94          :
          :  # electrons                       134          :
          :  # halogen bonds                     0          :
          :  max. iterations                   250          :
          :  Hamiltonian                  GFN1-xTB          :
          :  restarted?                      false          :
          :  GBSA solvation                   true          :
          :  PC potential                    false          :
          :  electronic temp.          300.0000000     K    :
          :  accuracy                    1.0000000          :
          :  -> integral cutoff          0.2500000E+02      :
          :  -> integral neglect         0.1000000E-07      :
          :  -> SCF convergence          0.1000000E-05 Eh   :
          :  -> wf. convergence          0.2000000E-04 e    :
          :  Broyden damping             0.4000000          :
          ...................................................

 iter      E             dE          RMSdq      gap      omega  full diag
   1    -80.0659575 -0.800660E+02  0.853E+00    1.40       0.0  T
   2    -79.8005472  0.265410E+00  0.572E+00    0.28       1.0  T
   3    -79.9667207 -0.166173E+00  0.353E+00    2.69       1.0  T
   4    -80.1958174 -0.229097E+00  0.194E+00    2.00       1.0  T
   5    -80.3073549 -0.111537E+00  0.102E+00    1.11       1.0  T
   6    -80.3480765 -0.407216E-01  0.428E-01    0.54       1.0  T
   7    -80.3551586 -0.708204E-02  0.126E-01    0.22       1.0  T
   8    -80.3534136  0.174492E-02  0.196E-01    0.46       1.0  T
   9    -80.2183609  0.135053E+00  0.122E+00    0.11       1.0  T
  10    -80.3500849 -0.131724E+00  0.290E-01    0.56       1.0  T
  11    -80.3530989 -0.301407E-02  0.194E-01    0.45       1.0  T
  12    -80.3535314 -0.432494E-03  0.173E-01    0.41       1.0  T
  13    -80.3544413 -0.909832E-03  0.130E-01    0.34       1.0  T
  14    -80.3553683 -0.927060E-03  0.697E-02    0.28       1.0  T
  15    -80.3557025 -0.334179E-03  0.279E-02    0.25       1.0  T
  16    -80.3557619 -0.594344E-04  0.762E-03    0.23       1.9  T
  17    -80.3557654 -0.349255E-05  0.440E-03    0.24       3.3  T
  18    -80.3557668 -0.136799E-05  0.205E-03    0.23       7.1  T
  19    -80.3557671 -0.321924E-06  0.724E-04    0.24      20.2  T
  20    -80.3557672 -0.433796E-07  0.161E-04    0.24      90.6  T
  21    -80.3557672 -0.207035E-08  0.490E-05    0.24     297.6  T

   *** convergence criteria satisfied after 21 iterations ***

         #    Occupation            Energy/Eh            Energy/eV
      -------------------------------------------------------------
         1        2.0000           -0.8866536             -24.1271
       ...           ...                  ...                  ...
        61        2.0000           -0.4885852             -13.2951
        62        2.0000           -0.4800108             -13.0618
        63        2.0000           -0.4786076             -13.0236
        64        2.0000           -0.4677323             -12.7276
        65        2.0000           -0.4608892             -12.5414
        66        2.0000           -0.4481795             -12.1956
        67        1.9792           -0.4398297             -11.9684 (HOMO)
        68        0.0208           -0.4311732             -11.7328 (LUMO)
        69                         -0.3221045              -8.7649
        70                         -0.2991613              -8.1406
        71                         -0.2788426              -7.5877
        72                         -0.2766030              -7.5268
       ...                                ...                  ...
       144                          0.6584832              17.9182
      -------------------------------------------------------------
                  HL-Gap            0.0086565 Eh            0.2356 eV
             Fermi-level           -0.4355013 Eh          -11.8506 eV

 SCC (total)                   0 d,  0 h,  0 min,  0.265 sec
 SCC setup                      ...        0 min,  0.003 sec (  1.041%)
 Dispersion                     ...        0 min,  0.000 sec (  0.186%)
 classical contributions        ...        0 min,  0.000 sec (  0.059%)
 integral evaluation            ...        0 min,  0.078 sec ( 29.527%)
 iterations                     ...        0 min,  0.085 sec ( 32.097%)
 molecular gradient             ...        0 min,  0.097 sec ( 36.619%)
 printout                       ...        0 min,  0.001 sec (  0.444%)

         :::::::::::::::::::::::::::::::::::::::::::::::::::::
         ::                     SUMMARY                     ::
         :::::::::::::::::::::::::::::::::::::::::::::::::::::
         :: total energy             -79.468487009027 Eh    ::
         :: total w/o Gsasa/hb       -79.439695382886 Eh    ::
         :: gradient norm              0.139933086864 Eh/a0 ::
         :: HOMO-LUMO gap              0.235555110054 eV    ::
         ::.................................................::
         :: SCC energy               -80.355767157168 Eh    ::
         :: -> electrostatic           0.302282263952 Eh    ::
         :: -> Gsolv                  -0.105274058937 Eh    ::
         ::    -> Gelec               -0.076482432797 Eh    ::
         ::    -> Gsasa               -0.023929529561 Eh    ::
         ::    -> Ghb                 -0.012486375584 Eh    ::
         ::    -> Gshift               0.007624279005 Eh    ::
         :: repulsion energy           0.919234049535 Eh    ::
         :: dispersion energy         -0.031953901393 Eh    ::
         :: halogen bond corr.         0.000000000000 Eh    ::
         :: add. restraining           0.000000000000 Eh    ::
         :: total charge               1.000000000000 e     ::
         :::::::::::::::::::::::::::::::::::::::::::::::::::::

      ----------------------------------------------------------- 
     |                   =====================                   |
     |                        A N C O P T                        |
     |                   =====================                   |
     |               Approximate Normal Coordinate               |
     |                Rational Function Optimizer                |
      ----------------------------------------------------------- 

          ...................................................
          :                      SETUP                      :
          :.................................................:
          :   optimization level            normal          :
          :   max. optcycles                   200          :
          :   ANC micro-cycles                  20          :
          :   degrees of freedom               135          :
          :.................................................:
          :   RF solver                   davidson          :
          :   write xtbopt.log                true          :
          :   linear?                        false          :
          :   energy convergence         0.5000000E-05 Eh   :
          :   grad. convergence          0.1000000E-02 Eh/α :
          :   maximium RF displ.         1.0000000          :
          :   Hlow (freq-cutoff)         0.1000000E-01      :
          :   Hmax (freq-cutoff)         5.0000000          :
          :   S6 in model hess.         20.0000000          :
          ...................................................

generating ANC from model Hessian ...
Using Lindh-Hessian (1995)
 Shifting diagonal of input Hessian by   9.798564921572842E-003
 Lowest  eigenvalues of input Hessian
    0.000000    0.000000    0.000000    0.000000    0.000000    0.000000
    0.010000    0.010055    0.010534    0.010867    0.011348    0.012357
    0.012750    0.013566    0.014591    0.016256    0.017360    0.018208
 Highest eigenvalues
    1.986116    2.040163    2.105115    2.150354    2.279647    2.310871
 

........................................................................
.............................. CYCLE    1 ..............................
........................................................................
   1    -80.3557672 -0.803558E+02  0.250E-05    0.24       0.0  T
   2    -80.3557672  0.752067E-09  0.933E-05    0.24     156.4  T
   3    -80.3557672 -0.804690E-09  0.425E-06    0.24    3430.0  T
     SCC iter.                  ...        0 min,  0.013 sec
     gradient                   ...        0 min,  0.076 sec
 * total energy  :   -79.4684870 Eh     change       -0.2143707E-09 Eh
   gradient norm :     0.1399369 Eh/α   predicted     0.0000000E+00 (-100.00%)
   displ. norm   :     0.2710879 α      lambda       -0.1883287E-01
   maximum displ.:     0.0851072 α      in ANC's #47, #75, #53, ...

........................................................................
.............................. CYCLE    2 ..............................
........................................................................
   1    -80.3646364 -0.803646E+02  0.193E-01    0.48       0.0  T
   2    -80.2599279  0.104708E+00  0.107E+00    0.12       1.0  T
   3    -80.3671178 -0.107190E+00  0.118E-01    0.41       1.0  T
   4    -80.3674152 -0.297344E-03  0.878E-02    0.37       1.0  T
   5    -80.3678408 -0.425614E-03  0.495E-02    0.32       1.0  T
   6    -80.3680314 -0.190599E-03  0.133E-02    0.28       1.1  T
   7    -80.3680445 -0.130977E-04  0.174E-03    0.27       8.4  T
   8    -80.3680445 -0.198397E-07  0.463E-04    0.27      31.5  T
   9    -80.3680445 -0.510681E-09  0.273E-04    0.27      53.5  T
  10    -80.3680445 -0.664603E-08  0.727E-05    0.27     200.7  T
  11    -80.3680445 -0.334055E-09  0.326E-05    0.27     447.7  T
     SCC iter.                  ...        0 min,  0.045 sec
     gradient                   ...        0 min,  0.104 sec
 * total energy  :   -79.4823745 Eh     change       -0.1388747E-01 Eh
   gradient norm :     0.0774168 Eh/α   predicted    -0.1011586E-01 ( -27.16%)
   displ. norm   :     0.2793984 α      lambda       -0.9507661E-02
   maximum displ.:     0.0821259 α      in ANC's #24, #20, #6, ...

........................................................................
.............................. CYCLE    3 ..............................
........................................................................
   1    -80.3804670 -0.803805E+02  0.146E-01    0.58       0.0  T
   2    -80.3801888  0.278199E-03  0.162E-01    0.26       1.0  T
   3    -80.3822395 -0.205070E-02  0.330E-02    0.39       1.0  T
   4    -80.3823196 -0.800943E-04  0.138E-02    0.34       1.1  T
   5    -80.3823113  0.829761E-05  0.133E-02    0.32       1.1  T
   6    -80.3823197 -0.840237E-05  0.386E-03    0.34       3.8  T
   7    -80.3823207 -0.104133E-05  0.625E-04    0.34      23.4  T
   8    -80.3823207 -0.206088E-07  0.218E-04    0.34      66.9  T
   9    -80.3823207  0.675868E-09  0.147E-04    0.34      99.3  T
  10    -80.3823207 -0.149878E-08  0.351E-05    0.34     415.9  T
     SCC iter.                  ...        0 min,  0.043 sec
     gradient                   ...        0 min,  0.104 sec
 * total energy  :   -79.4878679 Eh     change       -0.5493415E-02 Eh
   gradient norm :     0.0277894 Eh/α   predicted    -0.5126461E-02 (  -6.68%)
   displ. norm   :     0.2158308 α      lambda       -0.1583458E-02
   maximum displ.:     0.0959048 α      in ANC's #9, #5, #6, ...

........................................................................
.............................. CYCLE    4 ..............................
........................................................................
   1    -80.3840112 -0.803840E+02  0.294E-02    0.41       0.0  T
   2    -80.3840762 -0.650437E-04  0.124E-02    0.36       1.2  T
   3    -80.3840821 -0.592547E-05  0.476E-03    0.37       3.1  T
   4    -80.3840823 -0.159373E-06  0.280E-03    0.36       5.2  T
   5    -80.3840822  0.387083E-07  0.176E-03    0.37       8.3  T
   6    -80.3840824 -0.170234E-06  0.320E-04    0.36      45.6  T
   7    -80.3840824 -0.420702E-08  0.155E-04    0.36      94.0  T
   8    -80.3840824 -0.535621E-09  0.382E-05    0.36     381.6  T
     SCC iter.                  ...        0 min,  0.037 sec
     gradient                   ...        0 min,  0.106 sec
 * total energy  :   -79.4890864 Eh     change       -0.1218499E-02 Eh
   gradient norm :     0.0178284 Eh/α   predicted    -0.8287061E-03 ( -31.99%)
   displ. norm   :     0.3126119 α      lambda       -0.1370878E-02
   maximum displ.:     0.1558814 α      in ANC's #9, #5, #6, ...

........................................................................
.............................. CYCLE    5 ..............................
........................................................................
   1    -80.3852589 -0.803853E+02  0.426E-02    0.44       0.0  T
   2    -80.3853716 -0.112673E-03  0.313E-02    0.42       1.0  T
   3    -80.3854330 -0.613709E-04  0.703E-03    0.40       2.1  T
   4    -80.3854338 -0.873413E-06  0.481E-03    0.41       3.0  T
   5    -80.3854342 -0.416545E-06  0.200E-03    0.40       7.3  T
   6    -80.3854343 -0.259464E-07  0.445E-04    0.40      32.8  T
   7    -80.3854343 -0.723415E-08  0.168E-04    0.40      86.7  T
   8    -80.3854343 -0.378662E-09  0.426E-05    0.40     342.5  T
     SCC iter.                  ...        0 min,  0.035 sec
     gradient                   ...        0 min,  0.103 sec
 * total energy  :   -79.4899596 Eh     change       -0.8731875E-03 Eh
   gradient norm :     0.0091174 Eh/α   predicted    -0.7524452E-03 ( -13.83%)
   displ. norm   :     0.1932523 α      lambda       -0.3521196E-03
   maximum displ.:     0.0932458 α      in ANC's #9, #5, #2, ...

........................................................................
.............................. CYCLE    6 ..............................
........................................................................
   1    -80.3868691 -0.803869E+02  0.218E-02    0.44       0.0  T
   2    -80.3868951 -0.260298E-04  0.153E-02    0.44       1.0  T
   3    -80.3869117 -0.166421E-04  0.349E-03    0.43       4.2  T
   4    -80.3869121 -0.322155E-06  0.181E-03    0.43       8.1  T
   5    -80.3869121 -0.227535E-07  0.896E-04    0.42      16.3  T
   6    -80.3869121 -0.644197E-08  0.172E-04    0.42      84.8  T
   7    -80.3869121 -0.103189E-08  0.663E-05    0.42     219.9  T
     SCC iter.                  ...        0 min,  0.029 sec
     gradient                   ...        0 min,  0.103 sec
 * total energy  :   -79.4902225 Eh     change       -0.2629354E-03 Eh
   gradient norm :     0.0074405 Eh/α   predicted    -0.1831316E-03 ( -30.35%)
   displ. norm   :     0.2461381 α      lambda       -0.3278196E-03
   maximum displ.:     0.1227497 α      in ANC's #5, #9, #1, ...

........................................................................
.............................. CYCLE    7 ..............................
........................................................................
   1    -80.3884624 -0.803885E+02  0.241E-02    0.45       0.0  T
   2    -80.3884866 -0.242885E-04  0.170E-02    0.46       1.0  T
   3    -80.3885096 -0.230024E-04  0.366E-03    0.45       4.0  T
   4    -80.3885099 -0.292550E-06  0.175E-03    0.45       8.3  T
   5    -80.3885099 -0.957806E-08  0.784E-04    0.44      18.6  T
   6    -80.3885100 -0.643965E-08  0.144E-04    0.44     101.3  T
   7    -80.3885100 -0.565848E-09  0.576E-05    0.44     253.0  T
     SCC iter.                  ...        0 min,  0.029 sec
     gradient                   ...        0 min,  0.103 sec
 * total energy  :   -79.4904603 Eh     change       -0.2378325E-03 Eh
   gradient norm :     0.0058004 Eh/α   predicted    -0.1738578E-03 ( -26.90%)
   displ. norm   :     0.2528808 α      lambda       -0.2391811E-03
   maximum displ.:     0.1340603 α      in ANC's #5, #1, #2, ...

........................................................................
.............................. CYCLE    8 ..............................
........................................................................
   1    -80.3894391 -0.803894E+02  0.204E-02    0.45       0.0  T
   2    -80.3894528 -0.136176E-04  0.143E-02    0.46       1.0  T
   3    -80.3894700 -0.172118E-04  0.311E-03    0.45       4.7  T
   4    -80.3894701 -0.162736E-06  0.148E-03    0.45       9.9  T
   5    -80.3894701 -0.200206E-07  0.470E-04    0.45      31.0  T
   6    -80.3894702 -0.250202E-08  0.907E-05    0.45     160.8  T
   7    -80.3894702 -0.101195E-09  0.315E-05    0.45     462.5  T
     SCC iter.                  ...        0 min,  0.030 sec
     gradient                   ...        0 min,  0.103 sec
 * total energy  :   -79.4906367 Eh     change       -0.1763864E-03 Eh
   gradient norm :     0.0057005 Eh/α   predicted    -0.1272397E-03 ( -27.86%)
   displ. norm   :     0.2514934 α      lambda       -0.1907960E-03
   maximum displ.:     0.1349061 α      in ANC's #5, #1, #2, ...

........................................................................
.............................. CYCLE    9 ..............................
........................................................................
   1    -80.3901016 -0.803901E+02  0.148E-02    0.45       0.0  T
   2    -80.3901078 -0.624332E-05  0.992E-03    0.46       1.5  T
   3    -80.3901163 -0.844995E-05  0.258E-03    0.45       5.7  T
   4    -80.3901164 -0.112228E-06  0.116E-03    0.45      12.5  T
   5    -80.3901164 -0.148434E-07  0.323E-04    0.45      45.2  T
   6    -80.3901164 -0.150966E-08  0.656E-05    0.45     222.3  T
   7    -80.3901164 -0.682547E-10  0.226E-05    0.45     645.7  T
     SCC iter.                  ...        0 min,  0.029 sec
     gradient                   ...        0 min,  0.102 sec
 * total energy  :   -79.4907829 Eh     change       -0.1462042E-03 Eh
   gradient norm :     0.0061235 Eh/α   predicted    -0.1014349E-03 ( -30.62%)
   displ. norm   :     0.2798770 α      lambda       -0.1851650E-03
   maximum displ.:     0.1490649 α      in ANC's #5, #1, #2, ...

........................................................................
.............................. CYCLE   10 ..............................
........................................................................
   1    -80.3902403 -0.803902E+02  0.982E-03    0.44       0.0  T
   2    -80.3902429 -0.258034E-05  0.540E-03    0.45       2.7  T
   3    -80.3902450 -0.217107E-05  0.246E-03    0.45       5.9  T
   4    -80.3902452 -0.162626E-06  0.948E-04    0.45      15.4  T
   5    -80.3902452 -0.371121E-08  0.292E-04    0.45      49.9  T
   6    -80.3902452 -0.161882E-08  0.531E-05    0.45     274.9  T
   7    -80.3902452 -0.732712E-10  0.205E-05    0.45     712.7  T
     SCC iter.                  ...        0 min,  0.029 sec
     gradient                   ...        0 min,  0.102 sec
 * total energy  :   -79.4909251 Eh     change       -0.1421886E-03 Eh
   gradient norm :     0.0060070 Eh/α   predicted    -0.9983956E-04 ( -29.78%)
   displ. norm   :     0.3058814 α      lambda       -0.1898020E-03
   maximum displ.:     0.1601908 α      in ANC's #5, #2, #1, ...

........................................................................
.............................. CYCLE   11 ..............................
........................................................................
   1    -80.3900972 -0.803901E+02  0.727E-03    0.44       0.0  T
   2    -80.3900988 -0.156653E-05  0.317E-03    0.44       4.6  T
   3    -80.3900989 -0.128019E-06  0.158E-03    0.44       9.2  T
   4    -80.3900989 -0.143178E-07  0.974E-04    0.44      15.0  T
   5    -80.3900989 -0.302994E-07  0.225E-04    0.44      64.7  T
   6    -80.3900989 -0.101755E-08  0.542E-05    0.44     268.9  T
   7    -80.3900989 -0.941895E-10  0.193E-05    0.44     755.8  T
     SCC iter.                  ...        0 min,  0.029 sec
     gradient                   ...        0 min,  0.102 sec
 * total energy  :   -79.4910807 Eh     change       -0.1555995E-03 Eh
   gradient norm :     0.0059581 Eh/α   predicted    -0.1037830E-03 ( -33.30%)
   displ. norm   :     0.4525171 α      lambda       -0.2742630E-03
   maximum displ.:     0.2328133 α      in ANC's #5, #2, #1, ...

........................................................................
.............................. CYCLE   12 ..............................
........................................................................
   1    -80.3885937 -0.803886E+02  0.129E-02    0.44       0.0  T
   2    -80.3885988 -0.505876E-05  0.805E-03    0.43       1.8  T
   3    -80.3886023 -0.351352E-05  0.290E-03    0.44       5.0  T
   4    -80.3886024 -0.127063E-06  0.140E-03    0.44      10.4  T
   5    -80.3886024 -0.237889E-07  0.316E-04    0.44      46.2  T
   6    -80.3886025 -0.111145E-08  0.773E-05    0.44     188.6  T
   7    -80.3886025 -0.173927E-09  0.272E-05    0.44     536.1  T
     SCC iter.                  ...        0 min,  0.029 sec
     gradient                   ...        0 min,  0.102 sec
 * total energy  :   -79.4912861 Eh     change       -0.2053226E-03 Eh
   gradient norm :     0.0087486 Eh/α   predicted    -0.1652179E-03 ( -19.53%)
   displ. norm   :     0.3783580 α      lambda       -0.2493019E-03
   maximum displ.:     0.1860100 α      in ANC's #5, #2, #1, ...

........................................................................
.............................. CYCLE   13 ..............................
........................................................................
   1    -80.3883745 -0.803884E+02  0.125E-02    0.45       0.0  T
   2    -80.3883794 -0.484833E-05  0.868E-03    0.44       1.7  T
   3    -80.3883847 -0.532417E-05  0.228E-03    0.44       6.4  T
   4    -80.3883848 -0.532072E-07  0.983E-04    0.44      14.8  T
   5    -80.3883848 -0.350582E-08  0.243E-04    0.44      60.1  T
   6    -80.3883848 -0.687081E-09  0.520E-05    0.44     280.2  T
   7    -80.3883848 -0.573976E-10  0.214E-05    0.44     681.4  T
     SCC iter.                  ...        0 min,  0.029 sec
     gradient                   ...        0 min,  0.102 sec
 * total energy  :   -79.4914765 Eh     change       -0.1904388E-03 Eh
   gradient norm :     0.0104946 Eh/α   predicted    -0.1424958E-03 ( -25.18%)
   displ. norm   :     0.3374436 α      lambda       -0.3078939E-03
   maximum displ.:     0.1727211 α      in ANC's #2, #5, #1, ...

........................................................................
.............................. CYCLE   14 ..............................
........................................................................
   1    -80.3901541 -0.803902E+02  0.102E-02    0.47       0.0  T
   2    -80.3901583 -0.416136E-05  0.474E-03    0.46       3.1  T
   3    -80.3901595 -0.123078E-05  0.254E-03    0.46       5.7  T
   4    -80.3901596 -0.111985E-06  0.119E-03    0.46      12.2  T
   5    -80.3901596 -0.214486E-08  0.302E-04    0.46      48.3  T
   6    -80.3901596 -0.214638E-08  0.719E-05    0.46     203.0  T
   7    -80.3901596 -0.156277E-09  0.268E-05    0.46     544.3  T
     SCC iter.                  ...        0 min,  0.029 sec
     gradient                   ...        0 min,  0.103 sec
 * total energy  :   -79.4917101 Eh     change       -0.2336259E-03 Eh
   gradient norm :     0.0074665 Eh/α   predicted    -0.1714800E-03 ( -26.60%)
   displ. norm   :     0.5014156 α      lambda       -0.2949394E-03
   maximum displ.:     0.2548442 α      in ANC's #2, #5, #1, ...

........................................................................
.............................. CYCLE   15 ..............................
........................................................................
   1    -80.3873886 -0.803874E+02  0.101E-02    0.49       0.0  T
   2    -80.3873914 -0.274172E-05  0.502E-03    0.48       2.9  T
   3    -80.3873924 -0.104670E-05  0.244E-03    0.48       6.0  T
   4    -80.3873925 -0.121580E-06  0.111E-03    0.48      13.1  T
   5    -80.3873925 -0.143547E-07  0.260E-04    0.48      56.1  T
   6    -80.3873925 -0.161374E-08  0.690E-05    0.48     211.3  T
   7    -80.3873925 -0.147125E-09  0.236E-05    0.48     617.7  T
     SCC iter.                  ...        0 min,  0.029 sec
     gradient                   ...        0 min,  0.103 sec
 * total energy  :   -79.4919279 Eh     change       -0.2178306E-03 Eh
   gradient norm :     0.0089730 Eh/α   predicted    -0.1845484E-03 ( -15.28%)
   displ. norm   :     0.3563110 α      lambda       -0.3722885E-03
   maximum displ.:     0.1954969 α      in ANC's #2, #5, #7, ...

........................................................................
.............................. CYCLE   16 ..............................
........................................................................
   1    -80.3928237 -0.803928E+02  0.127E-02    0.51       0.0  T
   2    -80.3928300 -0.629879E-05  0.742E-03    0.50       2.0  T
   3    -80.3928317 -0.164329E-05  0.369E-03    0.50       4.0  T
   4    -80.3928318 -0.720383E-07  0.201E-03    0.50       7.3  T
   5    -80.3928318 -0.813624E-07  0.316E-04    0.50      46.1  T
   6    -80.3928318 -0.288391E-08  0.945E-05    0.50     154.4  T
   7    -80.3928318 -0.210676E-09  0.242E-05    0.50     602.3  T
     SCC iter.                  ...        0 min,  0.029 sec
     gradient                   ...        0 min,  0.102 sec
 * total energy  :   -79.4921314 Eh     change       -0.2034655E-03 Eh
   gradient norm :     0.0077307 Eh/α   predicted    -0.2097780E-03 (   3.10%)
   displ. norm   :     0.5300120 α      lambda       -0.2754176E-03
   maximum displ.:     0.2801449 α      in ANC's #2, #5, #1, ...

........................................................................
.............................. CYCLE   17 ..............................
........................................................................
   1    -80.3869415 -0.803869E+02  0.207E-02    0.50       0.0  T
   2    -80.3869617 -0.202298E-04  0.870E-03    0.50       1.7  T
   3    -80.3869640 -0.229932E-05  0.360E-03    0.50       4.1  T
   4    -80.3869640  0.321930E-07  0.205E-03    0.50       7.1  T
   5    -80.3869641 -0.929044E-07  0.419E-04    0.50      34.9  T
   6    -80.3869641 -0.897535E-08  0.138E-04    0.50     105.8  T
   7    -80.3869641 -0.809806E-09  0.325E-05    0.50     449.5  T
     SCC iter.                  ...        0 min,  0.029 sec
     gradient                   ...        0 min,  0.102 sec
 * total energy  :   -79.4922786 Eh     change       -0.1471555E-03 Eh
   gradient norm :     0.0121591 Eh/α   predicted    -0.1764137E-03 (  19.88%)
   displ. norm   :     0.1428642 α      lambda       -0.2118356E-03
   maximum displ.:     0.0755374 α      in ANC's #2, #5, #12, ...

........................................................................
.............................. CYCLE   18 ..............................
........................................................................
   1    -80.3890353 -0.803890E+02  0.150E-02    0.50       0.0  T
   2    -80.3890454 -0.100895E-04  0.114E-02    0.51       1.3  T
   3    -80.3890553 -0.988845E-05  0.235E-03    0.51       6.2  T
   4    -80.3890553 -0.166142E-07  0.127E-03    0.51      11.5  T
   5    -80.3890553 -0.108028E-08  0.282E-04    0.51      51.7  T
   6    -80.3890553 -0.128689E-08  0.548E-05    0.51     266.3  T
   7    -80.3890553 -0.430020E-10  0.204E-05    0.51     714.0  T
     SCC iter.                  ...        0 min,  0.029 sec
     gradient                   ...        0 min,  0.102 sec
 * total energy  :   -79.4924266 Eh     change       -0.1480676E-03 Eh
   gradient norm :     0.0077617 Eh/α   predicted    -0.1080805E-03 ( -27.01%)
   displ. norm   :     0.3024535 α      lambda       -0.2254522E-03
   maximum displ.:     0.1749463 α      in ANC's #2, #5, #7, ...

........................................................................
.............................. CYCLE   19 ..............................
........................................................................
   1    -80.3938532 -0.803939E+02  0.956E-03    0.49       0.0  T
   2    -80.3938566 -0.339909E-05  0.415E-03    0.50       3.5  T
   3    -80.3938569 -0.240948E-06  0.251E-03    0.50       5.8  T
   4    -80.3938569 -0.910390E-09  0.899E-04    0.50      16.2  T
   5    -80.3938569 -0.233402E-07  0.371E-04    0.50      39.3  T
   6    -80.3938569 -0.696954E-08  0.724E-05    0.50     201.6  T
   7    -80.3938569 -0.162018E-09  0.277E-05    0.50     525.7  T
     SCC iter.                  ...        0 min,  0.029 sec
     gradient                   ...        0 min,  0.102 sec
 * total energy  :   -79.4925464 Eh     change       -0.1198131E-03 Eh
   gradient norm :     0.0071935 Eh/α   predicted    -0.1230429E-03 (   2.70%)
   displ. norm   :     0.3663188 α      lambda       -0.1360266E-03
   maximum displ.:     0.2134662 α      in ANC's #2, #5, #1, ...

........................................................................
.............................. CYCLE   20 ..............................
........................................................................
   1    -80.3904110 -0.803904E+02  0.119E-02    0.51       0.0  T
   2    -80.3904168 -0.587210E-05  0.823E-03    0.52       1.8  T
   3    -80.3904214 -0.453228E-05  0.243E-03    0.52       6.0  T
   4    -80.3904214 -0.409887E-07  0.108E-03    0.52      13.5  T
   5    -80.3904214 -0.261059E-08  0.268E-04    0.52      54.4  T
   6    -80.3904214 -0.963595E-09  0.502E-05    0.52     290.3  T
   7    -80.3904214 -0.286207E-10  0.180E-05    0.52     812.2  T
     SCC iter.                  ...        0 min,  0.029 sec
     gradient                   ...        0 min,  0.102 sec
 * total energy  :   -79.4926234 Eh     change       -0.7694244E-04 Eh
   gradient norm :     0.0060927 Eh/α   predicted    -0.7714148E-04 (   0.26%)
   displ. norm   :     0.1562211 α      lambda       -0.1303222E-03
   maximum displ.:     0.1039596 α      in ANC's #2, #5, #7, ...
 * RMSD in coord.:     0.7339755 α      energy gain  -0.2413638E-01 Eh

generating ANC from model Hessian ...
Using Lindh-Hessian (1995)
 Shifting diagonal of input Hessian by   9.829727095450156E-003
 Lowest  eigenvalues of input Hessian
    0.000000    0.000000    0.000000    0.000000    0.000000    0.000000
    0.010000    0.010074    0.010460    0.010833    0.011355    0.012065
    0.012304    0.013595    0.014185    0.016148    0.017321    0.018291
 Highest eigenvalues
    2.004834    2.019556    2.100292    2.174512    2.388371    2.466735
 

........................................................................
.............................. CYCLE   21 ..............................
........................................................................
   1    -80.3928951 -0.803929E+02  0.772E-03    0.53       0.0  T
   2    -80.3928979 -0.285014E-05  0.519E-03    0.53       2.8  T
   3    -80.3928991 -0.118269E-05  0.201E-03    0.53       7.3  T
   4    -80.3928991 -0.497307E-08  0.125E-03    0.53      11.7  T
   5    -80.3928991 -0.206319E-07  0.143E-04    0.53     101.8  T
   6    -80.3928991 -0.846285E-09  0.523E-05    0.53     278.7  T
     SCC iter.                  ...        0 min,  0.025 sec
     gradient                   ...        0 min,  0.102 sec
 * total energy  :   -79.4926922 Eh     change       -0.6878665E-04 Eh
   gradient norm :     0.0049878 Eh/α   predicted     0.0000000E+00 (-100.00%)
   displ. norm   :     0.0361870 α      lambda       -0.3209198E-04
   maximum displ.:     0.0142585 α      in ANC's #11, #13, #7, ...

........................................................................
.............................. CYCLE   22 ..............................
........................................................................
   1    -80.3933443 -0.803933E+02  0.468E-03    0.53       0.0  T
   2    -80.3933452 -0.891018E-06  0.290E-03    0.53       5.0  T
   3    -80.3933456 -0.474282E-06  0.985E-04    0.53      14.8  T
   4    -80.3933456 -0.782818E-08  0.552E-04    0.53      26.4  T
   5    -80.3933456 -0.257941E-08  0.698E-05    0.53     208.8  T
   6    -80.3933456 -0.112252E-09  0.207E-05    0.53     705.5  T
     SCC iter.                  ...        0 min,  0.025 sec
     gradient                   ...        0 min,  0.102 sec
 * total energy  :   -79.4927294 Eh     change       -0.3719329E-04 Eh
   gradient norm :     0.0015829 Eh/α   predicted    -0.2547212E-04 ( -31.51%)
   displ. norm   :     0.1099649 α      lambda       -0.4408747E-04
   maximum displ.:     0.0435902 α      in ANC's #7, #11, #1, ...

........................................................................
.............................. CYCLE   23 ..............................
........................................................................
   1    -80.3936709 -0.803937E+02  0.755E-03    0.54       0.0  T
   2    -80.3936732 -0.224614E-05  0.439E-03    0.54       3.3  T
   3    -80.3936744 -0.117706E-05  0.140E-03    0.54      10.5  T
   4    -80.3936744 -0.291627E-07  0.753E-04    0.54      19.4  T
   5    -80.3936744 -0.355270E-08  0.130E-04    0.54     112.6  T
   6    -80.3936744 -0.222116E-09  0.344E-05    0.54     424.4  T
     SCC iter.                  ...        0 min,  0.025 sec
     gradient                   ...        0 min,  0.103 sec
 * total energy  :   -79.4927669 Eh     change       -0.3748178E-04 Eh
   gradient norm :     0.0039464 Eh/α   predicted    -0.2216291E-04 ( -40.87%)
   displ. norm   :     0.0629910 α      lambda       -0.2578481E-04
   maximum displ.:     0.0276666 α      in ANC's #7, #1, #4, ...

........................................................................
.............................. CYCLE   24 ..............................
........................................................................
   1    -80.3935512 -0.803936E+02  0.150E-03    0.54       0.0  T
   2    -80.3935512 -0.494947E-07  0.719E-04    0.54      20.3  T
   3    -80.3935512 -0.853008E-08  0.425E-04    0.54      34.3  T
   4    -80.3935512 -0.359509E-08  0.170E-04    0.54      85.6  T
   5    -80.3935512 -0.539117E-09  0.334E-05    0.54     437.0  T
     SCC iter.                  ...        0 min,  0.021 sec
     gradient                   ...        0 min,  0.102 sec
 * total energy  :   -79.4927903 Eh     change       -0.2345166E-04 Eh
   gradient norm :     0.0034009 Eh/α   predicted    -0.1301283E-04 ( -44.51%)
   displ. norm   :     0.2740927 α      lambda       -0.9969672E-04
   maximum displ.:     0.1241276 α      in ANC's #7, #1, #4, ...

........................................................................
.............................. CYCLE   25 ..............................
........................................................................
   1    -80.3925512 -0.803926E+02  0.569E-03    0.56       0.0  T
   2    -80.3925518 -0.645443E-06  0.240E-03    0.56       6.1  T
   3    -80.3925518 -0.300885E-07  0.125E-03    0.56      11.7  T
   4    -80.3925518 -0.803342E-08  0.577E-04    0.56      25.3  T
   5    -80.3925519 -0.999643E-08  0.137E-04    0.56     106.8  T
   6    -80.3925519 -0.710102E-09  0.303E-05    0.56     480.8  T
     SCC iter.                  ...        0 min,  0.025 sec
     gradient                   ...        0 min,  0.102 sec
 * total energy  :   -79.4928577 Eh     change       -0.6740128E-04 Eh
   gradient norm :     0.0026933 Eh/α   predicted    -0.5360027E-04 ( -20.48%)
   displ. norm   :     0.1988130 α      lambda       -0.4404092E-04
   maximum displ.:     0.0933813 α      in ANC's #7, #1, #4, ...

........................................................................
.............................. CYCLE   26 ..............................
........................................................................
   1    -80.3922436 -0.803922E+02  0.433E-03    0.57       0.0  T
   2    -80.3922440 -0.441851E-06  0.158E-03    0.57       9.3  T
   3    -80.3922441 -0.673439E-07  0.115E-03    0.57      12.7  T
   4    -80.3922441 -0.397620E-07  0.399E-04    0.57      36.5  T
   5    -80.3922441 -0.297305E-09  0.130E-04    0.57     112.5  T
   6    -80.3922441 -0.253877E-09  0.228E-05    0.57     640.3  T
     SCC iter.                  ...        0 min,  0.025 sec
     gradient                   ...        0 min,  0.103 sec
 * total energy  :   -79.4928931 Eh     change       -0.3538910E-04 Eh
   gradient norm :     0.0029400 Eh/α   predicted    -0.2308442E-04 ( -34.77%)
   displ. norm   :     0.2937767 α      lambda       -0.7073130E-04
   maximum displ.:     0.1419413 α      in ANC's #7, #1, #4, ...

........................................................................
.............................. CYCLE   27 ..............................
........................................................................
   1    -80.3922646 -0.803923E+02  0.842E-03    0.58       0.0  T
   2    -80.3922669 -0.228075E-05  0.363E-03    0.59       4.0  T
   3    -80.3922677 -0.876472E-06  0.187E-03    0.58       7.8  T
   4    -80.3922678 -0.103004E-06  0.685E-04    0.58      21.3  T
   5    -80.3922678 -0.961691E-09  0.240E-04    0.58      60.7  T
   6    -80.3922678 -0.908088E-09  0.410E-05    0.58     356.2  T
   7    -80.3922678 -0.397193E-10  0.189E-05    0.58     772.4  T
     SCC iter.                  ...        0 min,  0.029 sec
     gradient                   ...        0 min,  0.102 sec
 * total energy  :   -79.4929534 Eh     change       -0.6031521E-04 Eh
   gradient norm :     0.0028914 Eh/α   predicted    -0.3841796E-04 ( -36.30%)
   displ. norm   :     0.4421901 α      lambda       -0.1115725E-03
   maximum displ.:     0.2144711 α      in ANC's #7, #1, #4, ...

........................................................................
.............................. CYCLE   28 ..............................
........................................................................
   1    -80.3916622 -0.803917E+02  0.160E-02    0.60       0.0  T
   2    -80.3916714 -0.916033E-05  0.685E-03    0.61       2.1  T
   3    -80.3916747 -0.330454E-05  0.307E-03    0.61       4.8  T
   4    -80.3916750 -0.277898E-06  0.118E-03    0.61      12.3  T
   5    -80.3916750 -0.191920E-08  0.425E-04    0.61      34.3  T
   6    -80.3916750 -0.339713E-08  0.801E-05    0.61     182.1  T
   7    -80.3916750 -0.147509E-09  0.351E-05    0.61     415.5  T
     SCC iter.                  ...        0 min,  0.029 sec
     gradient                   ...        0 min,  0.103 sec
 * total energy  :   -79.4930354 Eh     change       -0.8195771E-04 Eh
   gradient norm :     0.0041556 Eh/α   predicted    -0.6669548E-04 ( -18.62%)
   displ. norm   :     0.3186086 α      lambda       -0.1075517E-03
   maximum displ.:     0.1683114 α      in ANC's #1, #7, #2, ...

........................................................................
.............................. CYCLE   29 ..............................
........................................................................
   1    -80.3940946 -0.803941E+02  0.169E-02    0.62       0.0  T
   2    -80.3941074 -0.127330E-04  0.103E-02    0.64       1.4  T
   3    -80.3941153 -0.792487E-05  0.236E-03    0.63       6.2  T
   4    -80.3941154 -0.747285E-07  0.112E-03    0.63      13.0  T
   5    -80.3941154 -0.181888E-08  0.318E-04    0.63      45.8  T
   6    -80.3941154 -0.150432E-08  0.722E-05    0.63     202.2  T
   7    -80.3941154 -0.483453E-10  0.258E-05    0.63     564.3  T
     SCC iter.                  ...        0 min,  0.029 sec
     gradient                   ...        0 min,  0.105 sec
 * total energy  :   -79.4931066 Eh     change       -0.7118980E-04 Eh
   gradient norm :     0.0047447 Eh/α   predicted    -0.5924291E-04 ( -16.78%)
   displ. norm   :     0.3998912 α      lambda       -0.8515146E-04
   maximum displ.:     0.2085681 α      in ANC's #1, #7, #2, ...

........................................................................
.............................. CYCLE   30 ..............................
........................................................................
   1    -80.3917222 -0.803917E+02  0.184E-02    0.65       0.0  T
   2    -80.3917348 -0.126847E-04  0.710E-03    0.66       2.1  T
   3    -80.3917376 -0.278006E-05  0.328E-03    0.65       4.4  T
   4    -80.3917379 -0.246371E-06  0.143E-03    0.66      10.2  T
   5    -80.3917379 -0.848296E-08  0.421E-04    0.66      34.7  T
   6    -80.3917379 -0.413016E-08  0.100E-04    0.66     145.3  T
   7    -80.3917379 -0.208061E-09  0.369E-05    0.66     395.8  T
     SCC iter.                  ...        0 min,  0.029 sec
     gradient                   ...        0 min,  0.104 sec
 * total energy  :   -79.4931456 Eh     change       -0.3904886E-04 Eh
   gradient norm :     0.0079353 Eh/α   predicted    -0.4938463E-04 (  26.47%)
   displ. norm   :     0.0963476 α      lambda       -0.1039402E-03
   maximum displ.:     0.0549482 α      in ANC's #1, #2, #6, ...

........................................................................
.............................. CYCLE   31 ..............................
........................................................................
   1    -80.3956218 -0.803956E+02  0.981E-03    0.67       0.0  T
   2    -80.3956267 -0.491083E-05  0.668E-03    0.67       2.2  T
   3    -80.3956292 -0.244811E-05  0.204E-03    0.67       7.2  T
   4    -80.3956292 -0.966057E-08  0.112E-03    0.67      13.0  T
   5    -80.3956292 -0.810215E-08  0.186E-04    0.67      78.5  T
   6    -80.3956292 -0.918462E-09  0.473E-05    0.67     308.1  T
     SCC iter.                  ...        0 min,  0.025 sec
     gradient                   ...        0 min,  0.102 sec
 * total energy  :   -79.4932079 Eh     change       -0.6225449E-04 Eh
   gradient norm :     0.0034998 Eh/α   predicted    -0.5247538E-04 ( -15.71%)
   displ. norm   :     0.1717256 α      lambda       -0.4765419E-04
   maximum displ.:     0.1039204 α      in ANC's #1, #2, #7, ...

........................................................................
.............................. CYCLE   32 ..............................
........................................................................
   1    -80.3955161 -0.803955E+02  0.672E-03    0.68       0.0  T
   2    -80.3955184 -0.232887E-05  0.425E-03    0.69       3.4  T
   3    -80.3955197 -0.122990E-05  0.873E-04    0.68      16.7  T
   4    -80.3955197 -0.113168E-07  0.445E-04    0.68      32.8  T
   5    -80.3955197 -0.545086E-09  0.123E-04    0.68     118.7  T
   6    -80.3955197 -0.126334E-09  0.351E-05    0.68     415.1  T
     SCC iter.                  ...        0 min,  0.025 sec
     gradient                   ...        0 min,  0.103 sec
 * total energy  :   -79.4932456 Eh     change       -0.3770313E-04 Eh
   gradient norm :     0.0025595 Eh/α   predicted    -0.2453027E-04 ( -34.94%)
   displ. norm   :     0.1868379 α      lambda       -0.5464860E-04
   maximum displ.:     0.1157587 α      in ANC's #1, #2, #5, ...

........................................................................
.............................. CYCLE   33 ..............................
........................................................................
   1    -80.3950810 -0.803951E+02  0.332E-03    0.70       0.0  T
   2    -80.3950814 -0.402423E-06  0.162E-03    0.70       9.0  T
   3    -80.3950814 -0.517446E-07  0.910E-04    0.70      16.0  T
   4    -80.3950814 -0.217206E-07  0.367E-04    0.70      39.8  T
   5    -80.3950814 -0.660378E-09  0.888E-05    0.70     164.2  T
   6    -80.3950814 -0.194632E-09  0.264E-05    0.70     553.0  T
     SCC iter.                  ...        0 min,  0.024 sec
     gradient                   ...        0 min,  0.096 sec
 * total energy  :   -79.4932843 Eh     change       -0.3876847E-04 Eh
   gradient norm :     0.0022944 Eh/α   predicted    -0.2827889E-04 ( -27.06%)
   displ. norm   :     0.1326804 α      lambda       -0.2925161E-04
   maximum displ.:     0.0825648 α      in ANC's #1, #2, #5, ...

........................................................................
.............................. CYCLE   34 ..............................
........................................................................
   1    -80.3946635 -0.803947E+02  0.215E-03    0.71       0.0  T
   2    -80.3946637 -0.192804E-06  0.108E-03    0.70      13.6  T
   3    -80.3946637 -0.470842E-07  0.509E-04    0.71      28.6  T
   4    -80.3946637 -0.327734E-08  0.248E-04    0.71      58.8  T
   5    -80.3946637 -0.539785E-09  0.575E-05    0.71     253.5  T
   6    -80.3946637 -0.597282E-10  0.146E-05    0.71     999.2  T
     SCC iter.                  ...        0 min,  0.023 sec
     gradient                   ...        0 min,  0.103 sec
 * total energy  :   -79.4933063 Eh     change       -0.2193848E-04 Eh
   gradient norm :     0.0026204 Eh/α   predicted    -0.1489329E-04 ( -32.11%)
   displ. norm   :     0.1323006 α      lambda       -0.2590151E-04
   maximum displ.:     0.0835672 α      in ANC's #1, #5, #2, ...

........................................................................
.............................. CYCLE   35 ..............................
........................................................................
   1    -80.3945022 -0.803945E+02  0.350E-03    0.70       0.0  T
   2    -80.3945028 -0.612809E-06  0.213E-03    0.70       6.8  T
   3    -80.3945031 -0.284406E-06  0.500E-04    0.70      29.2  T
   4    -80.3945031 -0.263645E-08  0.270E-04    0.70      54.1  T
   5    -80.3945031 -0.416833E-09  0.755E-05    0.70     193.3  T
   6    -80.3945031 -0.515570E-10  0.164E-05    0.70     890.3  T
     SCC iter.                  ...        0 min,  0.023 sec
     gradient                   ...        0 min,  0.098 sec
 * total energy  :   -79.4933266 Eh     change       -0.2031101E-04 Eh
   gradient norm :     0.0024835 Eh/α   predicted    -0.1318072E-04 ( -35.11%)
   displ. norm   :     0.1401499 α      lambda       -0.2607983E-04
   maximum displ.:     0.0917509 α      in ANC's #1, #5, #4, ...

........................................................................
.............................. CYCLE   36 ..............................
........................................................................
   1    -80.3944433 -0.803944E+02  0.434E-03    0.69       0.0  T
   2    -80.3944442 -0.896926E-06  0.259E-03    0.69       5.6  T
   3    -80.3944445 -0.384250E-06  0.770E-04    0.69      18.9  T
   4    -80.3944446 -0.724059E-08  0.372E-04    0.69      39.2  T
   5    -80.3944446 -0.479261E-09  0.107E-04    0.69     136.3  T
   6    -80.3944446 -0.175348E-09  0.250E-05    0.69     583.7  T
     SCC iter.                  ...        0 min,  0.024 sec
     gradient                   ...        0 min,  0.099 sec
 * total energy  :   -79.4933463 Eh     change       -0.1970198E-04 Eh
   gradient norm :     0.0023092 Eh/α   predicted    -0.1329862E-04 ( -32.50%)
   displ. norm   :     0.1015216 α      lambda       -0.1806239E-04
   maximum displ.:     0.0703607 α      in ANC's #1, #5, #4, ...

........................................................................
.............................. CYCLE   37 ..............................
........................................................................
   1    -80.3945917 -0.803946E+02  0.413E-03    0.68       0.0  T
   2    -80.3945926 -0.891533E-06  0.241E-03    0.68       6.1  T
   3    -80.3945930 -0.339151E-06  0.707E-04    0.68      20.6  T
   4    -80.3945930 -0.751270E-08  0.343E-04    0.68      42.5  T
   5    -80.3945930 -0.428031E-09  0.120E-04    0.68     121.3  T
   6    -80.3945930 -0.219316E-09  0.243E-05    0.68     600.3  T
     SCC iter.                  ...        0 min,  0.024 sec
     gradient                   ...        0 min,  0.099 sec
 * total energy  :   -79.4933602 Eh     change       -0.1387538E-04 Eh
   gradient norm :     0.0018376 Eh/α   predicted    -0.9127007E-05 ( -34.22%)
   displ. norm   :     0.1109537 α      lambda       -0.1415965E-04
   maximum displ.:     0.0817936 α      in ANC's #1, #5, #4, ...

........................................................................
.............................. CYCLE   38 ..............................
........................................................................
   1    -80.3948507 -0.803949E+02  0.529E-03    0.67       0.0  T
   2    -80.3948521 -0.138650E-05  0.294E-03    0.66       5.0  T
   3    -80.3948526 -0.524153E-06  0.962E-04    0.67      15.2  T
   4    -80.3948527 -0.182542E-07  0.423E-04    0.67      34.5  T
   5    -80.3948527 -0.274923E-09  0.157E-04    0.67      93.1  T
   6    -80.3948527 -0.497863E-09  0.299E-05    0.67     487.5  T
     SCC iter.                  ...        0 min,  0.024 sec
     gradient                   ...        0 min,  0.100 sec
 * total energy  :   -79.4933741 Eh     change       -0.1389985E-04 Eh
   gradient norm :     0.0015910 Eh/α   predicted    -0.7123572E-05 ( -48.75%)
   displ. norm   :     0.0561870 α      lambda       -0.6569713E-05
   maximum displ.:     0.0430508 α      in ANC's #1, #5, #3, ...

........................................................................
.............................. CYCLE   39 ..............................
........................................................................
   1    -80.3946854 -0.803947E+02  0.312E-03    0.66       0.0  T
   2    -80.3946859 -0.574364E-06  0.183E-03    0.66       8.0  T
   3    -80.3946862 -0.238902E-06  0.381E-04    0.66      38.2  T
   4    -80.3946862 -0.316456E-08  0.197E-04    0.66      73.9  T
   5    -80.3946862 -0.938343E-10  0.931E-05    0.66     156.6  T
     SCC iter.                  ...        0 min,  0.021 sec
     gradient                   ...        0 min,  0.101 sec
 * total energy  :   -79.4933819 Eh     change       -0.7844141E-05 Eh
   gradient norm :     0.0010896 Eh/α   predicted    -0.3290772E-05 ( -58.05%)
   displ. norm   :     0.0554647 α      lambda       -0.8111590E-05
   maximum displ.:     0.0422172 α      in ANC's #1, #16, #14, ...

........................................................................
.............................. CYCLE   40 ..............................
........................................................................
   1    -80.3948783 -0.803949E+02  0.355E-03    0.67       0.0  T
   2    -80.3948788 -0.499668E-06  0.190E-03    0.66       7.7  T
   3    -80.3948790 -0.254502E-06  0.737E-04    0.66      19.8  T
   4    -80.3948790 -0.759884E-08  0.315E-04    0.66      46.2  T
   5    -80.3948790 -0.140858E-09  0.815E-05    0.66     178.9  T
   6    -80.3948790 -0.156206E-09  0.182E-05    0.66     801.6  T
     SCC iter.                  ...        0 min,  0.025 sec
     gradient                   ...        0 min,  0.098 sec
 * total energy  :   -79.4933901 Eh     change       -0.8231253E-05 Eh
   gradient norm :     0.0016764 Eh/α   predicted    -0.4064934E-05 ( -50.62%)
   displ. norm   :     0.0580179 α      lambda        0.6920804E-06
   maximum displ.:     0.0442419 α      in ANC's #1, #16, #14, ...

........................................................................
.............................. CYCLE   41 ..............................
........................................................................
   1    -80.3950059 -0.803950E+02  0.373E-03    0.67       0.0  T
   2    -80.3950065 -0.560480E-06  0.204E-03    0.66       7.2  T
   3    -80.3950068 -0.299954E-06  0.744E-04    0.66      19.6  T
   4    -80.3950068 -0.746552E-08  0.321E-04    0.66      45.5  T
   5    -80.3950068 -0.186688E-09  0.819E-05    0.66     178.0  T
   6    -80.3950068 -0.153918E-09  0.186E-05    0.66     783.3  T
     SCC iter.                  ...        0 min,  0.024 sec
     gradient                   ...        0 min,  0.097 sec
 * total energy  :   -79.4933908 Eh     change       -0.6664363E-06 Eh
   gradient norm :     0.0030844 Eh/α   predicted     0.3415499E-06 (-151.25%)
   displ. norm   :     0.0193195 α      lambda       -0.7495145E-05
   maximum displ.:     0.0117244 α      in ANC's #1, #7, #16, ...

........................................................................
.............................. CYCLE   42 ..............................
........................................................................
   1    -80.3945966 -0.803946E+02  0.202E-03    0.66       0.0  T
   2    -80.3945968 -0.216858E-06  0.107E-03    0.66      13.6  T
   3    -80.3945969 -0.374510E-07  0.443E-04    0.66      32.9  T
   4    -80.3945969  0.387317E-09  0.280E-04    0.66      52.1  T
   5    -80.3945969 -0.154208E-08  0.309E-05    0.66     472.7  T
   6    -80.3945969 -0.440679E-10  0.116E-05    0.66    1253.8  T
     SCC iter.                  ...        0 min,  0.024 sec
     gradient                   ...        0 min,  0.099 sec
 * total energy  :   -79.4933965 Eh     change       -0.5745545E-05 Eh
   gradient norm :     0.0017548 Eh/α   predicted    -0.3750706E-05 ( -34.72%)
   displ. norm   :     0.0445067 α      lambda       -0.8698486E-05
   maximum displ.:     0.0333664 α      in ANC's #1, #15, #2, ...
 * RMSD in coord.:     0.4452691 α      energy gain  -0.7731555E-03 Eh

generating ANC from model Hessian ...
Using Lindh-Hessian (1995)
 Shifting diagonal of input Hessian by   9.826662114281464E-003
 Lowest  eigenvalues of input Hessian
    0.000000    0.000000    0.000000    0.000000    0.000000    0.000000
    0.010000    0.010079    0.010484    0.010810    0.011315    0.012037
    0.012399    0.013633    0.014280    0.016084    0.017950    0.018403
 Highest eigenvalues
    2.006291    2.021912    2.104862    2.170511    2.391102    2.462099
 

........................................................................
.............................. CYCLE   43 ..............................
........................................................................
   1    -80.3942793 -0.803943E+02  0.289E-03    0.66       0.0  T
   2    -80.3942797 -0.410908E-06  0.143E-03    0.66      10.2  T
   3    -80.3942798 -0.482155E-07  0.652E-04    0.66      22.4  T
   4    -80.3942798  0.135903E-08  0.386E-04    0.66      37.8  T
   5    -80.3942798 -0.379855E-08  0.674E-05    0.66     216.4  T
   6    -80.3942798 -0.112507E-09  0.227E-05    0.66     641.3  T
     SCC iter.                  ...        0 min,  0.024 sec
     gradient                   ...        0 min,  0.098 sec
 * total energy  :   -79.4934037 Eh     change       -0.7142760E-05 Eh
   gradient norm :     0.0019774 Eh/α   predicted     0.0000000E+00 (-100.00%)
   displ. norm   :     0.0162623 α      lambda       -0.2439840E-05
   maximum displ.:     0.0137165 α      in ANC's #1, #15, #11, ...

........................................................................
.............................. CYCLE   44 ..............................
........................................................................
   1    -80.3946204 -0.803946E+02  0.322E-03    0.66       0.0  T
   2    -80.3946211 -0.639452E-06  0.210E-03    0.67       6.9  T
   3    -80.3946213 -0.248258E-06  0.597E-04    0.66      24.4  T
   4    -80.3946213 -0.904251E-09  0.372E-04    0.66      39.2  T
   5    -80.3946213 -0.100455E-08  0.655E-05    0.66     222.6  T
   6    -80.3946213 -0.107846E-09  0.168E-05    0.66     869.3  T
     SCC iter.                  ...        0 min,  0.026 sec
     gradient                   ...        0 min,  0.098 sec
 * total energy  :   -79.4934075 Eh     change       -0.3798972E-05 Eh
   gradient norm :     0.0006675 Eh/α   predicted    -0.2198650E-05 ( -42.13%)
   displ. norm   :     0.0208602 α      lambda       -0.1958487E-05
   maximum displ.:     0.0178909 α      in ANC's #1, #15, #7, ...

   *** GEOMETRY OPTIMIZATION CONVERGED AFTER 44 ITERATIONS ***

------------------------------------------------------------------------
 total energy gain   :        -0.0249205 Eh      -15.6378 kcal/mol
 total RMSD          :         0.9972223 a0        0.5277 Å
 total power (kW/mol):        -1.4870161 (step)   -8.3235 (real)
------------------------------------------------------------------------

 ANCopt (total)                0 d,  0 h,  0 min,  7.861 sec
 optimizer setup                ...        0 min,  0.001 sec (  0.013%)
 model hessian                  ...        0 min,  0.123 sec (  1.564%)
 ANC generation                 ...        0 min,  0.009 sec (  0.120%)
 coordinate transformation      ...        0 min,  0.002 sec (  0.024%)
 single point calculation       ...        0 min,  7.699 sec ( 97.943%)
 optimization log               ...        0 min,  0.013 sec (  0.166%)
 hessian update                 ...        0 min,  0.002 sec (  0.020%)
 rational function              ...        0 min,  0.007 sec (  0.088%)

================
 final structure:
================
47
 xtb: 6.5.1 (579679a)
C           -2.50846307107203        0.71640791011547        1.92474946164557
N           -1.93330214387180        0.80667260238995        0.57844313088066
C           -1.08863564077367        1.86296561915561        0.38825118903718
O           -0.84758063365818        2.72636748847779        1.21596772142868
C           -0.44014296168134        1.92369695700645       -0.93613969211101
O            0.35700426792336        2.91888662793965       -1.15927943166733
C           -0.55679846610859        0.82563118256538       -1.84155681182830
C           -0.32416969844057        1.03860228420405       -3.32941152179860
C            0.77399961147527       -0.00604759294934       -1.18425792411525
O            0.55206892821441       -0.90646989847019       -0.43273504797095
N            1.90895391565583        0.44262683934628       -1.66343895697354
C            3.14737820529328       -0.34463198415929       -1.47313820546984
C            3.68527536950435       -0.17074644161262       -0.07412125996466
C            4.48955732326681        0.92470255683189        0.23402878198258
C            4.99224538974815        1.08875302911153        1.51638350634055
C            4.67376146976033        0.13978689997758        2.47235517791769
F            5.15726292614608        0.28943352117228        3.71137869713084
C            3.87655012017905       -0.95789289168389        2.19899515953123
C            3.37983769496435       -1.10628353240116        0.91243469737938
N           -1.63593460133194       -0.03533872720928       -1.59118832947201
C           -2.23185122722948       -0.07995403051657       -0.45365226111783
C           -3.25927074061172       -1.19141275525144       -0.29063862361748
C           -3.57841216898859       -1.79007134319021       -1.67029150117895
C           -2.64994441782287       -2.27880616415509        0.60724352294946
N           -4.48028269665737       -0.67560392717283        0.31611059498864
H           -3.50298243958470        0.27995083086323        1.86530657107533
H           -2.56075770826752        1.72326211969068        2.33734703349636
H           -1.85987269528249        0.10112194027439        2.54810521438353
H            0.37978030609224        3.54204571406382       -0.39781585568950
H           -1.27438530897667        1.32551626522241       -3.77837425204204
H            0.01746050444521        0.11638503781689       -3.79420859000299
H            0.40122799534022        1.83001459885625       -3.49938851600076
H            1.97211539709350        1.29320320899131       -2.19633990700459
H            2.90810505843784       -1.39190086147554       -1.67181834356309
H            3.85386189102429        0.01762440879293       -2.22030025090427
H            4.72597007694038        1.65161080978185       -0.53279430429848
H            5.61845752200339        1.93398435374523        1.77032841912690
H            3.65091341836632       -1.67750834630483        2.97526335438094
H            2.74904210365990       -1.95383009995744        0.67255189681855
H           -2.69060309654811       -2.24855016573336       -2.10289411213616
H           -4.35302487741018       -2.54683744253462       -1.55918959868568
H           -3.93603479289819       -1.01292294830803       -2.34325591545731
H           -1.66931929728146       -2.56291203508073        0.22663529106206
H           -2.54335077609774       -1.92620292689418        1.63063691168232
H           -3.29892593907012       -3.15321008309831        0.60605625989200
H           -4.94346050251969       -0.05402315855834       -0.33236656246518
H           -5.10332259335335       -1.44809644967407        0.50894918240553
 
 Bond Distances (Angstroems)
 ---------------------------
C1-N2=1.4668         C1-H26=1.0877        C1-H27=1.0894        C1-H28=1.0899        N2-C1=1.4668         N2-C3=1.3658         
N2-C21=1.3930        C3-N2=1.3658         C3-O4=1.2201         C3-C5=1.4759         O4-C3=1.2201         C5-C3=1.4759         
C5-O6=1.2945         C5-C7=1.4280         O6-C5=1.2945         O6-H29=0.9842        C7-C5=1.4280         C7-C8=1.5209         
C7-C9=1.7014         C7-N20=1.4030        C8-C7=1.5209         C8-H30=1.0894        C8-H31=1.0878        C8-H32=1.0869        
C9-C7=1.7014         C9-O10=1.1937        C9-N11=1.3111        O10-C9=1.1937        N11-C9=1.3111        N11-C12=1.4798       
N11-H33=1.0057       C12-N11=1.4798       C12-C13=1.5089       C12-H34=1.0925       C12-H35=1.0902       C13-C12=1.5089       
C13-C14=1.3935       C13-C19=1.3935       C14-C13=1.3935       C14-C15=1.3871       C14-H36=1.0827       C15-C14=1.3871       
C15-C16=1.3841       C15-H37=1.0821       C16-C15=1.3841       C16-F17=1.3384       C16-C18=1.3839       F17-C16=1.3384       
C18-C16=1.3839       C18-C19=1.3871       C18-H38=1.0823       C19-C13=1.3935       C19-C18=1.3871       C19-H39=1.0834       
N20-C7=1.4030        N20-C21=1.2849       C21-N2=1.3930        C21-N20=1.2849       C21-C22=1.5223       C22-C21=1.5223       
C22-C23=1.5374       C22-C24=1.5362       C22-N25=1.4578       C23-C22=1.5374       C23-H40=1.0888       C23-H41=1.0886       
C23-H42=1.0885       C24-C22=1.5362       C24-H43=1.0896       C24-H44=1.0877       C24-H45=1.0889       N25-C22=1.4578       
N25-H46=1.0107       N25-H47=1.0110       H26-C1=1.0877        H27-C1=1.0894        H28-C1=1.0899        H29-O6=0.9842        
H30-C8=1.0894        H31-C8=1.0878        H32-C8=1.0869        H33-N11=1.0057       H34-C12=1.0925       H35-C12=1.0902       
H36-C14=1.0827       H37-C15=1.0821       H38-C18=1.0823       H39-C19=1.0834       H40-C23=1.0888       H41-C23=1.0886       
H42-C23=1.0885       H43-C24=1.0896       H44-C24=1.0877       H45-C24=1.0889       H46-N25=1.0107       H47-N25=1.0110       
 C  H  Rav=1.0876 sigma=0.0029  Rmin=1.0821  Rmax=1.0925    18
 C  C  Rav=1.4686 sigma=0.0892  Rmin=1.3839  Rmax=1.7014    14
 N  H  Rav=1.0091 sigma=0.0024  Rmin=1.0057  Rmax=1.0110     3
 N  C  Rav=1.3953 sigma=0.0674  Rmin=1.2849  Rmax=1.4798     8
 O  H  Rav=0.9842 sigma=0.0000  Rmin=0.9842  Rmax=0.9842     1
 O  C  Rav=1.2361 sigma=0.0427  Rmin=1.1937  Rmax=1.2945     3
 F  C  Rav=1.3384 sigma=0.0000  Rmin=1.3384  Rmax=1.3384     1
 
 selected bond angles (degree)
 --------------------
H26-C1-N2=109.45               H27-C1-N2=108.03               H27-C1-H26=110.35              H28-C1-N2=109.05               
H28-C1-H26=110.42              H28-C1-H27=109.50              C3-N2-C1=114.70                C21-N2-C1=123.84               
C21-N2-C3=121.44               O4-C3-N2=125.10                C5-C3-N2=115.37                C5-C3-O4=119.53                
O6-C5-C3=117.19                C7-C5-C3=120.09                C7-C5-O6=122.15                H29-O6-C5=111.57               
C8-C7-C5=120.01                C9-C7-C5= 93.84                C9-C7-C8=109.07                N20-C7-C5=114.93               
N20-C7-C8=112.22               N20-C7-C9=103.46               H30-C8-C7=107.86               H31-C8-C7=110.32               
H31-C8-H30=108.73              H32-C8-C7=110.92               H32-C8-H30=109.02              H32-C8-H31=109.93              
O10-C9-C7=117.81               N11-C9-C7=111.63               N11-C9-O10=130.48              
 
 selected dihedral angles (degree)
 ---------------------------------
C3-N2-C1-H26=148.32           C3-N2-C1-H27= 28.14           C3-N2-C1-H28=269.21           C21-N2-C1-H26=329.86          
C21-N2-C1-H27=209.68          C21-N2-C1-H28= 90.75          O4-C3-N2-C1=356.56            O4-C3-N2-C21=175.06           
C5-C3-N2-C1=176.57            C5-C3-N2-C21=355.08           O6-C5-C3-N2=179.29            O6-C5-C3-O4=359.30            
C7-C5-C3-N2=350.86            C7-C5-C3-O4=170.87            H29-O6-C5-C3=356.92           H29-O6-C5-C7=185.54           
C8-C7-C5-C3=159.12            C8-C7-C5-O6=330.27            C9-C7-C5-C3=273.77            C9-C7-C5-O6= 84.91            
N20-C7-C5-C3= 20.53           N20-C7-C5-O6=191.67           H30-C8-C7-C5=271.62           H30-C8-C7-C9=165.27           
H30-C8-C7-N20= 51.24          H31-C8-C7-C5=152.99           H31-C8-C7-C9= 46.64           H31-C8-C7-N20=292.61          
H32-C8-C7-C5= 30.94           H32-C8-C7-C9=284.59           H32-C8-C7-N20=170.56          O10-C9-C7-C5=100.76           
O10-C9-C7-C8=224.37           O10-C9-C7-N20=343.98          N11-C9-C7-C5=277.86           N11-C9-C7-C8= 41.47           
N11-C9-C7-N20=161.08          
           -------------------------------------------------
          |                Final Singlepoint                |
           -------------------------------------------------

          ...................................................
          :                      SETUP                      :
          :.................................................:
          :  # basis functions                 144          :
          :  # atomic orbitals                 144          :
          :  # shells                           94          :
          :  # electrons                       134          :
          :  # halogen bonds                     0          :
          :  max. iterations                   250          :
          :  Hamiltonian                  GFN1-xTB          :
          :  restarted?                      false          :
          :  GBSA solvation                   true          :
          :  PC potential                    false          :
          :  electronic temp.          300.0000000     K    :
          :  accuracy                    1.0000000          :
          :  -> integral cutoff          0.2500000E+02      :
          :  -> integral neglect         0.1000000E-07      :
          :  -> SCF convergence          0.1000000E-05 Eh   :
          :  -> wf. convergence          0.2000000E-04 e    :
          :  Broyden damping             0.4000000          :
          ...................................................

 iter      E             dE          RMSdq      gap      omega  full diag
   1    -80.3946213 -0.803946E+02  0.408E-06    0.66       0.0  T
   2    -80.3946213 -0.127898E-12  0.193E-06    0.66    7565.7  T
   3    -80.3946213 -0.255795E-12  0.935E-07    0.66   15592.5  T

   *** convergence criteria satisfied after 3 iterations ***

         #    Occupation            Energy/Eh            Energy/eV
      -------------------------------------------------------------
         1        2.0000           -0.8952213             -24.3602
       ...           ...                  ...                  ...
        61        2.0000           -0.4901151             -13.3367
        62        2.0000           -0.4861139             -13.2278
        63        2.0000           -0.4785731             -13.0226
        64        2.0000           -0.4736408             -12.8884
        65        2.0000           -0.4647264             -12.6459
        66        2.0000           -0.4527080             -12.3188
        67        2.0000           -0.4271668             -11.6238 (HOMO)
        68        0.0000           -0.4027561             -10.9596 (LUMO)
        69                         -0.3204934              -8.7211
        70                         -0.2921900              -7.9509
        71                         -0.2864664              -7.7951
        72                         -0.2832593              -7.7079
       ...                                ...                  ...
       144                          0.7413347              20.1727
      -------------------------------------------------------------
                  HL-Gap            0.0244107 Eh            0.6642 eV
             Fermi-level           -0.4149615 Eh          -11.2917 eV

 SCC (total)                   0 d,  0 h,  0 min,  0.156 sec
 SCC setup                      ...        0 min,  0.002 sec (  1.426%)
 Dispersion                     ...        0 min,  0.000 sec (  0.262%)
 classical contributions        ...        0 min,  0.000 sec (  0.087%)
 integral evaluation            ...        0 min,  0.042 sec ( 26.707%)
 iterations                     ...        0 min,  0.012 sec (  8.014%)
 molecular gradient             ...        0 min,  0.098 sec ( 62.881%)
 printout                       ...        0 min,  0.001 sec (  0.593%)

         :::::::::::::::::::::::::::::::::::::::::::::::::::::
         ::                     SUMMARY                     ::
         :::::::::::::::::::::::::::::::::::::::::::::::::::::
         :: total energy             -79.493407488087 Eh    ::
         :: total w/o Gsasa/hb       -79.464851445052 Eh    ::
         :: gradient norm              0.000667549049 Eh/a0 ::
         :: HOMO-LUMO gap              0.664249258528 eV    ::
         ::.................................................::
         :: SCC energy               -80.394621302967 Eh    ::
         :: -> electrostatic           0.297274763135 Eh    ::
         :: -> Gsolv                  -0.102365220322 Eh    ::
         ::    -> Gelec               -0.073809177287 Eh    ::
         ::    -> Gsasa               -0.024370960792 Eh    ::
         ::    -> Ghb                 -0.011809361248 Eh    ::
         ::    -> Gshift               0.007624279005 Eh    ::
         :: repulsion energy           0.933356394598 Eh    ::
         :: dispersion energy         -0.032142579718 Eh    ::
         :: halogen bond corr.         0.000000000000 Eh    ::
         :: add. restraining           0.000000000000 Eh    ::
         :: total charge               1.000000000000 e     ::
         :::::::::::::::::::::::::::::::::::::::::::::::::::::

           -------------------------------------------------
          |                Property Printout                |
           -------------------------------------------------

    * Orbital Energies and Occupations

         #    Occupation            Energy/Eh            Energy/eV
      -------------------------------------------------------------
         1        2.0000           -0.8952213             -24.3602
       ...           ...                  ...                  ...
        55        2.0000           -0.5229814             -14.2310
        56        2.0000           -0.5151122             -14.0169
        57        2.0000           -0.5130872             -13.9618
        58        2.0000           -0.5090915             -13.8531
        59        2.0000           -0.4998514             -13.6016
        60        2.0000           -0.4919377             -13.3863
        61        2.0000           -0.4901151             -13.3367
        62        2.0000           -0.4861139             -13.2278
        63        2.0000           -0.4785731             -13.0226
        64        2.0000           -0.4736408             -12.8884
        65        2.0000           -0.4647264             -12.6459
        66        2.0000           -0.4527080             -12.3188
        67        2.0000           -0.4271668             -11.6238 (HOMO)
        68        0.0000           -0.4027561             -10.9596 (LUMO)
        69                         -0.3204934              -8.7211
        70                         -0.2921900              -7.9509
        71                         -0.2864664              -7.7951
        72                         -0.2832593              -7.7079
        73                         -0.2540174              -6.9122
        74                         -0.1620224              -4.4089
        75                         -0.1581280              -4.3029
        76                         -0.1507227              -4.1014
        77                         -0.1449036              -3.9430
        78                         -0.1424827              -3.8772
       ...                                ...                  ...
       144                          0.7413347              20.1727
      -------------------------------------------------------------
                  HL-Gap            0.0244107 Eh            0.6642 eV
             Fermi-level           -0.4149615 Eh          -11.2917 eV

  Mulliken/CM5 charges         n(s)   n(p)   n(d)
     1C     0.03997 -0.04764   1.000  2.960  0.000
     2N    -0.18568 -0.43422   1.456  3.729  0.000
     3C     0.44506  0.55076   0.978  2.577  0.000
     4O    -0.54418 -0.59536   1.724  4.821  0.000
     5C     0.30369  0.33989   1.075  2.622  0.000
     6O    -0.43808 -0.63646   1.693  4.745  0.000
     7C     0.13400  0.19589   1.070  2.796  0.000
     8C    -0.09875 -0.23660   1.022  3.077  0.000
     9C     0.51278  0.62935   0.991  2.496  0.000
    10O    -0.48373 -0.52847   1.718  4.766  0.000
    11N    -0.29817 -0.66699   1.430  3.868  0.000
    12C     0.09019  0.04320   1.021  2.888  0.000
    13C    -0.02117 -0.03065   1.080  2.941  0.000
    14C    -0.02824 -0.08092   1.064  2.964  0.000
    15C    -0.05977 -0.11067   1.060  3.000  0.000
    16C     0.25331  0.26478   1.047  2.700  0.000
    17F    -0.26335 -0.28774   1.827  5.436  0.000
    18C    -0.06095 -0.11181   1.060  3.001  0.000
    19C    -0.01914 -0.07163   1.065  2.955  0.000
    20N    -0.36857 -0.56425   1.524  3.844  0.000
    21C     0.29750  0.44803   1.037  2.666  0.000
    22C     0.14911  0.18389   1.065  2.786  0.000
    23C    -0.11058 -0.25021   1.023  3.088  0.000
    24C    -0.10492 -0.24626   1.021  3.084  0.000
    25N    -0.51280 -0.97754   1.474  4.039  0.000
    26H     0.07328  0.15038   0.927  0.000  0.000
    27H     0.08383  0.15333   0.916  0.000  0.000
    28H     0.07290  0.13604   0.927  0.000  0.000
    29H     0.45700  0.63201   0.543  0.000  0.000
    30H     0.08764  0.14393   0.912  0.000  0.000
    31H     0.07541  0.13267   0.925  0.000  0.000
    32H     0.06935  0.12841   0.931  0.000  0.000
    33H     0.28373  0.48546   0.716  0.000  0.000
    34H     0.07608  0.14441   0.924  0.000  0.000
    35H     0.07764  0.14372   0.922  0.000  0.000
    36H     0.05581  0.11348   0.944  0.000  0.000
    37H     0.06967  0.12678   0.930  0.000  0.000
    38H     0.06811  0.12523   0.932  0.000  0.000
    39H     0.05634  0.11623   0.944  0.000  0.000
    40H     0.04563  0.10382   0.954  0.000  0.000
    41H     0.05134  0.10703   0.949  0.000  0.000
    42H     0.04527  0.10383   0.955  0.000  0.000
    43H     0.04943  0.10612   0.951  0.000  0.000
    44H     0.04600  0.10394   0.954  0.000  0.000
    45H     0.05829  0.11333   0.942  0.000  0.000
    46H     0.23176  0.42314   0.768  0.000  0.000
    47H     0.23796  0.42836   0.762  0.000  0.000

Wiberg/Mayer (AO) data.
largest (>0.10) Wiberg bond orders for each atom

 ---------------------------------------------------------------------------
     #   Z sym  total        # sym  WBO       # sym  WBO       # sym  WBO
 ---------------------------------------------------------------------------
     1   6 C    3.897 --    27 H    0.974    28 H    0.968    26 H    0.958
                             2 N    0.915
     2   7 N    3.533 --     3 C    1.194    21 C    1.103     1 C    0.915
                             4 O    0.164
     3   6 C    3.927 --     4 O    1.586     2 N    1.194     5 C    1.011
     4   8 O    1.942 --     3 C    1.586     2 N    0.164
     5   6 C    3.845 --     6 O    1.266     7 C    1.149     3 C    1.011
                             9 C    0.110
     6   8 O    2.218 --     5 C    1.266    29 H    0.757
     7   6 C    3.959 --     5 C    1.149    20 N    1.061     8 C    0.978
                             9 C    0.597
     8   6 C    3.975 --    31 H    0.980    32 H    0.980     7 C    0.978
                            30 H    0.969
     9   6 C    3.904 --    10 O    1.698    11 N    1.375     7 C    0.597
                             5 C    0.110
    10   8 O    2.082 --     9 C    1.698    11 N    0.181
    11   7 N    3.402 --     9 C    1.375    12 C    0.882    33 H    0.882
                            10 O    0.181
    12   6 C    3.907 --    13 C    0.998    34 H    0.972    35 H    0.971
                            11 N    0.882
    13   6 C    3.984 --    19 C    1.415    14 C    1.415    12 C    0.998
    14   6 C    3.993 --    15 C    1.448    13 C    1.415    36 H    0.971
                            18 C    0.109
    15   6 C    3.990 --    14 C    1.448    16 C    1.396    37 H    0.968
                            19 C    0.109
    16   6 C    3.860 --    18 C    1.397    15 C    1.396    17 F    0.935
    17   9 F    1.066 --    16 C    0.935
    18   6 C    3.991 --    19 C    1.446    16 C    1.397    38 H    0.968
                            14 C    0.109
    19   6 C    3.991 --    18 C    1.446    13 C    1.415    39 H    0.969
                            15 C    0.109
    20   7 N    3.030 --    21 C    1.656     7 C    1.061
    21   6 C    3.902 --    20 N    1.656     2 N    1.103    22 C    0.975
    22   6 C    3.961 --    23 C    0.989    25 N    0.985    24 C    0.976
                            21 C    0.975
    23   6 C    3.992 --    22 C    0.989    41 H    0.984    42 H    0.984
                            40 H    0.983
    24   6 C    3.991 --    43 H    0.984    44 H    0.982    45 H    0.981
                            22 C    0.976
    25   7 N    3.001 --    22 C    0.985    46 H    0.937    47 H    0.933
    26   1 H    1.024 --     1 C    0.958
    27   1 H    1.002 --     1 C    0.974
    28   1 H    0.999 --     1 C    0.968
    29   1 H    0.804 --     6 O    0.757
    30   1 H    0.996 --     8 C    0.969
    31   1 H    0.997 --     8 C    0.980
    32   1 H    0.996 --     8 C    0.980
    33   1 H    0.927 --    11 N    0.882
    34   1 H    0.997 --    12 C    0.972
    35   1 H    0.996 --    12 C    0.971
    36   1 H    0.997 --    14 C    0.971
    37   1 H    0.996 --    15 C    0.968
    38   1 H    0.996 --    18 C    0.968
    39   1 H    1.004 --    19 C    0.969
    40   1 H    1.009 --    23 C    0.983
    41   1 H    1.002 --    23 C    0.984
    42   1 H    1.006 --    23 C    0.984
    43   1 H    1.006 --    24 C    0.984
    44   1 H    1.002 --    24 C    0.982
    45   1 H    0.998 --    24 C    0.981
    46   1 H    0.951 --    25 N    0.937
    47   1 H    0.948 --    25 N    0.933
 ---------------------------------------------------------------------------

Topologies differ in total number of bonds
Writing topology from bond orders to xtbtopo.mol

 dipole moment from electron density (au)
     X       Y       Z   
  -0.8939   1.6595  -3.4125  total (Debye):    9.909

           -------------------------------------------------
          |                Geometry Summary                 |
           -------------------------------------------------

      molecular mass/u    :      349.3806376
   center of mass at/Å    :        0.4296413       0.2569968       0.0288501
  moments of inertia/u·Å² :        0.1398899E+04   0.3831522E+04   0.4069436E+04
rotational constants/cm⁻¹ :        0.1205064E-01   0.4399722E-02   0.4142499E-02

 * 44 selected distances

     #   Z          #   Z                                           value/Å
     1   6 C        2   7 N                                       1.4667989
     2   7 N        3   6 C                                       1.3657927
     3   6 C        4   8 O                                       1.2201169
     5   6 C        6   8 O                                       1.2944643
     5   6 C        7   6 C                                       1.4279837
     7   6 C        8   6 C                                       1.5209158
     9   6 C       10   8 O                                       1.1936501
     9   6 C       11   7 N                                       1.3111235
    11   7 N       12   6 C                                       1.4797588
    13   6 C       14   6 C                                       1.3934973
    14   6 C       15   6 C                                       1.3870984
    15   6 C       16   6 C                                       1.3841427
    16   6 C       17   9 F                                       1.3384123
    16   6 C       18   6 C                                       1.3838977
    13   6 C       19   6 C                                       1.3934902
    18   6 C       19   6 C                                       1.3870765
     7   6 C       20   7 N                                       1.4030284
     2   7 N       21   6 C                                       1.3930038
    20   7 N       21   6 C                                       1.2849497
    22   6 C       23   6 C                                       1.5374283 (max)
    22   6 C       24   6 C                                       1.5361952
    22   6 C       25   7 N                                       1.4577633
     1   6 C       26   1 H                                       1.0877027
     1   6 C       27   1 H                                       1.0893700
     1   6 C       28   1 H                                       1.0898711
     6   8 O       29   1 H                                       0.9842118 (min)
     8   6 C       30   1 H                                       1.0894022
     8   6 C       31   1 H                                       1.0877649
     8   6 C       32   1 H                                       1.0869350
    11   7 N       33   1 H                                       1.0057103
    12   6 C       34   1 H                                       1.0924732
    12   6 C       35   1 H                                       1.0902294
    14   6 C       36   1 H                                       1.0827301
    15   6 C       37   1 H                                       1.0821487
    18   6 C       38   1 H                                       1.0822896
    19   6 C       39   1 H                                       1.0834123
    23   6 C       40   1 H                                       1.0888310
    23   6 C       41   1 H                                       1.0886063
    23   6 C       42   1 H                                       1.0884553
    24   6 C       43   1 H                                       1.0895892
    24   6 C       44   1 H                                       1.0876698
    24   6 C       45   1 H                                       1.0889265
    25   7 N       46   1 H                                       1.0106528
    25   7 N       47   1 H                                       1.0109947

 * 7 distinct bonds (by element types)

   Z      Z             #   av. dist./Å        max./Å        min./Å
   1 H    6 C          18     1.0875782     1.0924732     1.0821487
   6 C    6 C          10     1.4351726     1.5374283     1.3838977
   1 H    7 N           3     1.0091193     1.0109947     1.0057103
   6 C    7 N           8     1.3952774     1.4797588     1.2849497
   1 H    8 O           1     0.9842118     0.9842118     0.9842118
   6 C    8 O           3     1.2360771     1.2944643     1.1936501
   6 C    9 F           1     1.3384123     1.3384123     1.3384123


optimized geometry written to: xtbopt.xyz


           -------------------------------------------------
          | TOTAL ENERGY              -79.493407488087 Eh   |
          | GRADIENT NORM               0.000667549049 Eh/α |
          | HOMO-LUMO GAP               0.664249258528 eV   |
           -------------------------------------------------

------------------------------------------------------------------------
 * finished run on 2023/06/20 at 15:23:18.941     
------------------------------------------------------------------------
 total:
 * wall-time:     0 d,  0 h,  0 min,  8.382 sec
 *  cpu-time:     0 d,  0 h,  0 min,  8.286 sec
 * ratio c/w:     0.989 speedup
 SCF:
 * wall-time:     0 d,  0 h,  0 min,  0.265 sec
 *  cpu-time:     0 d,  0 h,  0 min,  0.228 sec
 * ratio c/w:     0.860 speedup
 ANC optimizer:
 * wall-time:     0 d,  0 h,  0 min,  8.023 sec
 *  cpu-time:     0 d,  0 h,  0 min,  8.001 sec
 * ratio c/w:     0.997 speedup

