43
 energy: -76.186389955085 gnorm: 0.000259358326 xtb: 6.5.1 (579679a)
C           -4.25383800821614       -1.75354757525250        0.13333106373946
N           -2.80394527725950       -1.64451639399114       -0.05683451945085
C           -2.16440761093216       -0.49791139205290       -0.44208693827651
C           -2.89814344068346        0.81454819768766       -0.69444760034475
C           -1.93010757318527        1.82265847266442       -1.33451643031125
C           -3.40462192073803        1.38063982385715        0.63994038454958
N           -4.03146687006804        0.59998424119466       -1.59232713021105
N           -0.87209356016285       -0.45579587434269       -0.56554726369729
C           -0.11111320782754       -1.56286888032469       -0.32593032649319
C            1.35650215659780       -1.42386836727327       -0.48465908843380
O            2.12846072816547       -2.36666513572165       -0.27977971033990
N            1.76320793932905       -0.20759650869380       -0.87111791300868
C            3.17238705603705        0.11788074154979       -1.04470515814926
C            3.75725673267047        0.68995056213988        0.22955386073954
C            3.98169572811995       -0.14207174040592        1.32554302663089
C            4.51649961998229        0.36750046952206        2.49944736246277
C            4.81861819470859        1.71692494525953        2.55146443039722
F            5.33903162989796        2.21741338233766        3.68428869753787
C            4.60718502816919        2.57061670757302        1.48478239782397
C            4.06941242751472        2.04365149254570        0.31777408631033
C           -0.67907292289813       -2.74806999605772        0.05955528931631
O            0.02516637209469       -3.86064211054898        0.30748352449723
C           -2.12260230519319       -2.82891643312850        0.23196705680632
O           -2.73572098108175       -3.82368908969555        0.60100460027228
H           -4.58063972333394       -2.71351554407068       -0.26872645647796
H           -4.76304343134928       -0.94983655435633       -0.38831726304488
H           -4.47963826278101       -1.71996351654461        1.19989000176475
H           -1.52240667294795        1.41638072695073       -2.25845346031007
H           -1.10695245451337        2.04691363334956       -0.65814532737172
H           -2.46589236604469        2.74320795336282       -1.55954617061314
H           -4.14665553119775        0.72429134513024        1.09051725472225
H           -3.86120306522310        2.35470856792977        0.47033900454793
H           -2.57141767199256        1.49980878343216        1.33187019698208
H           -3.68805219495122        0.36014134196099       -2.51268753733275
H           -4.54588734331891        1.46559574305340       -1.67464009495780
H            1.07573563305248        0.52479176451136       -0.96852110428234
H            3.69462945463741       -0.80475935358515       -1.31902728797135
H            3.25551036414834        0.83594283097280       -1.86319885583667
H            3.74018126323349       -1.19659839246678        1.25752179086964
H            4.70034803180494       -0.26652798113308        3.35724119992566
H            4.85547105279059        3.62068780198780        1.56530722519146
H            3.89679254149765        2.69540697359374       -0.53040062768917
H            0.98483344144594       -3.66228566292102        0.16499580951770
