      -----------------------------------------------------------      
     |                   =====================                   |     
     |                           x T B                           |     
     |                   =====================                   |     
     |                         S. Grimme                         |     
     |          Mulliken Center for Theoretical Chemistry        |     
     |                    University of Bonn                     |     
      -----------------------------------------------------------      

   * xtb version 6.5.1 (579679a) compiled by 'ehlert@majestix' on 2022-07-11

   xtb is free software: you can redistribute it and/or modify it under
   the terms of the GNU Lesser General Public License as published by
   the Free Software Foundation, either version 3 of the License, or
   (at your option) any later version.
   
   xtb is distributed in the hope that it will be useful,
   but WITHOUT ANY WARRANTY; without even the implied warranty of
   MERCHANTABILITY or FITNESS FOR A PARTICULAR PURPOSE.  See the
   GNU Lesser General Public License for more details.
   
   Cite this work as:
   * C. Bannwarth, E. Caldeweyher, S. Ehlert, A. Hansen, P. Pracht,
     J. Seibert, S. Spicher, S. Grimme, WIREs Comput. Mol. Sci., 2020, 11,
     e01493. DOI: 10.1002/wcms.1493
   
   for GFN2-xTB:
   * C. Bannwarth, S. Ehlert and S. Grimme., J. Chem. Theory Comput., 2019,
     15, 1652-1671. DOI: 10.1021/acs.jctc.8b01176
   for GFN1-xTB:
   * S. Grimme, C. Bannwarth, P. Shushkov, J. Chem. Theory Comput., 2017,
     13, 1989-2009. DOI: 10.1021/acs.jctc.7b00118
   for GFN0-xTB:
   * P. Pracht, E. Caldeweyher, S. Ehlert, S. Grimme, ChemRxiv, 2019, preprint.
     DOI: 10.26434/chemrxiv.8326202.v1
   for GFN-FF:
   * S. Spicher and S. Grimme, Angew. Chem. Int. Ed., 2020, 59, 15665-15673.
     DOI: 10.1002/anie.202004239
   
   for ALPB and GBSA implicit solvation:
   * S. Ehlert, M. Stahn, S. Spicher, S. Grimme, J. Chem. Theory Comput.,
     2021, 17, 4250-4261. DOI: 10.1021/acs.jctc.1c00471
   
   for DFT-D4:
   * E. Caldeweyher, C. Bannwarth and S. Grimme, J. Chem. Phys., 2017,
     147, 034112. DOI: 10.1063/1.4993215
   * E. Caldeweyher, S. Ehlert, A. Hansen, H. Neugebauer, S. Spicher,
     C. Bannwarth and S. Grimme, J. Chem. Phys., 2019, 150, 154122.
     DOI: 10.1063/1.5090222
   * E. Caldeweyher, J.-M. Mewes, S. Ehlert and S. Grimme, Phys. Chem. Chem. Phys.
     2020, 22, 8499-8512. DOI: 10.1039/D0CP00502A
   
   for sTDA-xTB:
   * S. Grimme and C. Bannwarth, J. Chem. Phys., 2016, 145, 054103.
     DOI: 10.1063/1.4959605
   
   in the mass-spec context:
   * V. Asgeirsson, C. Bauer and S. Grimme, Chem. Sci., 2017, 8, 4879.
     DOI: 10.1039/c7sc00601b
   * J. Koopman and S. Grimme, ACS Omega 2019, 4, 12, 15120-15133.
     DOI: 10.1021/acsomega.9b02011
   
   for metadynamics refer to:
   * S. Grimme, J. Chem. Theory Comput., 2019, 155, 2847-2862
     DOI: 10.1021/acs.jctc.9b00143
   
   for SPH calculations refer to:
   * S. Spicher and S. Grimme, J. Chem. Theory Comput., 2021, 17, 1701-1714
     DOI: 10.1021/acs.jctc.0c01306
   
   with help from (in alphabetical order)
   P. Atkinson, C. Bannwarth, F. Bohle, G. Brandenburg, E. Caldeweyher
   M. Checinski, S. Dohm, S. Ehlert, S. Ehrlich, I. Gerasimov, C. Hölzer
   A. Katbashev, J. Koopman, C. Lavigne, S. Lehtola, F. März, M. Müller,
   F. Musil, H. Neugebauer, J. Pisarek, C. Plett, P. Pracht, F. Pultar,
   J. Seibert, P. Shushkov, S. Spicher, M. Stahn, M. Steiner, T. Strunk,
   J. Stückrath, T. Rose, and J. Unsleber
   
 * started run on 2023/06/20 at 15:36:58.968     

           -------------------------------------------------
          |                Calculation Setup                |
           -------------------------------------------------

          program call               : /lustre/hpc/kemi/ree/PhD/git/ReactivityQM/dep/xtb-6.5.1/bin/xtb --gfn 1 /lustre/hpc/kemi/ree/PhD/git/ReactivityQM/calculations/R03/reac02prodN02/conf06/R03_reac02prodN02_conf06_gfn1.xyz --opt --vfukui --chrg 1 --uhf 0 --alpb DMSO
          hostname                   : node068
          coordinate file            : /lustre/hpc/kemi/ree/PhD/git/ReactivityQM/calculations/R03/reac02prodN02/conf06/R03_reac02prodN02_conf06_gfn1.xyz
          omp threads                :                     1

   ID    Z sym.   atoms
    1    6 C      1, 3, 5, 7-10, 12, 14, 15, 18, 19, 22, 23, 25
    2    8 O      2, 4, 13, 20, 24, 26
    3    7 N      6, 11, 16, 17, 21
    4    1 H      27-46

           -------------------------------------------------
          |                 G F N 1 - x T B                 |
           -------------------------------------------------

        Reference                      10.1021/acs.jctc.7b00118
      * Hamiltonian:
        H0-scaling (s, p, d)           1.850000    2.250000    2.000000
        zeta-weighting                 0.000000
      * Dispersion:
        s8                             2.400000
        a1                             0.630000
        a2                             5.000000
        s9                             0.000000
      * Repulsion:
        kExp                           1.500000
        rExp                           1.000000
      * Coulomb:
        alpha                          2.000000
        third order                    atomic
        anisotropic                    false
      * Halogen bond correction:
        rad-scale                      1.300000
        damping                        0.440000

      * Solvation model:               ALPB
        Solvent                        DMSO
        Parameter file                 internal GFN1-xTB/ALPB
        Dielectric constant                4.6680E+01
        Reference state                gsolv [1 M gas/solution]
        Free energy shift                  7.6243E-03 Eh       4.7843E+00 kcal/mol
        Temperature                        2.9815E+02 K
        Density                            1.1000E+00 kg/L
        Solvent mass                       7.8130E+01 g/mol
        Interaction kernel             P16
        Born radius scaling (c1)           1.7672E+00
        Born radii integrator          GBOBC
        Born offset                        0.0000E+00 a0       0.0000E+00 AA
        H-bond correction              true
        Ion screening                  false
        Surface tension                    1.0000E-05 Eh       1.5569E+01 dyn/cm
        Grid points                               230 per atom

          ...................................................
          :                      SETUP                      :
          :.................................................:
          :  # basis functions                 144          :
          :  # atomic orbitals                 144          :
          :  # shells                           92          :
          :  # electrons                       140          :
          :  # halogen bonds                     0          :
          :  max. iterations                   250          :
          :  Hamiltonian                  GFN1-xTB          :
          :  restarted?                      false          :
          :  GBSA solvation                   true          :
          :  PC potential                    false          :
          :  electronic temp.          300.0000000     K    :
          :  accuracy                    1.0000000          :
          :  -> integral cutoff          0.2500000E+02      :
          :  -> integral neglect         0.1000000E-07      :
          :  -> SCF convergence          0.1000000E-05 Eh   :
          :  -> wf. convergence          0.2000000E-04 e    :
          :  Broyden damping             0.4000000          :
          ...................................................

 iter      E             dE          RMSdq      gap      omega  full diag
   1    -86.7653503 -0.867654E+02  0.829E+00    2.63       0.0  T
   2    -87.0964081 -0.331058E+00  0.497E+00    1.72       1.0  T
   3    -87.0791327  0.172754E-01  0.160E+00    1.42       1.0  T
   4    -87.1164612 -0.373285E-01  0.227E-01    1.00       1.0  T
   5    -87.1186366 -0.217547E-02  0.685E-02    1.10       1.0  T
   6    -87.1188119 -0.175250E-03  0.209E-02    1.14       1.0  T
   7    -87.1188230 -0.111432E-04  0.446E-03    1.16       3.3  T
   8    -87.1188234 -0.340265E-06  0.124E-03    1.16      11.9  T
   9    -87.1188234 -0.200618E-07  0.596E-04    1.16      24.8  T
  10    -87.1188234 -0.262779E-08  0.153E-04    1.16      96.3  T
  11    -87.1188234 -0.389505E-09  0.410E-05    1.16     359.8  T

   *** convergence criteria satisfied after 11 iterations ***

         #    Occupation            Energy/Eh            Energy/eV
      -------------------------------------------------------------
         1        2.0000           -0.9065964             -24.6697
       ...           ...                  ...                  ...
        64        2.0000           -0.4944139             -13.4537
        65        2.0000           -0.4920561             -13.3895
        66        2.0000           -0.4898626             -13.3298
        67        2.0000           -0.4877137             -13.2714
        68        2.0000           -0.4766682             -12.9708
        69        2.0000           -0.4638422             -12.6218
        70        2.0000           -0.4446871             -12.1006 (HOMO)
        71                         -0.4020820             -10.9412 (LUMO)
        72                         -0.3410237              -9.2797
        73                         -0.3060050              -8.3268
        74                         -0.3047423              -8.2925
        75                         -0.2739217              -7.4538
       ...                                ...                  ...
       144                          0.7019915              19.1022
      -------------------------------------------------------------
                  HL-Gap            0.0426050 Eh            1.1593 eV
             Fermi-level           -0.4233846 Eh          -11.5209 eV

 SCC (total)                   0 d,  0 h,  0 min,  0.188 sec
 SCC setup                      ...        0 min,  0.002 sec (  1.170%)
 Dispersion                     ...        0 min,  0.000 sec (  0.186%)
 classical contributions        ...        0 min,  0.000 sec (  0.068%)
 integral evaluation            ...        0 min,  0.032 sec ( 16.956%)
 iterations                     ...        0 min,  0.076 sec ( 40.622%)
 molecular gradient             ...        0 min,  0.075 sec ( 40.080%)
 printout                       ...        0 min,  0.002 sec (  0.904%)

         :::::::::::::::::::::::::::::::::::::::::::::::::::::
         ::                     SUMMARY                     ::
         :::::::::::::::::::::::::::::::::::::::::::::::::::::
         :: total energy             -86.321570313449 Eh    ::
         :: total w/o Gsasa/hb       -86.294856203764 Eh    ::
         :: gradient norm              0.144621036074 Eh/a0 ::
         :: HOMO-LUMO gap              1.159342278769 eV    ::
         ::.................................................::
         :: SCC energy               -87.118823394667 Eh    ::
         :: -> electrostatic           0.401910766252 Eh    ::
         :: -> Gsolv                  -0.117544207043 Eh    ::
         ::    -> Gelec               -0.090830097358 Eh    ::
         ::    -> Gsasa               -0.025882002197 Eh    ::
         ::    -> Ghb                 -0.008456386492 Eh    ::
         ::    -> Gshift               0.007624279005 Eh    ::
         :: repulsion energy           0.826208247918 Eh    ::
         :: dispersion energy         -0.028955166700 Eh    ::
         :: halogen bond corr.         0.000000000000 Eh    ::
         :: add. restraining           0.000000000000 Eh    ::
         :: total charge               1.000000000000 e     ::
         :::::::::::::::::::::::::::::::::::::::::::::::::::::

      ----------------------------------------------------------- 
     |                   =====================                   |
     |                        A N C O P T                        |
     |                   =====================                   |
     |               Approximate Normal Coordinate               |
     |                Rational Function Optimizer                |
      ----------------------------------------------------------- 

          ...................................................
          :                      SETUP                      :
          :.................................................:
          :   optimization level            normal          :
          :   max. optcycles                   200          :
          :   ANC micro-cycles                  20          :
          :   degrees of freedom               132          :
          :.................................................:
          :   RF solver                   davidson          :
          :   write xtbopt.log                true          :
          :   linear?                        false          :
          :   energy convergence         0.5000000E-05 Eh   :
          :   grad. convergence          0.1000000E-02 Eh/α :
          :   maximium RF displ.         1.0000000          :
          :   Hlow (freq-cutoff)         0.1000000E-01      :
          :   Hmax (freq-cutoff)         5.0000000          :
          :   S6 in model hess.         20.0000000          :
          ...................................................

generating ANC from model Hessian ...
Using Lindh-Hessian (1995)
 Shifting diagonal of input Hessian by   9.818644954777710E-003
 Lowest  eigenvalues of input Hessian
    0.000000    0.000000    0.000000    0.000000    0.000000    0.000000
    0.010000    0.010280    0.010322    0.010659    0.011822    0.012055
    0.012488    0.013178    0.013598    0.014019    0.014783    0.015136
 Highest eigenvalues
    1.999533    2.050177    2.147682    2.163308    2.334782    2.393776
 

........................................................................
.............................. CYCLE    1 ..............................
........................................................................
   1    -87.1188234 -0.871188E+02  0.179E-05    1.16       0.0  T
   2    -87.1188234 -0.353850E-11  0.878E-06    1.16    1678.6  T
   3    -87.1188234 -0.738964E-12  0.555E-06    1.16    2655.7  T
     SCC iter.                  ...        0 min,  0.022 sec
     gradient                   ...        0 min,  0.074 sec
 * total energy  :   -86.3215703 Eh     change       -0.3031175E-10 Eh
   gradient norm :     0.1446212 Eh/α   predicted     0.0000000E+00 (-100.00%)
   displ. norm   :     0.3706140 α      lambda       -0.2589748E-01
   maximum displ.:     0.1543407 α      in ANC's #25, #24, #32, ...

........................................................................
.............................. CYCLE    2 ..............................
........................................................................
   1    -87.1548421 -0.871548E+02  0.116E-01    1.45       0.0  T
   2    -87.1556612 -0.819156E-03  0.611E-02    1.40       1.0  T
   3    -87.1557819 -0.120676E-03  0.269E-02    1.42       1.0  T
   4    -87.1557821 -0.195667E-06  0.974E-03    1.43       1.5  T
   5    -87.1557829 -0.813536E-06  0.176E-03    1.43       8.4  T
   6    -87.1557830 -0.105517E-06  0.451E-04    1.43      32.7  T
   7    -87.1557830 -0.376123E-08  0.188E-04    1.43      78.6  T
   8    -87.1557830 -0.396241E-09  0.719E-05    1.43     205.0  T
     SCC iter.                  ...        0 min,  0.054 sec
     gradient                   ...        0 min,  0.074 sec
 * total energy  :   -86.3409641 Eh     change       -0.1939382E-01 Eh
   gradient norm :     0.0760146 Eh/α   predicted    -0.1475091E-01 ( -23.94%)
   displ. norm   :     0.3868296 α      lambda       -0.1261973E-01
   maximum displ.:     0.1859392 α      in ANC's #25, #24, #32, ...

........................................................................
.............................. CYCLE    3 ..............................
........................................................................
   1    -87.1790078 -0.871790E+02  0.112E-01    1.74       0.0  T
   2    -87.1798073 -0.799507E-03  0.563E-02    1.69       1.0  T
   3    -87.1799057 -0.983297E-04  0.249E-02    1.70       1.0  T
   4    -87.1799063 -0.595862E-06  0.826E-03    1.71       1.8  T
   5    -87.1799067 -0.441713E-06  0.180E-03    1.71       8.2  T
   6    -87.1799068 -0.101777E-06  0.484E-04    1.71      30.4  T
   7    -87.1799068 -0.412594E-08  0.206E-04    1.71      71.5  T
   8    -87.1799068 -0.507981E-09  0.780E-05    1.71     189.0  T
   9    -87.1799068 -0.809024E-10  0.274E-05    1.71     538.2  T
     SCC iter.                  ...        0 min,  0.061 sec
     gradient                   ...        0 min,  0.073 sec
 * total energy  :   -86.3479304 Eh     change       -0.6966313E-02 Eh
   gradient norm :     0.0265230 Eh/α   predicted    -0.7255606E-02 (   4.15%)
   displ. norm   :     0.2534922 α      lambda       -0.1922189E-02
   maximum displ.:     0.1327549 α      in ANC's #25, #6, #24, ...

........................................................................
.............................. CYCLE    4 ..............................
........................................................................
   1    -87.1783808 -0.871784E+02  0.228E-02    1.71       0.0  T
   2    -87.1783986 -0.178240E-04  0.914E-03    1.70       1.6  T
   3    -87.1784012 -0.258904E-05  0.405E-03    1.71       3.6  T
   4    -87.1784013 -0.451212E-07  0.133E-03    1.71      11.1  T
   5    -87.1784013 -0.148241E-07  0.360E-04    1.71      41.0  T
   6    -87.1784013 -0.320749E-08  0.979E-05    1.71     150.7  T
   7    -87.1784013 -0.147608E-09  0.388E-05    1.71     379.9  T
     SCC iter.                  ...        0 min,  0.047 sec
     gradient                   ...        0 min,  0.073 sec
 * total energy  :   -86.3493629 Eh     change       -0.1432453E-02 Eh
   gradient norm :     0.0157622 Eh/α   predicted    -0.1022868E-02 ( -28.59%)
   displ. norm   :     0.3123857 α      lambda       -0.1256648E-02
   maximum displ.:     0.1646508 α      in ANC's #6, #25, #8, ...

........................................................................
.............................. CYCLE    5 ..............................
........................................................................
   1    -87.1781029 -0.871781E+02  0.237E-02    1.70       0.0  T
   2    -87.1781248 -0.218906E-04  0.976E-03    1.69       1.5  T
   3    -87.1781283 -0.346125E-05  0.386E-03    1.69       3.8  T
   4    -87.1781283 -0.546136E-07  0.170E-03    1.70       8.7  T
   5    -87.1781283 -0.903968E-08  0.373E-04    1.70      39.5  T
   6    -87.1781283 -0.498451E-08  0.983E-05    1.70     149.9  T
   7    -87.1781283 -0.181714E-09  0.415E-05    1.70     355.2  T
     SCC iter.                  ...        0 min,  0.047 sec
     gradient                   ...        0 min,  0.075 sec
 * total energy  :   -86.3501785 Eh     change       -0.8156260E-03 Eh
   gradient norm :     0.0074748 Eh/α   predicted    -0.6897114E-03 ( -15.44%)
   displ. norm   :     0.2271672 α      lambda       -0.3897799E-03
   maximum displ.:     0.1410887 α      in ANC's #6, #8, #11, ...

........................................................................
.............................. CYCLE    6 ..............................
........................................................................
   1    -87.1794865 -0.871795E+02  0.111E-02    1.70       0.0  T
   2    -87.1794925 -0.600300E-05  0.480E-03    1.69       3.1  T
   3    -87.1794933 -0.799850E-06  0.190E-03    1.69       7.8  T
   4    -87.1794933 -0.133101E-07  0.984E-04    1.69      15.0  T
   5    -87.1794933 -0.173179E-08  0.171E-04    1.69      86.0  T
   6    -87.1794933 -0.116397E-08  0.457E-05    1.69     322.8  T
     SCC iter.                  ...        0 min,  0.041 sec
     gradient                   ...        0 min,  0.076 sec
 * total energy  :   -86.3504725 Eh     change       -0.2939718E-03 Eh
   gradient norm :     0.0060886 Eh/α   predicted    -0.2050445E-03 ( -30.25%)
   displ. norm   :     0.2840006 α      lambda       -0.3584565E-03
   maximum displ.:     0.1832527 α      in ANC's #6, #8, #2, ...

........................................................................
.............................. CYCLE    7 ..............................
........................................................................
   1    -87.1815210 -0.871815E+02  0.805E-03    1.70       0.0  T
   2    -87.1815243 -0.324599E-05  0.392E-03    1.69       3.8  T
   3    -87.1815246 -0.314019E-06  0.192E-03    1.69       7.7  T
   4    -87.1815246 -0.803078E-08  0.900E-04    1.69      16.4  T
   5    -87.1815246 -0.383235E-08  0.117E-04    1.69     125.5  T
   6    -87.1815246 -0.437765E-09  0.373E-05    1.69     395.4  T
     SCC iter.                  ...        0 min,  0.042 sec
     gradient                   ...        0 min,  0.075 sec
 * total energy  :   -86.3507396 Eh     change       -0.2671344E-03 Eh
   gradient norm :     0.0065029 Eh/α   predicted    -0.1936926E-03 ( -27.49%)
   displ. norm   :     0.2651508 α      lambda       -0.2577699E-03
   maximum displ.:     0.1711716 α      in ANC's #6, #8, #2, ...

........................................................................
.............................. CYCLE    8 ..............................
........................................................................
   1    -87.1830585 -0.871831E+02  0.425E-03    1.70       0.0  T
   2    -87.1830590 -0.481640E-06  0.235E-03    1.70       6.3  T
   3    -87.1830590 -0.225100E-07  0.123E-03    1.70      12.0  T
   4    -87.1830590 -0.300689E-08  0.349E-04    1.70      42.2  T
   5    -87.1830590 -0.214953E-08  0.731E-05    1.70     201.8  T
   6    -87.1830590 -0.953833E-10  0.276E-05    1.70     533.4  T
     SCC iter.                  ...        0 min,  0.042 sec
     gradient                   ...        0 min,  0.075 sec
 * total energy  :   -86.3509350 Eh     change       -0.1953893E-03 Eh
   gradient norm :     0.0065175 Eh/α   predicted    -0.1379470E-03 ( -29.40%)
   displ. norm   :     0.2527657 α      lambda       -0.1957853E-03
   maximum displ.:     0.1635440 α      in ANC's #6, #2, #8, ...

........................................................................
.............................. CYCLE    9 ..............................
........................................................................
   1    -87.1837938 -0.871838E+02  0.487E-03    1.70       0.0  T
   2    -87.1837946 -0.809080E-06  0.198E-03    1.70       7.5  T
   3    -87.1837947 -0.749432E-07  0.110E-03    1.70      13.4  T
   4    -87.1837947 -0.407148E-08  0.341E-04    1.70      43.2  T
   5    -87.1837947 -0.923976E-09  0.745E-05    1.70     197.9  T
   6    -87.1837947 -0.916174E-10  0.293E-05    1.70     503.2  T
     SCC iter.                  ...        0 min,  0.040 sec
     gradient                   ...        0 min,  0.072 sec
 * total energy  :   -86.3510770 Eh     change       -0.1419435E-03 Eh
   gradient norm :     0.0052203 Eh/α   predicted    -0.1041544E-03 ( -26.62%)
   displ. norm   :     0.1990609 α      lambda       -0.1170608E-03
   maximum displ.:     0.1275363 α      in ANC's #6, #2, #4, ...

........................................................................
.............................. CYCLE   10 ..............................
........................................................................
   1    -87.1839091 -0.871839E+02  0.508E-03    1.71       0.0  T
   2    -87.1839104 -0.125602E-05  0.192E-03    1.71       7.7  T
   3    -87.1839105 -0.100877E-06  0.901E-04    1.71      16.4  T
   4    -87.1839105 -0.310162E-08  0.457E-04    1.71      32.3  T
   5    -87.1839105 -0.614790E-09  0.545E-05    1.71     270.4  T
   6    -87.1839105 -0.711964E-10  0.217E-05    1.71     680.8  T
     SCC iter.                  ...        0 min,  0.040 sec
     gradient                   ...        0 min,  0.070 sec
 * total energy  :   -86.3511611 Eh     change       -0.8411988E-04 Eh
   gradient norm :     0.0034511 Eh/α   predicted    -0.6085390E-04 ( -27.66%)
   displ. norm   :     0.1676764 α      lambda       -0.7805968E-04
   maximum displ.:     0.1011864 α      in ANC's #6, #2, #4, ...

........................................................................
.............................. CYCLE   11 ..............................
........................................................................
   1    -87.1836662 -0.871837E+02  0.438E-03    1.71       0.0  T
   2    -87.1836672 -0.983853E-06  0.178E-03    1.71       8.3  T
   3    -87.1836672 -0.749867E-07  0.783E-04    1.71      18.8  T
   4    -87.1836672 -0.152872E-08  0.421E-04    1.71      35.0  T
   5    -87.1836672 -0.677758E-09  0.370E-05    1.71     398.1  T
   6    -87.1836672 -0.303828E-10  0.130E-05    1.71    1136.0  T
     SCC iter.                  ...        0 min,  0.041 sec
     gradient                   ...        0 min,  0.073 sec
 * total energy  :   -86.3512170 Eh     change       -0.5586501E-04 Eh
   gradient norm :     0.0028433 Eh/α   predicted    -0.4013101E-04 ( -28.16%)
   displ. norm   :     0.1354741 α      lambda       -0.6070713E-04
   maximum displ.:     0.0655004 α      in ANC's #6, #2, #4, ...

........................................................................
.............................. CYCLE   12 ..............................
........................................................................
   1    -87.1836287 -0.871836E+02  0.349E-03    1.71       0.0  T
   2    -87.1836292 -0.533658E-06  0.154E-03    1.71       9.6  T
   3    -87.1836292 -0.472122E-07  0.678E-04    1.71      21.7  T
   4    -87.1836292 -0.814040E-09  0.327E-04    1.71      45.1  T
   5    -87.1836292 -0.628830E-09  0.355E-05    1.71     415.9  T
   6    -87.1836292 -0.281943E-10  0.143E-05    1.71    1031.2  T
     SCC iter.                  ...        0 min,  0.042 sec
     gradient                   ...        0 min,  0.073 sec
 * total energy  :   -86.3512618 Eh     change       -0.4479831E-04 Eh
   gradient norm :     0.0031300 Eh/α   predicted    -0.3091974E-04 ( -30.98%)
   displ. norm   :     0.1575608 α      lambda       -0.6052423E-04
   maximum displ.:     0.0694908 α      in ANC's #4, #2, #18, ...

........................................................................
.............................. CYCLE   13 ..............................
........................................................................
   1    -87.1830361 -0.871830E+02  0.328E-03    1.71       0.0  T
   2    -87.1830363 -0.264976E-06  0.144E-03    1.71      10.2  T
   3    -87.1830364 -0.280438E-07  0.712E-04    1.71      20.7  T
   4    -87.1830364 -0.256132E-08  0.225E-04    1.71      65.4  T
   5    -87.1830364 -0.727084E-09  0.523E-05    1.71     282.1  T
   6    -87.1830364 -0.299281E-10  0.184E-05    1.71     800.4  T
     SCC iter.                  ...        0 min,  0.042 sec
     gradient                   ...        0 min,  0.075 sec
 * total energy  :   -86.3513045 Eh     change       -0.4271609E-04 Eh
   gradient norm :     0.0038104 Eh/α   predicted    -0.3101412E-04 ( -27.39%)
   displ. norm   :     0.1503242 α      lambda       -0.6826198E-04
   maximum displ.:     0.0676452 α      in ANC's #4, #2, #18, ...

........................................................................
.............................. CYCLE   14 ..............................
........................................................................
   1    -87.1838073 -0.871838E+02  0.396E-03    1.70       0.0  T
   2    -87.1838076 -0.252883E-06  0.187E-03    1.70       7.9  T
   3    -87.1838076 -0.161681E-07  0.988E-04    1.70      14.9  T
   4    -87.1838076 -0.391948E-08  0.229E-04    1.70      64.4  T
   5    -87.1838076 -0.127628E-08  0.628E-05    1.70     234.8  T
   6    -87.1838076 -0.512870E-10  0.223E-05    1.70     661.7  T
     SCC iter.                  ...        0 min,  0.043 sec
     gradient                   ...        0 min,  0.074 sec
 * total energy  :   -86.3513423 Eh     change       -0.3785049E-04 Eh
   gradient norm :     0.0036448 Eh/α   predicted    -0.3491049E-04 (  -7.77%)
   displ. norm   :     0.2007844 α      lambda       -0.6623812E-04
   maximum displ.:     0.0947056 α      in ANC's #4, #18, #2, ...

........................................................................
.............................. CYCLE   15 ..............................
........................................................................
   1    -87.1823326 -0.871823E+02  0.574E-03    1.70       0.0  T
   2    -87.1823329 -0.369039E-06  0.290E-03    1.70       5.1  T
   3    -87.1823329 -0.134102E-07  0.136E-03    1.70      10.8  T
   4    -87.1823330 -0.214018E-07  0.306E-04    1.70      48.2  T
   5    -87.1823330 -0.118652E-08  0.793E-05    1.70     185.9  T
   6    -87.1823330 -0.570139E-10  0.231E-05    1.70     638.4  T
     SCC iter.                  ...        0 min,  0.038 sec
     gradient                   ...        0 min,  0.066 sec
 * total energy  :   -86.3513741 Eh     change       -0.3176559E-04 Eh
   gradient norm :     0.0044742 Eh/α   predicted    -0.3445544E-04 (   8.47%)
   displ. norm   :     0.0547521 α      lambda       -0.4942873E-04
   maximum displ.:     0.0275910 α      in ANC's #6, #12, #20, ...

........................................................................
.............................. CYCLE   16 ..............................
........................................................................
   1    -87.1833567 -0.871834E+02  0.340E-03    1.70       0.0  T
   2    -87.1833571 -0.375404E-06  0.158E-03    1.70       9.4  T
   3    -87.1833571 -0.428875E-07  0.737E-04    1.70      20.0  T
   4    -87.1833571 -0.867118E-09  0.269E-04    1.70      54.8  T
   5    -87.1833571 -0.624610E-09  0.404E-05    1.70     365.2  T
   6    -87.1833571 -0.360814E-10  0.140E-05    1.70    1050.4  T
     SCC iter.                  ...        0 min,  0.036 sec
     gradient                   ...        0 min,  0.065 sec
 * total energy  :   -86.3514124 Eh     change       -0.3831520E-04 Eh
   gradient norm :     0.0027051 Eh/α   predicted    -0.2479284E-04 ( -35.29%)
   displ. norm   :     0.1518198 α      lambda       -0.5830101E-04
   maximum displ.:     0.0727314 α      in ANC's #4, #18, #2, ...

........................................................................
.............................. CYCLE   17 ..............................
........................................................................
   1    -87.1838063 -0.871838E+02  0.462E-03    1.71       0.0  T
   2    -87.1838070 -0.735001E-06  0.209E-03    1.70       7.1  T
   3    -87.1838071 -0.896033E-07  0.874E-04    1.71      16.9  T
   4    -87.1838071 -0.142913E-08  0.352E-04    1.71      41.9  T
   5    -87.1838071 -0.123065E-08  0.676E-05    1.71     218.0  T
   6    -87.1838071 -0.604956E-10  0.271E-05    1.71     543.4  T
     SCC iter.                  ...        0 min,  0.036 sec
     gradient                   ...        0 min,  0.066 sec
 * total energy  :   -86.3514498 Eh     change       -0.3739967E-04 Eh
   gradient norm :     0.0023997 Eh/α   predicted    -0.2984677E-04 ( -20.20%)
   displ. norm   :     0.0979499 α      lambda       -0.2276931E-04
   maximum displ.:     0.0483918 α      in ANC's #4, #5, #18, ...

........................................................................
.............................. CYCLE   18 ..............................
........................................................................
   1    -87.1839060 -0.871839E+02  0.222E-03    1.71       0.0  T
   2    -87.1839062 -0.186910E-06  0.917E-04    1.71      16.1  T
   3    -87.1839062 -0.171026E-07  0.423E-04    1.71      34.8  T
   4    -87.1839062 -0.584592E-09  0.158E-04    1.71      93.5  T
   5    -87.1839062 -0.354362E-09  0.407E-05    1.71     362.4  T
     SCC iter.                  ...        0 min,  0.030 sec
     gradient                   ...        0 min,  0.066 sec
 * total energy  :   -86.3514676 Eh     change       -0.1782670E-04 Eh
   gradient norm :     0.0019671 Eh/α   predicted    -0.1149547E-04 ( -35.52%)
   displ. norm   :     0.2539582 α      lambda       -0.3384284E-04
   maximum displ.:     0.1248395 α      in ANC's #4, #5, #2, ...

........................................................................
.............................. CYCLE   19 ..............................
........................................................................
   1    -87.1833402 -0.871833E+02  0.441E-03    1.71       0.0  T
   2    -87.1833411 -0.833179E-06  0.192E-03    1.72       7.7  T
   3    -87.1833411 -0.618443E-07  0.996E-04    1.72      14.8  T
   4    -87.1833411 -0.298698E-08  0.368E-04    1.72      40.1  T
   5    -87.1833411 -0.203039E-08  0.970E-05    1.72     152.1  T
   6    -87.1833411 -0.996323E-10  0.327E-05    1.72     450.7  T
     SCC iter.                  ...        0 min,  0.037 sec
     gradient                   ...        0 min,  0.065 sec
 * total energy  :   -86.3514957 Eh     change       -0.2807553E-04 Eh
   gradient norm :     0.0024193 Eh/α   predicted    -0.1740863E-04 ( -37.99%)
   displ. norm   :     0.0474667 α      lambda       -0.1883656E-04
   maximum displ.:     0.0259295 α      in ANC's #5, #8, #3, ...

........................................................................
.............................. CYCLE   20 ..............................
........................................................................
   1    -87.1843248 -0.871843E+02  0.266E-03    1.72       0.0  T
   2    -87.1843249 -0.733562E-07  0.142E-03    1.72      10.4  T
   3    -87.1843249 -0.426452E-08  0.673E-04    1.72      21.9  T
   4    -87.1843249 -0.531900E-08  0.143E-04    1.72     103.4  T
   5    -87.1843249 -0.201396E-09  0.335E-05    1.72     439.5  T
     SCC iter.                  ...        0 min,  0.031 sec
     gradient                   ...        0 min,  0.067 sec
 * total energy  :   -86.3515060 Eh     change       -0.1031765E-04 Eh
   gradient norm :     0.0024163 Eh/α   predicted    -0.9440376E-05 (  -8.50%)
   displ. norm   :     0.1162138 α      lambda       -0.2325317E-04
   maximum displ.:     0.0493118 α      in ANC's #5, #4, #1, ...
 * RMSD in coord.:     0.4151977 α      energy gain  -0.2993570E-01 Eh

generating ANC from model Hessian ...
Using Lindh-Hessian (1995)
 Shifting diagonal of input Hessian by   9.821613332433237E-003
 Lowest  eigenvalues of input Hessian
    0.000000    0.000000    0.000000    0.000000    0.000000    0.000000
    0.010000    0.010264    0.010301    0.010633    0.011600    0.011898
    0.012760    0.013404    0.013740    0.013823    0.014961    0.015337
 Highest eigenvalues
    2.060753    2.203132    2.241309    2.352392    2.382325    2.408077
 

........................................................................
.............................. CYCLE   21 ..............................
........................................................................
   1    -87.1840178 -0.871840E+02  0.232E-03    1.72       0.0  T
   2    -87.1840179 -0.138572E-06  0.110E-03    1.72      13.4  T
   3    -87.1840179 -0.132008E-07  0.553E-04    1.72      26.7  T
   4    -87.1840179 -0.736733E-09  0.142E-04    1.72     103.9  T
   5    -87.1840179 -0.234593E-09  0.319E-05    1.72     461.7  T
     SCC iter.                  ...        0 min,  0.029 sec
     gradient                   ...        0 min,  0.070 sec
 * total energy  :   -86.3515216 Eh     change       -0.1557483E-04 Eh
   gradient norm :     0.0015593 Eh/α   predicted     0.0000000E+00 (-100.00%)
   displ. norm   :     0.0206919 α      lambda       -0.4730601E-05
   maximum displ.:     0.0082485 α      in ANC's #13, #2, #17, ...

........................................................................
.............................. CYCLE   22 ..............................
........................................................................
   1    -87.1840005 -0.871840E+02  0.137E-03    1.72       0.0  T
   2    -87.1840006 -0.773413E-07  0.648E-04    1.72      22.7  T
   3    -87.1840006 -0.405386E-08  0.362E-04    1.72      40.8  T
   4    -87.1840006 -0.984386E-10  0.975E-05    1.72     151.2  T
   5    -87.1840006 -0.562181E-10  0.132E-05    1.72    1113.3  T
     SCC iter.                  ...        0 min,  0.032 sec
     gradient                   ...        0 min,  0.067 sec
 * total energy  :   -86.3515276 Eh     change       -0.6037057E-05 Eh
   gradient norm :     0.0006298 Eh/α   predicted    -0.2946012E-05 ( -51.20%)
   displ. norm   :     0.0439061 α      lambda       -0.6354789E-05
   maximum displ.:     0.0188451 α      in ANC's #2, #13, #3, ...

........................................................................
.............................. CYCLE   23 ..............................
........................................................................
   1    -87.1839718 -0.871840E+02  0.157E-03    1.71       0.0  T
   2    -87.1839719 -0.120576E-06  0.676E-04    1.71      21.8  T
   3    -87.1839719 -0.500988E-08  0.370E-04    1.71      39.9  T
   4    -87.1839719 -0.947864E-10  0.141E-04    1.71     104.4  T
   5    -87.1839719 -0.200913E-09  0.253E-05    1.71     583.3  T
     SCC iter.                  ...        0 min,  0.032 sec
     gradient                   ...        0 min,  0.069 sec
 * total energy  :   -86.3515334 Eh     change       -0.5806817E-05 Eh
   gradient norm :     0.0011038 Eh/α   predicted    -0.3182204E-05 ( -45.20%)
   displ. norm   :     0.0529263 α      lambda       -0.5042643E-05
   maximum displ.:     0.0240935 α      in ANC's #2, #13, #3, ...

........................................................................
.............................. CYCLE   24 ..............................
........................................................................
   1    -87.1839446 -0.871839E+02  0.918E-04    1.71       0.0  T
   2    -87.1839446 -0.240538E-07  0.355E-04    1.71      41.6  T
   3    -87.1839446 -0.263880E-08  0.185E-04    1.71      79.7  T
   4    -87.1839446 -0.276245E-09  0.594E-05    1.71     248.1  T
     SCC iter.                  ...        0 min,  0.027 sec
     gradient                   ...        0 min,  0.069 sec
 * total energy  :   -86.3515391 Eh     change       -0.5693081E-05 Eh
   gradient norm :     0.0013707 Eh/α   predicted    -0.2524857E-05 ( -55.65%)
   displ. norm   :     0.0994623 α      lambda       -0.7976919E-05
   maximum displ.:     0.0460554 α      in ANC's #2, #3, #13, ...

........................................................................
.............................. CYCLE   25 ..............................
........................................................................
   1    -87.1838400 -0.871838E+02  0.128E-03    1.71       0.0  T
   2    -87.1838400 -0.422633E-07  0.563E-04    1.71      26.2  T
   3    -87.1838400 -0.408284E-08  0.274E-04    1.71      53.9  T
   4    -87.1838400 -0.530861E-09  0.637E-05    1.71     231.5  T
   5    -87.1838400 -0.689937E-10  0.261E-05    1.71     564.6  T
     SCC iter.                  ...        0 min,  0.033 sec
     gradient                   ...        0 min,  0.069 sec
 * total energy  :   -86.3515481 Eh     change       -0.9017532E-05 Eh
   gradient norm :     0.0012127 Eh/α   predicted    -0.4007861E-05 ( -55.55%)
   displ. norm   :     0.1139930 α      lambda       -0.7422412E-05
   maximum displ.:     0.0548374 α      in ANC's #2, #3, #13, ...

........................................................................
.............................. CYCLE   26 ..............................
........................................................................
   1    -87.1838061 -0.871838E+02  0.149E-03    1.71       0.0  T
   2    -87.1838061 -0.807285E-07  0.672E-04    1.71      21.9  T
   3    -87.1838061 -0.422691E-08  0.328E-04    1.71      44.9  T
   4    -87.1838061 -0.566189E-09  0.105E-04    1.71     140.2  T
   5    -87.1838061 -0.170687E-09  0.361E-05    1.71     408.1  T
     SCC iter.                  ...        0 min,  0.024 sec
     gradient                   ...        0 min,  0.063 sec
 * total energy  :   -86.3515558 Eh     change       -0.7643275E-05 Eh
   gradient norm :     0.0007681 Eh/α   predicted    -0.3737582E-05 ( -51.10%)
   displ. norm   :     0.0743106 α      lambda       -0.3967220E-05
   maximum displ.:     0.0374287 α      in ANC's #2, #3, #15, ...

........................................................................
.............................. CYCLE   27 ..............................
........................................................................
   1    -87.1839437 -0.871839E+02  0.124E-03    1.72       0.0  T
   2    -87.1839438 -0.550852E-07  0.523E-04    1.72      28.2  T
   3    -87.1839438 -0.641289E-08  0.259E-04    1.72      57.0  T
   4    -87.1839438 -0.549591E-09  0.836E-05    1.72     176.4  T
   5    -87.1839438 -0.853788E-10  0.263E-05    1.72     561.1  T
     SCC iter.                  ...        0 min,  0.030 sec
     gradient                   ...        0 min,  0.069 sec
 * total energy  :   -86.3515602 Eh     change       -0.4419514E-05 Eh
   gradient norm :     0.0006241 Eh/α   predicted    -0.1989157E-05 ( -54.99%)
   displ. norm   :     0.0788934 α      lambda       -0.3943985E-05
   maximum displ.:     0.0401139 α      in ANC's #2, #3, #20, ...

   *** GEOMETRY OPTIMIZATION CONVERGED AFTER 27 ITERATIONS ***

------------------------------------------------------------------------
 total energy gain   :        -0.0299899 Eh      -18.8189 kcal/mol
 total RMSD          :         0.4207863 a0        0.2227 Å
 total power (kW/mol):        -2.9162394 (step)  -20.1149 (real)
------------------------------------------------------------------------

 ANCopt (total)                0 d,  0 h,  0 min,  3.914 sec
 optimizer setup                ...        0 min,  0.001 sec (  0.020%)
 model hessian                  ...        0 min,  0.055 sec (  1.396%)
 ANC generation                 ...        0 min,  0.006 sec (  0.156%)
 coordinate transformation      ...        0 min,  0.001 sec (  0.019%)
 single point calculation       ...        0 min,  3.841 sec ( 98.123%)
 optimization log               ...        0 min,  0.006 sec (  0.148%)
 hessian update                 ...        0 min,  0.001 sec (  0.017%)
 rational function              ...        0 min,  0.003 sec (  0.074%)

================
 final structure:
================
46
 xtb: 6.5.1 (579679a)
C            2.31702050073401        0.69911651237981        5.79426387186116
O            2.11804333677431        0.29269467038777        4.43578106913575
C            3.21669673660959        0.02261195872501        3.73057653168844
O            4.33336303047266        0.09950446356548        4.18436451992470
C            2.89535054547637       -0.37432044334111        2.32761603596302
N            1.56786143293971       -0.42675089300071        1.99814940623899
C            1.17550892742812       -0.75156340184431        0.81257100264759
C           -0.33306340544265       -0.81037048706809        0.60674829995581
C           -1.04028602252583       -0.29203328118302        1.86511370190424
C           -0.78438624952732       -2.24412640887401        0.29834819866396
N           -0.66784337636779        0.11866731323495       -0.49640124270886
C           -1.83380820526163        0.23493097328581       -1.08820522742722
O           -2.80351612279328       -0.55112456532432       -0.74606213633299
C           -4.10390978536924       -0.52136269039997       -1.36268600353889
C           -1.90753381625491        1.25832325771160       -2.10212779355141
N           -0.91233236467769        2.04448489401087       -2.41818368967131
N           -1.34702015246873        2.85128949008281       -3.39866216954164
C           -2.58929228299789        2.52295694824281       -3.64198904000620
C           -3.50139140400651        3.11373198735566       -4.63836417012060
O           -2.99396074917290        1.52310978543542       -2.84928747257004
N            2.05878512862269       -1.06313263042680       -0.19046197795618
C            1.68833761839267       -1.47180739427302       -1.54594991366941
C            3.42719673928340       -1.05257458475263        0.03864403055658
O            4.23627198273759       -1.33990092143621       -0.83322703767280
C            3.83932798411832       -0.67572948471867        1.38504715577140
O            5.15433818094826       -0.65974548360517        1.60225051471924
H            2.89802145858404        1.62411294597966        5.82677460554107
H            1.32757931421637        0.85899771188495        6.21705397836140
H            2.84568214843064       -0.08154647299473        6.34691232478918
H           -0.71257806352916        0.72104698047724        2.09044145446955
H           -2.11617802631229       -0.29737129203400        1.70811731743254
H           -0.79487367373097       -0.93868087976981        2.70570184886786
H           -1.83759933713247       -2.37021818972226        0.53819157144853
H           -0.20447955940318       -2.93390691953793        0.91096243893645
H           -0.63794573691157       -2.49131454341024       -0.74921274276463
H            0.02788059530833        0.80754510495795       -0.76063540728677
H           -4.56408443921918        0.45493644760284       -1.21105429685394
H           -4.67670919407279       -1.29911665542085       -0.86144497335598
H           -4.01347232197228       -0.73500176958555       -2.42732976694480
H           -4.39895635223398        3.48500224223980       -4.14338834496589
H           -3.80764341980210        2.35019831088186       -5.35437590462429
H           -3.00153026067949        3.92702249036696       -5.15963191121002
H            2.42413977424262       -1.05336402771384       -2.23304327088887
H            1.71461497920171       -2.55958064779652       -1.61124479863731
H            0.70264598920118       -1.10469961774101       -1.80058398277183
H            5.61572991812895       -0.91093980283486        0.78061639619050
 
 Bond Distances (Angstroems)
 ---------------------------
C1-O2=1.4319         C1-H27=1.0928        C1-H28=1.0878        C1-H29=1.0929        O2-C1=1.4319         O2-C3=1.3332         
C3-O2=1.3332         C3-O4=1.2078         C3-C5=1.4930         O4-C3=1.2078         C5-C3=1.4930         C5-N6=1.3688         
C5-C25=1.3676        N6-C5=1.3688         N6-C7=1.2904         C7-N6=1.2904         C7-C8=1.5237         C7-N21=1.3723        
C8-C7=1.5237         C8-C9=1.5337         C8-C10=1.5344        C8-N11=1.4806        C9-C8=1.5337         C9-H30=1.0883        
C9-H31=1.0873        C9-H32=1.0886        C10-C8=1.5344        C10-H33=1.0875       C10-H34=1.0897       C10-H35=1.0862       
N11-C8=1.4806        N11-C12=1.3127       N11-H36=1.0141       C12-N11=1.3127       C12-O13=1.2943       C12-C15=1.4425       
O13-C12=1.2943       O13-C14=1.4395       C14-O13=1.4395       C14-H37=1.0899       C14-H38=1.0882       C14-H39=1.0896       
C15-C12=1.4425       C15-N16=1.3070       C15-O20=1.3449       N16-C15=1.3070       N16-N17=1.3421       N17-N16=1.3421       
N17-C18=1.3078       C18-N17=1.3078       C18-C19=1.4743       C18-O20=1.3386       C19-C18=1.4743       C19-H40=1.0902       
C19-H41=1.0906       C19-H42=1.0877       O20-C15=1.3449       O20-C18=1.3386       N21-C7=1.3723        N21-C22=1.4634       
N21-C23=1.3875       C22-N21=1.4634       C22-H43=1.0902       C22-H44=1.0900       C22-H45=1.0822       C23-N21=1.3875       
C23-O24=1.2236       C23-C25=1.4576       O24-C23=1.2236       C25-C5=1.3676        C25-C23=1.4576       C25-O26=1.3329       
O26-C25=1.3329       O26-H46=0.9752       H27-C1=1.0928        H28-C1=1.0878        H29-C1=1.0929        H30-C9=1.0883        
H31-C9=1.0873        H32-C9=1.0886        H33-C10=1.0875       H34-C10=1.0897       H35-C10=1.0862       H36-N11=1.0141       
H37-C14=1.0899       H38-C14=1.0882       H39-C14=1.0896       H40-C19=1.0902       H41-C19=1.0906       H42-C19=1.0877       
H43-C22=1.0902       H44-C22=1.0900       H45-C22=1.0822       H46-O26=0.9752       
 C  H  Rav=1.0889 sigma=0.0024  Rmin=1.0822  Rmax=1.0929    18
 C  C  Rav=1.4784 sigma=0.0530  Rmin=1.3676  Rmax=1.5344     8
 N  H  Rav=1.0141 sigma=0.0000  Rmin=1.0141  Rmax=1.0141     1
 N  C  Rav=1.3656 sigma=0.0655  Rmin=1.2904  Rmax=1.4806     9
 N  N  Rav=1.3421 sigma=0.0000  Rmin=1.3421  Rmax=1.3421     1
 O  H  Rav=0.9752 sigma=0.0000  Rmin=0.9752  Rmax=0.9752     1
 O  C  Rav=1.3274 sigma=0.0746  Rmin=1.2078  Rmax=1.4395     9
 
 selected bond angles (degree)
 --------------------
H27-C1-O2=110.02               H28-C1-O2=106.50               H28-C1-H27=110.34              H29-C1-O2=110.14               
H29-C1-H27=109.41              H29-C1-H28=110.39              C3-O2-C1=116.41                O4-C3-O2=123.39                
C5-C3-O2=111.93                C5-C3-O4=124.68                N6-C5-C3=116.43                C25-C5-C3=123.89               
C25-C5-N6=119.68               C7-N6-C5=121.71                C8-C7-N6=115.78                N21-C7-N6=122.21               
N21-C7-C8=121.99               C9-C8-C7=109.43                C10-C8-C7=110.76               C10-C8-C9=110.19               
N11-C8-C7=107.48               N11-C8-C9=107.16               N11-C8-C10=111.72              H30-C9-C8=110.22               
H31-C9-C8=109.64               H31-C9-H30=109.42              H32-C9-C8=109.20               H32-C9-H30=108.98              
H32-C9-H31=109.37              H33-C10-C8=110.42              H34-C10-C8=108.78              H34-C10-H33=108.54             
H35-C10-C8=111.52              H35-C10-H33=108.47             H35-C10-H34=109.05             
 
 selected dihedral angles (degree)
 ---------------------------------
C3-O2-C1-H27= 61.37           C3-O2-C1-H28=180.96           C3-O2-C1-H29=300.68           O4-C3-O2-C1=  0.39            
C5-C3-O2-C1=180.68            N6-C5-C3-O2=358.69            N6-C5-C3-O4=178.98            C25-C5-C3-O2=178.54           
C25-C5-C3-O4=358.83           C7-N6-C5-C3=179.67            C7-N6-C5-C25=359.81           C8-C7-N6-C5=178.11            
N21-C7-N6-C5=359.95           C9-C8-C7-N6=  6.72            C9-C8-C7-N21=184.88           C10-C8-C7-N6=245.05           
C10-C8-C7-N21= 63.21          N11-C8-C7-N6=122.76           N11-C8-C7-N21=300.92          H30-C9-C8-C7= 57.38           
H30-C9-C8-C10=179.40          H30-C9-C8-N11=301.14          H31-C9-C8-C7=177.89           H31-C9-C8-C10=299.90          
H31-C9-C8-N11= 61.64          H32-C9-C8-C7=297.70           H32-C9-C8-C10= 59.71          H32-C9-C8-N11=181.46          
H33-C10-C8-C7=157.55          H33-C10-C8-C9= 36.32          H33-C10-C8-N11=277.33         H34-C10-C8-C7= 38.53          
H34-C10-C8-C9=277.31          H34-C10-C8-N11=158.31         H35-C10-C8-C7=278.22          H35-C10-C8-C9=157.00          
H35-C10-C8-N11= 38.00         
           -------------------------------------------------
          |                Final Singlepoint                |
           -------------------------------------------------

          ...................................................
          :                      SETUP                      :
          :.................................................:
          :  # basis functions                 144          :
          :  # atomic orbitals                 144          :
          :  # shells                           92          :
          :  # electrons                       140          :
          :  # halogen bonds                     0          :
          :  max. iterations                   250          :
          :  Hamiltonian                  GFN1-xTB          :
          :  restarted?                      false          :
          :  GBSA solvation                   true          :
          :  PC potential                    false          :
          :  electronic temp.          300.0000000     K    :
          :  accuracy                    1.0000000          :
          :  -> integral cutoff          0.2500000E+02      :
          :  -> integral neglect         0.1000000E-07      :
          :  -> SCF convergence          0.1000000E-05 Eh   :
          :  -> wf. convergence          0.2000000E-04 e    :
          :  Broyden damping             0.4000000          :
          ...................................................

 iter      E             dE          RMSdq      gap      omega  full diag
   1    -87.1839438 -0.871839E+02  0.864E-06    1.72       0.0  T
   2    -87.1839438 -0.110845E-11  0.495E-06    1.72    2975.7  T
   3    -87.1839438  0.170530E-12  0.204E-06    1.72    7216.1  T

   *** convergence criteria satisfied after 3 iterations ***

         #    Occupation            Energy/Eh            Energy/eV
      -------------------------------------------------------------
         1        2.0000           -0.9056914             -24.6451
       ...           ...                  ...                  ...
        64        2.0000           -0.4932454             -13.4219
        65        2.0000           -0.4909224             -13.3587
        66        2.0000           -0.4885444             -13.2940
        67        2.0000           -0.4878814             -13.2759
        68        2.0000           -0.4740660             -12.9000
        69        2.0000           -0.4597844             -12.5114
        70        2.0000           -0.4424468             -12.0396 (HOMO)
        71                         -0.3793785             -10.3234 (LUMO)
        72                         -0.3342320              -9.0949
        73                         -0.3012878              -8.1985
        74                         -0.2915961              -7.9347
        75                         -0.2586192              -7.0374
       ...                                ...                  ...
       144                          0.7363785              20.0379
      -------------------------------------------------------------
                  HL-Gap            0.0630683 Eh            1.7162 eV
             Fermi-level           -0.4109127 Eh          -11.1815 eV

 SCC (total)                   0 d,  0 h,  0 min,  0.116 sec
 SCC setup                      ...        0 min,  0.002 sec (  1.576%)
 Dispersion                     ...        0 min,  0.000 sec (  0.239%)
 classical contributions        ...        0 min,  0.000 sec (  0.084%)
 integral evaluation            ...        0 min,  0.027 sec ( 23.744%)
 iterations                     ...        0 min,  0.018 sec ( 15.825%)
 molecular gradient             ...        0 min,  0.066 sec ( 57.360%)
 printout                       ...        0 min,  0.001 sec (  1.157%)

         :::::::::::::::::::::::::::::::::::::::::::::::::::::
         ::                     SUMMARY                     ::
         :::::::::::::::::::::::::::::::::::::::::::::::::::::
         :: total energy             -86.351560210372 Eh    ::
         :: total w/o Gsasa/hb       -86.324751633714 Eh    ::
         :: gradient norm              0.000625011193 Eh/a0 ::
         :: HOMO-LUMO gap              1.716176069865 eV    ::
         ::.................................................::
         :: SCC energy               -87.183943804186 Eh    ::
         :: -> electrostatic           0.402781199723 Eh    ::
         :: -> Gsolv                  -0.118505855385 Eh    ::
         ::    -> Gelec               -0.091697278728 Eh    ::
         ::    -> Gsasa               -0.025997052883 Eh    ::
         ::    -> Ghb                 -0.008435802779 Eh    ::
         ::    -> Gshift               0.007624279005 Eh    ::
         :: repulsion energy           0.861345031521 Eh    ::
         :: dispersion energy         -0.028961437707 Eh    ::
         :: halogen bond corr.         0.000000000000 Eh    ::
         :: add. restraining           0.000000000000 Eh    ::
         :: total charge               1.000000000000 e     ::
         :::::::::::::::::::::::::::::::::::::::::::::::::::::

           -------------------------------------------------
          |                Property Printout                |
           -------------------------------------------------

    * Orbital Energies and Occupations

         #    Occupation            Energy/Eh            Energy/eV
      -------------------------------------------------------------
         1        2.0000           -0.9056914             -24.6451
       ...           ...                  ...                  ...
        58        2.0000           -0.5279975             -14.3675
        59        2.0000           -0.5248246             -14.2812
        60        2.0000           -0.5195735             -14.1383
        61        2.0000           -0.5189858             -14.1223
        62        2.0000           -0.5118992             -13.9295
        63        2.0000           -0.5020806             -13.6623
        64        2.0000           -0.4932454             -13.4219
        65        2.0000           -0.4909224             -13.3587
        66        2.0000           -0.4885444             -13.2940
        67        2.0000           -0.4878814             -13.2759
        68        2.0000           -0.4740660             -12.9000
        69        2.0000           -0.4597844             -12.5114
        70        2.0000           -0.4424468             -12.0396 (HOMO)
        71                         -0.3793785             -10.3234 (LUMO)
        72                         -0.3342320              -9.0949
        73                         -0.3012878              -8.1985
        74                         -0.2915961              -7.9347
        75                         -0.2586192              -7.0374
        76                         -0.2497211              -6.7953
        77                         -0.1694419              -4.6107
        78                         -0.1614550              -4.3934
        79                         -0.1574101              -4.2833
        80                         -0.1558229              -4.2402
        81                         -0.1480030              -4.0274
       ...                                ...                  ...
       144                          0.7363785              20.0379
      -------------------------------------------------------------
                  HL-Gap            0.0630683 Eh            1.7162 eV
             Fermi-level           -0.4109127 Eh          -11.1815 eV

  Mulliken/CM5 charges         n(s)   n(p)   n(d)
     1C     0.16258  0.04188   0.981  2.856  0.000
     2O    -0.41294 -0.49511   1.686  4.727  0.000
     3C     0.57783  0.64471   0.966  2.456  0.000
     4O    -0.55546 -0.60104   1.723  4.832  0.000
     5C     0.08247  0.16020   1.041  2.877  0.000
     6N    -0.36134 -0.55058   1.522  3.840  0.000
     7C     0.26225  0.41469   1.013  2.724  0.000
     8C     0.14530  0.18351   1.076  2.779  0.000
     9C    -0.09964 -0.23711   1.022  3.078  0.000
    10C    -0.11206 -0.25279   1.024  3.088  0.000
    11N    -0.25989 -0.62226   1.440  3.820  0.000
    12C     0.44923  0.55675   0.980  2.571  0.000
    13O    -0.35003 -0.44331   1.661  4.689  0.000
    14C     0.14952  0.02750   0.997  2.853  0.000
    15C     0.33461  0.45760   0.977  2.688  0.000
    16N    -0.19097 -0.30170   1.561  3.630  0.000
    17N    -0.21863 -0.32452   1.555  3.664  0.000
    18C     0.41015  0.51672   1.019  2.571  0.000
    19C    -0.11198 -0.24926   1.015  3.097  0.000
    20O    -0.32786 -0.38788   1.690  4.638  0.000
    21N    -0.21470 -0.46437   1.454  3.760  0.000
    22C     0.04242 -0.04590   0.995  2.962  0.000
    23C     0.43595  0.53734   0.988  2.576  0.000
    24O    -0.57278 -0.62410   1.727  4.846  0.000
    25C     0.23812  0.27238   1.026  2.736  0.000
    26O    -0.49426 -0.68651   1.693  4.802  0.000
    27H     0.05383  0.11534   0.946  0.000  0.000
    28H     0.05503  0.11540   0.945  0.000  0.000
    29H     0.05447  0.11617   0.946  0.000  0.000
    30H     0.05770  0.11791   0.942  0.000  0.000
    31H     0.05957  0.11920   0.940  0.000  0.000
    32H     0.06547  0.12396   0.935  0.000  0.000
    33H     0.07105  0.13040   0.929  0.000  0.000
    34H     0.06623  0.12173   0.934  0.000  0.000
    35H     0.06030  0.11973   0.940  0.000  0.000
    36H     0.28609  0.49308   0.714  0.000  0.000
    37H     0.07951  0.14302   0.920  0.000  0.000
    38H     0.08890  0.14952   0.911  0.000  0.000
    39H     0.08011  0.14365   0.920  0.000  0.000
    40H     0.09693  0.15150   0.903  0.000  0.000
    41H     0.09807  0.15254   0.902  0.000  0.000
    42H     0.08536  0.14110   0.915  0.000  0.000
    43H     0.08927  0.15830   0.911  0.000  0.000
    44H     0.07801  0.14153   0.922  0.000  0.000
    45H     0.05144  0.12519   0.949  0.000  0.000
    46H     0.41479  0.59387   0.585  0.000  0.000

Wiberg/Mayer (AO) data.
largest (>0.10) Wiberg bond orders for each atom

 ---------------------------------------------------------------------------
     #   Z sym  total        # sym  WBO       # sym  WBO       # sym  WBO
 ---------------------------------------------------------------------------
     1   6 C    3.869 --    28 H    0.986    27 H    0.979    29 H    0.979
                             2 O    0.895
     2   8 O    2.200 --     3 C    1.114     1 C    0.895     4 O    0.136
     3   6 C    3.854 --     4 O    1.665     2 O    1.114     5 C    0.997
     4   8 O    1.930 --     3 C    1.665     2 O    0.136
     5   6 C    3.961 --    25 C    1.491     6 N    1.183     3 C    0.997
     6   7 N    3.037 --     7 C    1.586     5 C    1.183
     7   6 C    3.939 --     6 N    1.586    21 N    1.166     8 C    0.975
     8   6 C    3.898 --     9 C    0.984    10 C    0.983     7 C    0.975
                            11 N    0.885
     9   6 C    3.982 --     8 C    0.984    31 H    0.983    30 H    0.983
                            32 H    0.980
    10   6 C    3.982 --     8 C    0.983    34 H    0.981    35 H    0.980
                            33 H    0.979
    11   7 N    3.468 --    12 C    1.430     8 C    0.885    36 H    0.874
                            13 O    0.110
    12   6 C    3.895 --    11 N    1.430    13 O    1.216    15 C    1.089
    13   8 O    2.291 --    12 C    1.216    14 C    0.852    11 N    0.110
    14   6 C    3.818 --    38 H    0.980    37 H    0.974    39 H    0.974
                            13 O    0.852
    15   6 C    3.891 --    16 N    1.537    12 C    1.089    20 O    1.057
    16   7 N    3.037 --    15 C    1.537    17 N    1.264
    17   7 N    2.991 --    18 C    1.540    16 N    1.264
    18   6 C    3.848 --    17 N    1.540    20 O    1.089    19 C    1.041
    19   6 C    3.977 --    18 C    1.041    42 H    0.979    40 H    0.955
                            41 H    0.952
    20   8 O    2.344 --    18 C    1.089    15 C    1.057
    21   7 N    3.505 --     7 C    1.166    23 C    1.121    22 C    0.926
                            24 O    0.135
    22   6 C    3.917 --    45 H    0.980    44 H    0.973    43 H    0.972
                            21 N    0.926
    23   6 C    3.911 --    24 O    1.572    21 N    1.121    25 C    1.069
    24   8 O    1.915 --    23 C    1.572    21 N    0.135
    25   6 C    3.922 --     5 C    1.491    26 O    1.121    23 C    1.069
    26   8 O    2.098 --    25 C    1.121    46 H    0.803
    27   1 H    1.006 --     1 C    0.979
    28   1 H    1.010 --     1 C    0.986
    29   1 H    1.006 --     1 C    0.979
    30   1 H    1.006 --     9 C    0.983
    31   1 H    1.001 --     9 C    0.983
    32   1 H    1.006 --     9 C    0.980
    33   1 H    1.003 --    10 C    0.979
    34   1 H    0.997 --    10 C    0.981
    35   1 H    0.999 --    10 C    0.980
    36   1 H    0.935 --    11 N    0.874
    37   1 H    1.001 --    14 C    0.974
    38   1 H    1.001 --    14 C    0.980
    39   1 H    1.001 --    14 C    0.974
    40   1 H    0.991 --    19 C    0.955
    41   1 H    0.990 --    19 C    0.952
    42   1 H    0.994 --    19 C    0.979
    43   1 H    1.003 --    22 C    0.972
    44   1 H    0.998 --    22 C    0.973
    45   1 H    1.003 --    22 C    0.980
    46   1 H    0.842 --    26 O    0.803
 ---------------------------------------------------------------------------

Topologies differ in total number of bonds
Writing topology from bond orders to xtbtopo.mol

 dipole moment from electron density (au)
     X       Y       Z   
  -6.9547   0.3670  -4.0330  total (Debye):   20.456

           -------------------------------------------------
          |                Geometry Summary                 |
           -------------------------------------------------

      molecular mass/u    :      366.3497991
   center of mass at/Å    :        0.5099080       0.0887760       0.1642987
  moments of inertia/u·Å² :        0.1402221E+04   0.5090591E+04   0.5502378E+04
rotational constants/cm⁻¹ :        0.1202210E-01   0.3311528E-02   0.3063700E-02

 * 43 selected distances

     #   Z          #   Z                                           value/Å
     1   6 C        2   8 O                                       1.4318682
     2   8 O        3   6 C                                       1.3331533
     3   6 C        4   8 O                                       1.2077996
     5   6 C        6   7 N                                       1.3687677
     6   7 N        7   6 C                                       1.2903643
     8   6 C        9   6 C                                       1.5337279
     8   6 C       10   6 C                                       1.5344248 (max)
     8   6 C       11   7 N                                       1.4805837
    11   7 N       12   6 C                                       1.3127161
    12   6 C       13   8 O                                       1.2943257
    13   8 O       14   6 C                                       1.4394912
    12   6 C       15   6 C                                       1.4425001
    15   6 C       16   7 N                                       1.3070454
    17   7 N       18   6 C                                       1.3077655
    18   6 C       19   6 C                                       1.4743486
    15   6 C       20   8 O                                       1.3448730
    18   6 C       20   8 O                                       1.3385914
     7   6 C       21   7 N                                       1.3723439
    21   7 N       22   6 C                                       1.4634187
    21   7 N       23   6 C                                       1.3874984
    23   6 C       24   8 O                                       1.2236497
     5   6 C       25   6 C                                       1.3676174
    25   6 C       26   8 O                                       1.3329235
     1   6 C       27   1 H                                       1.0928118
     1   6 C       28   1 H                                       1.0877994
     1   6 C       29   1 H                                       1.0928579
     9   6 C       30   1 H                                       1.0883460
     9   6 C       31   1 H                                       1.0872995
     9   6 C       32   1 H                                       1.0885628
    10   6 C       33   1 H                                       1.0875118
    10   6 C       34   1 H                                       1.0896721
    10   6 C       35   1 H                                       1.0862463
    11   7 N       36   1 H                                       1.0141027
    14   6 C       37   1 H                                       1.0899143
    14   6 C       38   1 H                                       1.0882294
    14   6 C       39   1 H                                       1.0896271
    19   6 C       40   1 H                                       1.0901678
    19   6 C       41   1 H                                       1.0906177
    19   6 C       42   1 H                                       1.0876686
    22   6 C       43   1 H                                       1.0902280
    22   6 C       44   1 H                                       1.0900481
    22   6 C       45   1 H                                       1.0822176
    26   8 O       46   1 H                                       0.9752250 (min)

 * 6 distinct bonds (by element types)

   Z      Z             #   av. dist./Å        max./Å        min./Å
   1 H    6 C          18     1.0888792     1.0928579     1.0822176
   6 C    6 C           5     1.4705237     1.5344248     1.3676174
   1 H    7 N           1     1.0141027     1.0141027     1.0141027
   6 C    7 N           9     1.3656115     1.4805837     1.2903643
   1 H    8 O           1     0.9752250     0.9752250     0.9752250
   6 C    8 O           9     1.3274084     1.4394912     1.2077996


optimized geometry written to: xtbopt.xyz


           -------------------------------------------------
          | TOTAL ENERGY              -86.351560210372 Eh   |
          | GRADIENT NORM               0.000625011193 Eh/α |
          | HOMO-LUMO GAP               1.716176069865 eV   |
           -------------------------------------------------

------------------------------------------------------------------------
 * finished run on 2023/06/20 at 15:37:03.285     
------------------------------------------------------------------------
 total:
 * wall-time:     0 d,  0 h,  0 min,  4.317 sec
 *  cpu-time:     0 d,  0 h,  0 min,  4.259 sec
 * ratio c/w:     0.987 speedup
 SCF:
 * wall-time:     0 d,  0 h,  0 min,  0.188 sec
 *  cpu-time:     0 d,  0 h,  0 min,  0.188 sec
 * ratio c/w:     0.998 speedup
 ANC optimizer:
 * wall-time:     0 d,  0 h,  0 min,  4.035 sec
 *  cpu-time:     0 d,  0 h,  0 min,  4.029 sec
 * ratio c/w:     0.998 speedup

