      -----------------------------------------------------------      
     |                   =====================                   |     
     |                           x T B                           |     
     |                   =====================                   |     
     |                         S. Grimme                         |     
     |          Mulliken Center for Theoretical Chemistry        |     
     |                    University of Bonn                     |     
      -----------------------------------------------------------      

   * xtb version 6.5.1 (579679a) compiled by 'ehlert@majestix' on 2022-07-11

   xtb is free software: you can redistribute it and/or modify it under
   the terms of the GNU Lesser General Public License as published by
   the Free Software Foundation, either version 3 of the License, or
   (at your option) any later version.
   
   xtb is distributed in the hope that it will be useful,
   but WITHOUT ANY WARRANTY; without even the implied warranty of
   MERCHANTABILITY or FITNESS FOR A PARTICULAR PURPOSE.  See the
   GNU Lesser General Public License for more details.
   
   Cite this work as:
   * C. Bannwarth, E. Caldeweyher, S. Ehlert, A. Hansen, P. Pracht,
     J. Seibert, S. Spicher, S. Grimme, WIREs Comput. Mol. Sci., 2020, 11,
     e01493. DOI: 10.1002/wcms.1493
   
   for GFN2-xTB:
   * C. Bannwarth, S. Ehlert and S. Grimme., J. Chem. Theory Comput., 2019,
     15, 1652-1671. DOI: 10.1021/acs.jctc.8b01176
   for GFN1-xTB:
   * S. Grimme, C. Bannwarth, P. Shushkov, J. Chem. Theory Comput., 2017,
     13, 1989-2009. DOI: 10.1021/acs.jctc.7b00118
   for GFN0-xTB:
   * P. Pracht, E. Caldeweyher, S. Ehlert, S. Grimme, ChemRxiv, 2019, preprint.
     DOI: 10.26434/chemrxiv.8326202.v1
   for GFN-FF:
   * S. Spicher and S. Grimme, Angew. Chem. Int. Ed., 2020, 59, 15665-15673.
     DOI: 10.1002/anie.202004239
   
   for ALPB and GBSA implicit solvation:
   * S. Ehlert, M. Stahn, S. Spicher, S. Grimme, J. Chem. Theory Comput.,
     2021, 17, 4250-4261. DOI: 10.1021/acs.jctc.1c00471
   
   for DFT-D4:
   * E. Caldeweyher, C. Bannwarth and S. Grimme, J. Chem. Phys., 2017,
     147, 034112. DOI: 10.1063/1.4993215
   * E. Caldeweyher, S. Ehlert, A. Hansen, H. Neugebauer, S. Spicher,
     C. Bannwarth and S. Grimme, J. Chem. Phys., 2019, 150, 154122.
     DOI: 10.1063/1.5090222
   * E. Caldeweyher, J.-M. Mewes, S. Ehlert and S. Grimme, Phys. Chem. Chem. Phys.
     2020, 22, 8499-8512. DOI: 10.1039/D0CP00502A
   
   for sTDA-xTB:
   * S. Grimme and C. Bannwarth, J. Chem. Phys., 2016, 145, 054103.
     DOI: 10.1063/1.4959605
   
   in the mass-spec context:
   * V. Asgeirsson, C. Bauer and S. Grimme, Chem. Sci., 2017, 8, 4879.
     DOI: 10.1039/c7sc00601b
   * J. Koopman and S. Grimme, ACS Omega 2019, 4, 12, 15120-15133.
     DOI: 10.1021/acsomega.9b02011
   
   for metadynamics refer to:
   * S. Grimme, J. Chem. Theory Comput., 2019, 155, 2847-2862
     DOI: 10.1021/acs.jctc.9b00143
   
   for SPH calculations refer to:
   * S. Spicher and S. Grimme, J. Chem. Theory Comput., 2021, 17, 1701-1714
     DOI: 10.1021/acs.jctc.0c01306
   
   with help from (in alphabetical order)
   P. Atkinson, C. Bannwarth, F. Bohle, G. Brandenburg, E. Caldeweyher
   M. Checinski, S. Dohm, S. Ehlert, S. Ehrlich, I. Gerasimov, C. Hölzer
   A. Katbashev, J. Koopman, C. Lavigne, S. Lehtola, F. März, M. Müller,
   F. Musil, H. Neugebauer, J. Pisarek, C. Plett, P. Pracht, F. Pultar,
   J. Seibert, P. Shushkov, S. Spicher, M. Stahn, M. Steiner, T. Strunk,
   J. Stückrath, T. Rose, and J. Unsleber
   
 * started run on 2023/06/20 at 15:34:22.817     

           -------------------------------------------------
          |                Calculation Setup                |
           -------------------------------------------------

          program call               : /lustre/hpc/kemi/ree/PhD/git/ReactivityQM/dep/xtb-6.5.1/bin/xtb --gfn 1 /lustre/hpc/kemi/ree/PhD/git/ReactivityQM/calculations/RaltegravirCLI/reac02prodN13/conf03/RaltegravirCLI_reac02prodN13_conf03_gfn1.xyz --opt --vfukui --chrg 1 --uhf 0 --alpb DMSO
          hostname                   : node308
          coordinate file            : /lustre/hpc/kemi/ree/PhD/git/ReactivityQM/calculations/RaltegravirCLI/reac02prodN13/conf03/RaltegravirCLI_reac02prodN13_conf03_gfn1.xyz
          omp threads                :                     1

   ID    Z sym.   atoms
    1    6 C      1, 3-6, 9, 10, 13-17, 19-21, 23, 24
    2    7 N      2, 7, 8, 12
    3    8 O      11, 22, 25
    4    9 F      18
    5    1 H      26-47

           -------------------------------------------------
          |                 G F N 1 - x T B                 |
           -------------------------------------------------

        Reference                      10.1021/acs.jctc.7b00118
      * Hamiltonian:
        H0-scaling (s, p, d)           1.850000    2.250000    2.000000
        zeta-weighting                 0.000000
      * Dispersion:
        s8                             2.400000
        a1                             0.630000
        a2                             5.000000
        s9                             0.000000
      * Repulsion:
        kExp                           1.500000
        rExp                           1.000000
      * Coulomb:
        alpha                          2.000000
        third order                    atomic
        anisotropic                    false
      * Halogen bond correction:
        rad-scale                      1.300000
        damping                        0.440000

      * Solvation model:               ALPB
        Solvent                        DMSO
        Parameter file                 internal GFN1-xTB/ALPB
        Dielectric constant                4.6680E+01
        Reference state                gsolv [1 M gas/solution]
        Free energy shift                  7.6243E-03 Eh       4.7843E+00 kcal/mol
        Temperature                        2.9815E+02 K
        Density                            1.1000E+00 kg/L
        Solvent mass                       7.8130E+01 g/mol
        Interaction kernel             P16
        Born radius scaling (c1)           1.7672E+00
        Born radii integrator          GBOBC
        Born offset                        0.0000E+00 a0       0.0000E+00 AA
        H-bond correction              true
        Ion screening                  false
        Surface tension                    1.0000E-05 Eh       1.5569E+01 dyn/cm
        Grid points                               230 per atom

          ...................................................
          :                      SETUP                      :
          :.................................................:
          :  # basis functions                 144          :
          :  # atomic orbitals                 144          :
          :  # shells                           94          :
          :  # electrons                       134          :
          :  # halogen bonds                     0          :
          :  max. iterations                   250          :
          :  Hamiltonian                  GFN1-xTB          :
          :  restarted?                      false          :
          :  GBSA solvation                   true          :
          :  PC potential                    false          :
          :  electronic temp.          300.0000000     K    :
          :  accuracy                    1.0000000          :
          :  -> integral cutoff          0.2500000E+02      :
          :  -> integral neglect         0.1000000E-07      :
          :  -> SCF convergence          0.1000000E-05 Eh   :
          :  -> wf. convergence          0.2000000E-04 e    :
          :  Broyden damping             0.4000000          :
          ...................................................

 iter      E             dE          RMSdq      gap      omega  full diag
   1    -79.9543475 -0.799543E+02  0.855E+00    0.59       0.0  T
   2    -79.8082730  0.146075E+00  0.561E+00    0.22       1.0  T
   3    -79.8331498 -0.248769E-01  0.361E+00    0.50       1.0  T
   4    -80.0368605 -0.203711E+00  0.234E+00    0.71       1.0  T
   5    -80.1354990 -0.986385E-01  0.159E+00    0.27       1.0  T
   6    -80.2422864 -0.106787E+00  0.780E-01    0.11       1.0  T
   7    -80.2441838 -0.189747E-02  0.720E-01    0.32       1.0  T
   8    -80.2587209 -0.145371E-01  0.445E-01    0.22       1.0  T
   9    -80.2178689  0.408520E-01  0.814E-01    0.15       1.0  T
  10    -80.2598233 -0.419544E-01  0.553E-01    0.19       1.0  T
  11    -80.2662856 -0.646225E-02  0.415E-01    0.15       1.0  T
  12    -80.2691782 -0.289260E-02  0.320E-01    0.17       1.0  T
  13    -80.2744720 -0.529379E-02  0.152E-01    0.15       1.0  T
  14    -80.2758949 -0.142291E-02  0.652E-02    0.15       1.0  T
  15    -80.2759243 -0.294581E-04  0.562E-02    0.15       1.0  T
  16    -80.2759381 -0.137165E-04  0.544E-02    0.15       1.0  T
  17    -80.2761440 -0.205982E-03  0.241E-02    0.15       1.0  T
  18    -80.2761801 -0.360657E-04  0.133E-02    0.15       1.1  T
  19    -80.2761943 -0.141854E-04  0.262E-03    0.15       5.6  T
  20    -80.2761949 -0.587753E-06  0.487E-04    0.15      29.9  T
  21    -80.2761948  0.373949E-07  0.825E-04    0.15      17.7  T
  22    -80.2761949 -0.585639E-07  0.866E-05    0.15     168.5  T
  23    -80.2761949 -0.578495E-09  0.303E-05    0.15     481.0  T

   *** convergence criteria satisfied after 23 iterations ***

         #    Occupation            Energy/Eh            Energy/eV
      -------------------------------------------------------------
         1        2.0000           -0.8730248             -23.7562
       ...           ...                  ...                  ...
        61        2.0000           -0.4835531             -13.1581
        62        2.0000           -0.4706824             -12.8079
        63        2.0000           -0.4661405             -12.6843
        64        2.0000           -0.4654449             -12.6654
        65        2.0000           -0.4582429             -12.4694
        66        1.9903           -0.4531679             -12.3313
        67        1.9040           -0.4509501             -12.2710 (HOMO)
        68        0.1057           -0.4453699             -12.1191 (LUMO)
        69                         -0.3512416              -9.5578
        70                         -0.3076634              -8.3719
        71                         -0.2837394              -7.7209
        72                         -0.2824046              -7.6846
       ...                                ...                  ...
       144                          0.6582063              17.9107
      -------------------------------------------------------------
                  HL-Gap            0.0055801 Eh            0.1518 eV
             Fermi-level           -0.4481115 Eh          -12.1937 eV

 SCC (total)                   0 d,  0 h,  0 min,  0.480 sec
 SCC setup                      ...        0 min,  0.002 sec (  0.495%)
 Dispersion                     ...        0 min,  0.000 sec (  0.101%)
 classical contributions        ...        0 min,  0.000 sec (  0.032%)
 integral evaluation            ...        0 min,  0.096 sec ( 20.087%)
 iterations                     ...        0 min,  0.205 sec ( 42.766%)
 molecular gradient             ...        0 min,  0.168 sec ( 35.025%)
 printout                       ...        0 min,  0.007 sec (  1.484%)

         :::::::::::::::::::::::::::::::::::::::::::::::::::::
         ::                     SUMMARY                     ::
         :::::::::::::::::::::::::::::::::::::::::::::::::::::
         :: total energy             -79.399389505094 Eh    ::
         :: total w/o Gsasa/hb       -79.370540206881 Eh    ::
         :: gradient norm              0.133718547022 Eh/a0 ::
         :: HOMO-LUMO gap              0.151843562590 eV    ::
         ::.................................................::
         :: SCC energy               -80.276194900006 Eh    ::
         :: -> electrostatic           0.323300431189 Eh    ::
         :: -> Gsolv                  -0.108625898183 Eh    ::
         ::    -> Gelec               -0.079776599971 Eh    ::
         ::    -> Gsasa               -0.025194217271 Eh    ::
         ::    -> Ghb                 -0.011279359946 Eh    ::
         ::    -> Gshift               0.007624279005 Eh    ::
         :: repulsion energy           0.907007286764 Eh    ::
         :: dispersion energy         -0.030201891852 Eh    ::
         :: halogen bond corr.         0.000000000000 Eh    ::
         :: add. restraining           0.000000000000 Eh    ::
         :: total charge               1.000000000004 e     ::
         :::::::::::::::::::::::::::::::::::::::::::::::::::::

      ----------------------------------------------------------- 
     |                   =====================                   |
     |                        A N C O P T                        |
     |                   =====================                   |
     |               Approximate Normal Coordinate               |
     |                Rational Function Optimizer                |
      ----------------------------------------------------------- 

          ...................................................
          :                      SETUP                      :
          :.................................................:
          :   optimization level            normal          :
          :   max. optcycles                   200          :
          :   ANC micro-cycles                  20          :
          :   degrees of freedom               135          :
          :.................................................:
          :   RF solver                   davidson          :
          :   write xtbopt.log                true          :
          :   linear?                        false          :
          :   energy convergence         0.5000000E-05 Eh   :
          :   grad. convergence          0.1000000E-02 Eh/α :
          :   maximium RF displ.         1.0000000          :
          :   Hlow (freq-cutoff)         0.1000000E-01      :
          :   Hmax (freq-cutoff)         5.0000000          :
          :   S6 in model hess.         20.0000000          :
          ...................................................

generating ANC from model Hessian ...
Using Lindh-Hessian (1995)
 Shifting diagonal of input Hessian by   9.737212954132953E-003
 Lowest  eigenvalues of input Hessian
    0.000000    0.000000    0.000000    0.000000    0.000000    0.000000
    0.010000    0.010241    0.010363    0.010905    0.010925    0.011664
    0.012320    0.013938    0.015070    0.016548    0.016732    0.017519
 Highest eigenvalues
    1.939215    1.982021    2.039292    2.119939    2.149946    2.308812
 

........................................................................
.............................. CYCLE    1 ..............................
........................................................................
   1    -80.2761949 -0.802762E+02  0.203E-06    0.15       0.0  T
   2    -80.2761949  0.945022E-11  0.922E-06    0.15    1582.6  T
   3    -80.2761949 -0.937916E-11  0.175E-06    0.15    8329.1  T
     SCC iter.                  ...        0 min,  0.012 sec
     gradient                   ...        0 min,  0.148 sec
 * total energy  :   -79.3993895 Eh     change       -0.7757706E-10 Eh
   gradient norm :     0.1337193 Eh/α   predicted     0.0000000E+00 (-100.00%)
   displ. norm   :     0.3621375 α      lambda       -0.2437094E-01
   maximum displ.:     0.1439945 α      in ANC's #30, #12, #31, ...

........................................................................
.............................. CYCLE    2 ..............................
........................................................................
   1    -80.2842788 -0.802843E+02  0.174E-01    0.33       0.0  T
   2    -80.1184089  0.165870E+00  0.137E+00    0.16       1.0  T
   3    -80.2865085 -0.168100E+00  0.107E-01    0.16       1.0  T
   4    -80.2867267 -0.218240E-03  0.808E-02    0.23       1.0  T
   5    -80.2870737 -0.346958E-03  0.567E-02    0.19       1.0  T
   6    -80.2871916 -0.117922E-03  0.373E-02    0.18       1.0  T
   7    -80.2872809 -0.892612E-04  0.180E-02    0.19       1.0  T
   8    -80.2872979 -0.170304E-04  0.795E-03    0.20       1.8  T
   9    -80.2873013 -0.340498E-05  0.498E-03    0.19       2.9  T
  10    -80.2873025 -0.122807E-05  0.283E-03    0.19       5.2  T
  11    -80.2873031 -0.545482E-06  0.948E-04    0.19      15.4  T
  12    -80.2873031 -0.463254E-07  0.513E-04    0.19      28.4  T
  13    -80.2873032 -0.148937E-07  0.269E-04    0.19      54.3  T
  14    -80.2873032 -0.508385E-08  0.825E-05    0.19     176.9  T
  15    -80.2873032 -0.499270E-09  0.149E-05    0.19     977.5  T
     SCC iter.                  ...        0 min,  0.067 sec
     gradient                   ...        0 min,  0.179 sec
 * total energy  :   -79.4181259 Eh     change       -0.1873643E-01 Eh
   gradient norm :     0.0825349 Eh/α   predicted    -0.1380153E-01 ( -26.34%)
   displ. norm   :     0.4342644 α      lambda       -0.1630615E-01
   maximum displ.:     0.2014494 α      in ANC's #30, #12, #31, ...

........................................................................
.............................. CYCLE    3 ..............................
........................................................................
   1    -80.3001688 -0.803002E+02  0.188E-01    0.47       0.0  T
   2    -80.2476183  0.525505E-01  0.780E-01    0.17       1.0  T
   3    -80.3021179 -0.544997E-01  0.116E-01    0.36       1.0  T
   4    -80.3024404 -0.322504E-03  0.853E-02    0.34       1.0  T
   5    -80.3027892 -0.348731E-03  0.559E-02    0.33       1.0  T
   6    -80.3029984 -0.209227E-03  0.127E-02    0.31       1.1  T
   7    -80.3030073 -0.888256E-05  0.316E-03    0.30       4.6  T
   8    -80.3030077 -0.384854E-06  0.159E-03    0.30       9.2  T
   9    -80.3030077 -0.170927E-07  0.129E-03    0.30      11.3  T
  10    -80.3030078 -0.983840E-07  0.441E-04    0.30      33.0  T
  11    -80.3030078 -0.790079E-08  0.253E-04    0.30      57.6  T
  12    -80.3030078 -0.380966E-08  0.113E-04    0.30     129.0  T
  13    -80.3030078 -0.836678E-09  0.392E-05    0.30     371.7  T
     SCC iter.                  ...        0 min,  0.052 sec
     gradient                   ...        0 min,  0.174 sec
 * total energy  :   -79.4280998 Eh     change       -0.9973862E-02 Eh
   gradient norm :     0.0297845 Eh/α   predicted    -0.9690634E-02 (  -2.84%)
   displ. norm   :     0.3938970 α      lambda       -0.3876275E-02
   maximum displ.:     0.2242262 α      in ANC's #12, #7, #30, ...

........................................................................
.............................. CYCLE    4 ..............................
........................................................................
   1    -80.3093066 -0.803093E+02  0.894E-02    0.40       0.0  T
   2    -80.3069635  0.234316E-02  0.182E-01    0.26       1.0  T
   3    -80.3098016 -0.283812E-02  0.382E-02    0.36       1.0  T
   4    -80.3098755 -0.738975E-04  0.187E-02    0.35       1.0  T
   5    -80.3098971 -0.216156E-04  0.704E-03    0.34       2.1  T
   6    -80.3098971  0.101229E-07  0.510E-03    0.33       2.9  T
   7    -80.3098989 -0.176516E-05  0.186E-03    0.33       7.9  T
   8    -80.3098992 -0.298030E-06  0.303E-04    0.34      48.2  T
   9    -80.3098992 -0.171819E-08  0.215E-04    0.34      67.9  T
  10    -80.3098992 -0.296323E-08  0.421E-05    0.34     346.1  T
  11    -80.3098992 -0.924132E-10  0.150E-05    0.34     971.8  T
     SCC iter.                  ...        0 min,  0.087 sec
     gradient                   ...        0 min,  0.110 sec
 * total energy  :   -79.4310748 Eh     change       -0.2975049E-02 Eh
   gradient norm :     0.0171707 Eh/α   predicted    -0.2239006E-02 ( -24.74%)
   displ. norm   :     0.5033142 α      lambda       -0.3079499E-02
   maximum displ.:     0.2480028 α      in ANC's #12, #7, #19, ...

........................................................................
.............................. CYCLE    5 ..............................
........................................................................
   1    -80.3133533 -0.803134E+02  0.968E-02    0.45       0.0  T
   2    -80.3129788  0.374493E-03  0.113E-01    0.31       1.0  T
   3    -80.3139784 -0.999517E-03  0.275E-02    0.40       1.0  T
   4    -80.3140244 -0.460330E-04  0.101E-02    0.38       1.4  T
   5    -80.3140280 -0.363403E-05  0.476E-03    0.37       3.1  T
   6    -80.3140279  0.172888E-06  0.353E-03    0.37       4.1  T
   7    -80.3140288 -0.949107E-06  0.518E-04    0.37      28.2  T
   8    -80.3140288 -0.121702E-07  0.410E-04    0.38      35.6  T
   9    -80.3140288 -0.920848E-08  0.115E-04    0.38     127.2  T
  10    -80.3140288 -0.574715E-09  0.304E-05    0.38     479.3  T
     SCC iter.                  ...        0 min,  0.072 sec
     gradient                   ...        0 min,  0.165 sec
 * total energy  :   -79.4331951 Eh     change       -0.2120272E-02 Eh
   gradient norm :     0.0153658 Eh/α   predicted    -0.1929818E-02 (  -8.98%)
   displ. norm   :     0.3720691 α      lambda       -0.1356709E-02
   maximum displ.:     0.2083120 α      in ANC's #7, #12, #19, ...

........................................................................
.............................. CYCLE    6 ..............................
........................................................................
   1    -80.3181708 -0.803182E+02  0.621E-02    0.49       0.0  T
   2    -80.3182246 -0.537776E-04  0.595E-02    0.37       1.0  T
   3    -80.3184860 -0.261376E-03  0.874E-03    0.42       1.7  T
   4    -80.3184851  0.914739E-06  0.800E-03    0.41       1.8  T
   5    -80.3184871 -0.197656E-05  0.399E-03    0.41       3.7  T
   6    -80.3184879 -0.863482E-06  0.134E-03    0.41      10.9  T
   7    -80.3184880 -0.128006E-06  0.240E-04    0.41      60.7  T
   8    -80.3184880 -0.688061E-09  0.928E-05    0.41     157.1  T
   9    -80.3184880 -0.543764E-09  0.112E-05    0.41    1301.2  T
     SCC iter.                  ...        0 min,  0.038 sec
     gradient                   ...        0 min,  0.097 sec
 * total energy  :   -79.4341596 Eh     change       -0.9644767E-03 Eh
   gradient norm :     0.0126594 Eh/α   predicted    -0.7722631E-03 ( -19.93%)
   displ. norm   :     0.3697865 α      lambda       -0.9499380E-03
   maximum displ.:     0.2180792 α      in ANC's #7, #19, #12, ...

........................................................................
.............................. CYCLE    7 ..............................
........................................................................
   1    -80.3195339 -0.803195E+02  0.632E-02    0.53       0.0  T
   2    -80.3197192 -0.185313E-03  0.440E-02    0.43       1.0  T
   3    -80.3198476 -0.128386E-03  0.720E-03    0.46       2.0  T
   4    -80.3198475  0.143543E-06  0.491E-03    0.46       3.0  T
   5    -80.3198481 -0.624554E-06  0.113E-03    0.46      13.0  T
   6    -80.3198481 -0.494581E-07  0.322E-04    0.46      45.4  T
   7    -80.3198481 -0.273265E-08  0.199E-04    0.46      73.5  T
   8    -80.3198481 -0.327901E-09  0.665E-05    0.46     219.4  T
     SCC iter.                  ...        0 min,  0.039 sec
     gradient                   ...        0 min,  0.097 sec
 * total energy  :   -79.4347744 Eh     change       -0.6147915E-03 Eh
   gradient norm :     0.0109705 Eh/α   predicted    -0.5399199E-03 ( -12.18%)
   displ. norm   :     0.2485117 α      lambda       -0.5887091E-03
   maximum displ.:     0.1478913 α      in ANC's #7, #19, #1, ...

........................................................................
.............................. CYCLE    8 ..............................
........................................................................
   1    -80.3226372 -0.803226E+02  0.356E-02    0.55       0.0  T
   2    -80.3227122 -0.750356E-04  0.231E-02    0.49       1.0  T
   3    -80.3227410 -0.287892E-04  0.802E-03    0.50       1.8  T
   4    -80.3227406  0.417867E-06  0.374E-03    0.50       3.9  T
   5    -80.3227412 -0.614548E-06  0.720E-04    0.50      20.3  T
   6    -80.3227412 -0.242785E-07  0.288E-04    0.50      50.7  T
   7    -80.3227412 -0.104460E-08  0.139E-04    0.50     105.0  T
   8    -80.3227412 -0.280323E-09  0.255E-05    0.50     571.6  T
     SCC iter.                  ...        0 min,  0.032 sec
     gradient                   ...        0 min,  0.097 sec
 * total energy  :   -79.4351664 Eh     change       -0.3920502E-03 Eh
   gradient norm :     0.0100235 Eh/α   predicted    -0.3125562E-03 ( -20.28%)
   displ. norm   :     0.2378231 α      lambda       -0.3959729E-03
   maximum displ.:     0.1235424 α      in ANC's #7, #14, #3, ...

........................................................................
.............................. CYCLE    9 ..............................
........................................................................
   1    -80.3228390 -0.803228E+02  0.408E-02    0.57       0.0  T
   2    -80.3229211 -0.821345E-04  0.217E-02    0.53       1.0  T
   3    -80.3229512 -0.300799E-04  0.480E-03    0.54       3.0  T
   4    -80.3229515 -0.378414E-06  0.267E-03    0.54       5.5  T
   5    -80.3229517 -0.123238E-06  0.572E-04    0.54      25.5  T
   6    -80.3229517 -0.515513E-08  0.168E-04    0.54      87.1  T
   7    -80.3229517 -0.241641E-09  0.783E-05    0.54     186.3  T
     SCC iter.                  ...        0 min,  0.028 sec
     gradient                   ...        0 min,  0.097 sec
 * total energy  :   -79.4354501 Eh     change       -0.2836577E-03 Eh
   gradient norm :     0.0091850 Eh/α   predicted    -0.2091866E-03 ( -26.25%)
   displ. norm   :     0.2318124 α      lambda       -0.3031358E-03
   maximum displ.:     0.0913379 α      in ANC's #7, #3, #14, ...

........................................................................
.............................. CYCLE   10 ..............................
........................................................................
   1    -80.3232767 -0.803233E+02  0.392E-02    0.60       0.0  T
   2    -80.3233489 -0.721920E-04  0.196E-02    0.57       1.0  T
   3    -80.3233727 -0.238240E-04  0.460E-03    0.57       3.2  T
   4    -80.3233731 -0.367824E-06  0.261E-03    0.57       5.6  T
   5    -80.3233732 -0.104884E-06  0.578E-04    0.57      25.2  T
   6    -80.3233732 -0.412514E-08  0.153E-04    0.57      95.2  T
   7    -80.3233732 -0.162004E-09  0.639E-05    0.57     228.4  T
     SCC iter.                  ...        0 min,  0.029 sec
     gradient                   ...        0 min,  0.097 sec
 * total energy  :   -79.4356656 Eh     change       -0.2154896E-03 Eh
   gradient norm :     0.0080069 Eh/α   predicted    -0.1597140E-03 ( -25.88%)
   displ. norm   :     0.2293710 α      lambda       -0.2179110E-03
   maximum displ.:     0.1063777 α      in ANC's #3, #14, #1, ...

........................................................................
.............................. CYCLE   11 ..............................
........................................................................
   1    -80.3234170 -0.803234E+02  0.397E-02    0.64       0.0  T
   2    -80.3234881 -0.711058E-04  0.179E-02    0.61       1.0  T
   3    -80.3235071 -0.190097E-04  0.458E-03    0.61       3.2  T
   4    -80.3235076 -0.405195E-06  0.251E-03    0.62       5.8  T
   5    -80.3235076 -0.762093E-07  0.643E-04    0.62      22.7  T
   6    -80.3235076 -0.677137E-08  0.155E-04    0.62      94.1  T
   7    -80.3235076 -0.179838E-09  0.604E-05    0.62     241.4  T
     SCC iter.                  ...        0 min,  0.027 sec
     gradient                   ...        0 min,  0.097 sec
 * total energy  :   -79.4358353 Eh     change       -0.1697202E-03 Eh
   gradient norm :     0.0069451 Eh/α   predicted    -0.1146889E-03 ( -32.42%)
   displ. norm   :     0.3535305 α      lambda       -0.3102086E-03
   maximum displ.:     0.1741148 α      in ANC's #3, #14, #1, ...

........................................................................
.............................. CYCLE   12 ..............................
........................................................................
   1    -80.3238896 -0.803239E+02  0.639E-02    0.73       0.0  T
   2    -80.3240735 -0.183931E-03  0.256E-02    0.70       1.0  T
   3    -80.3241105 -0.369223E-04  0.773E-03    0.70       1.9  T
   4    -80.3241114 -0.972812E-06  0.400E-03    0.70       3.6  T
   5    -80.3241115 -0.101457E-06  0.116E-03    0.70      12.6  T
   6    -80.3241116 -0.305657E-07  0.248E-04    0.70      58.8  T
   7    -80.3241116 -0.497039E-09  0.934E-05    0.70     156.2  T
   8    -80.3241116 -0.953690E-10  0.250E-05    0.70     582.3  T
     SCC iter.                  ...        0 min,  0.031 sec
     gradient                   ...        0 min,  0.097 sec
 * total energy  :   -79.4361212 Eh     change       -0.2859108E-03 Eh
   gradient norm :     0.0087298 Eh/α   predicted    -0.1745141E-03 ( -38.96%)
   displ. norm   :     0.8434118 α      lambda       -0.9109454E-03
   maximum displ.:     0.4211776 α      in ANC's #3, #14, #1, ...

........................................................................
.............................. CYCLE   13 ..............................
........................................................................
   1    -80.3207565 -0.803208E+02  0.166E-01    0.96       0.0  T
   2    -80.3220300 -0.127348E-02  0.513E-02    0.94       1.0  T
   3    -80.3221534 -0.123442E-03  0.211E-02    0.93       1.0  T
   4    -80.3221584 -0.500990E-05  0.104E-02    0.93       1.4  T
   5    -80.3221585 -0.320965E-07  0.328E-03    0.93       4.4  T
   6    -80.3221588 -0.308324E-06  0.454E-04    0.93      32.1  T
   7    -80.3221588 -0.148270E-08  0.175E-04    0.93      83.5  T
   8    -80.3221588 -0.317968E-09  0.460E-05    0.93     317.0  T
     SCC iter.                  ...        0 min,  0.033 sec
     gradient                   ...        0 min,  0.097 sec
 * total energy  :   -79.4375148 Eh     change       -0.1393617E-02 Eh
   gradient norm :     0.0288213 Eh/α   predicted    -0.7794736E-03 ( -44.07%)
   displ. norm   :     0.7180461 α      lambda       -0.2616171E-02
   maximum displ.:     0.3380975 α      in ANC's #3, #14, #1, ...

........................................................................
.............................. CYCLE   14 ..............................
........................................................................
   1    -80.3197661 -0.803198E+02  0.180E-01    1.08       0.0  T
   2    -80.3213500 -0.158392E-02  0.465E-02    1.09       1.0  T
   3    -80.3214275 -0.775178E-04  0.235E-02    1.08       1.0  T
   4    -80.3214327 -0.521795E-05  0.115E-02    1.08       1.3  T
   5    -80.3214327  0.290089E-07  0.285E-03    1.08       5.1  T
   6    -80.3214330 -0.274001E-06  0.536E-04    1.08      27.2  T
   7    -80.3214330 -0.344406E-08  0.188E-04    1.08      77.4  T
   8    -80.3214330 -0.272294E-09  0.613E-05    1.08     237.8  T
     SCC iter.                  ...        0 min,  0.032 sec
     gradient                   ...        0 min,  0.097 sec
 * total energy  :   -79.4413868 Eh     change       -0.3872021E-02 Eh
   gradient norm :     0.0506061 Eh/α   predicted    -0.1982523E-02 ( -48.80%)
   displ. norm   :     0.5903383 α      lambda       -0.6576485E-02
   maximum displ.:     0.2477915 α      in ANC's #3, #14, #1, ...

........................................................................
.............................. CYCLE   15 ..............................
........................................................................
   1    -80.3279827 -0.803280E+02  0.189E-01    1.12       0.0  T
   2    -80.3297621 -0.177946E-02  0.501E-02    1.13       1.0  T
   3    -80.3298188 -0.566572E-04  0.254E-02    1.12       1.0  T
   4    -80.3298231 -0.434027E-05  0.119E-02    1.13       1.2  T
   5    -80.3298234 -0.239433E-06  0.254E-03    1.13       5.8  T
   6    -80.3298236 -0.209383E-06  0.778E-04    1.13      18.7  T
   7    -80.3298236 -0.704189E-08  0.227E-04    1.13      64.2  T
   8    -80.3298236 -0.308901E-09  0.730E-05    1.13     199.7  T
   9    -80.3298236 -0.441389E-10  0.171E-05    1.13     855.1  T
     SCC iter.                  ...        0 min,  0.035 sec
     gradient                   ...        0 min,  0.097 sec
 * total energy  :   -79.4491660 Eh     change       -0.7779171E-02 Eh
   gradient norm :     0.0658955 Eh/α   predicted    -0.4434191E-02 ( -43.00%)
   displ. norm   :     0.5565678 α      lambda       -0.9756926E-02
   maximum displ.:     0.2115900 α      in ANC's #3, #42, #1, ...

........................................................................
.............................. CYCLE   16 ..............................
........................................................................
   1    -80.3349188 -0.803349E+02  0.172E-01    1.10       0.0  T
   2    -80.3363338 -0.141498E-02  0.523E-02    1.11       1.0  T
   3    -80.3363737 -0.399498E-04  0.249E-02    1.10       1.0  T
   4    -80.3363768 -0.311708E-05  0.115E-02    1.10       1.3  T
   5    -80.3363776 -0.770099E-06  0.220E-03    1.11       6.6  T
   6    -80.3363777 -0.126256E-06  0.892E-04    1.11      16.4  T
   7    -80.3363777 -0.912078E-08  0.267E-04    1.11      54.6  T
   8    -80.3363777 -0.547615E-09  0.931E-05    1.10     156.7  T
   9    -80.3363777 -0.725890E-10  0.184E-05    1.10     794.6  T
     SCC iter.                  ...        0 min,  0.037 sec
     gradient                   ...        0 min,  0.097 sec
 * total energy  :   -79.4583868 Eh     change       -0.9220805E-02 Eh
   gradient norm :     0.0673605 Eh/α   predicted    -0.6389656E-02 ( -30.70%)
   displ. norm   :     0.8931810 α      lambda       -0.3146164E-01
   maximum displ.:     0.4165135 α      in ANC's #42, #14, #45, ...

........................................................................
.............................. CYCLE   17 ..............................
........................................................................
   1    -80.4054755 -0.804055E+02  0.251E-01    1.02       0.0  T
   2    -80.4078810 -0.240549E-02  0.111E-01    1.01       1.0  T
   3    -80.4080051 -0.124084E-03  0.513E-02    0.98       1.0  T
   4    -80.4080181 -0.129577E-04  0.220E-02    1.00       1.0  T
   5    -80.4080214 -0.336471E-05  0.379E-03    1.00       3.8  T
   6    -80.4080217 -0.282417E-06  0.129E-03    1.00      11.3  T
   7    -80.4080218 -0.265688E-07  0.498E-04    1.00      29.3  T
   8    -80.4080218 -0.351277E-08  0.166E-04    1.00      87.8  T
   9    -80.4080218 -0.254090E-09  0.361E-05    1.00     404.4  T
     SCC iter.                  ...        0 min,  0.037 sec
     gradient                   ...        0 min,  0.097 sec
 * total energy  :   -79.4538546 Eh     change        0.4532272E-02 Eh
   gradient norm :     0.1624157 Eh/α   predicted    -0.2828042E-01 (-723.98%)
   displ. norm   :     0.3536051 α      lambda       -0.3807070E-01
   maximum displ.:     0.1098084 α      in ANC's #84, #8, #30, ...

........................................................................
.............................. CYCLE   18 ..............................
........................................................................
   1    -80.3664234 -0.803664E+02  0.163E-01    0.98       0.0  T
   2    -80.3673880 -0.964553E-03  0.700E-02    0.98       1.0  T
   3    -80.3674485 -0.605413E-04  0.332E-02    1.00       1.0  T
   4    -80.3674519 -0.341962E-05  0.125E-02    1.00       1.2  T
   5    -80.3674527 -0.750160E-06  0.196E-03    1.00       7.4  T
   6    -80.3674528 -0.126764E-06  0.567E-04    1.00      25.7  T
   7    -80.3674528 -0.790970E-08  0.174E-04    1.00      83.6  T
   8    -80.3674528 -0.490644E-09  0.578E-05    1.00     252.3  T
     SCC iter.                  ...        0 min,  0.031 sec
     gradient                   ...        0 min,  0.097 sec
 * total energy  :   -79.4707081 Eh     change       -0.1685357E-01 Eh
   gradient norm :     0.0555588 Eh/α   predicted    -0.2141548E-01 (  27.07%)
   displ. norm   :     0.4271939 α      lambda       -0.1006637E-01
   maximum displ.:     0.1476699 α      in ANC's #30, #31, #37, ...

........................................................................
.............................. CYCLE   19 ..............................
........................................................................
   1    -80.3575653 -0.803576E+02  0.658E-02    0.96       0.0  T
   2    -80.3576653 -0.999969E-04  0.329E-02    0.96       1.0  T
   3    -80.3576752 -0.991406E-05  0.166E-02    0.96       1.0  T
   4    -80.3576764 -0.122092E-05  0.437E-03    0.96       3.3  T
   5    -80.3576767 -0.243978E-06  0.110E-03    0.96      13.3  T
   6    -80.3576767 -0.250443E-07  0.239E-04    0.96      61.1  T
   7    -80.3576767 -0.947182E-09  0.815E-05    0.96     179.0  T
   8    -80.3576767 -0.100414E-09  0.166E-05    0.96     881.2  T
     SCC iter.                  ...        0 min,  0.033 sec
     gradient                   ...        0 min,  0.097 sec
 * total energy  :   -79.4732120 Eh     change       -0.2503906E-02 Eh
   gradient norm :     0.0581060 Eh/α   predicted    -0.5951717E-02 ( 137.70%)
   displ. norm   :     0.4399602 α      lambda       -0.6682204E-02
   maximum displ.:     0.2654398 α      in ANC's #8, #14, #6, ...

........................................................................
.............................. CYCLE   20 ..............................
........................................................................
   1    -80.3723418 -0.803723E+02  0.342E-02    0.92       0.0  T
   2    -80.3723686 -0.267213E-04  0.189E-02    0.92       1.0  T
   3    -80.3723699 -0.136781E-05  0.104E-02    0.92       1.4  T
   4    -80.3723702 -0.235749E-06  0.149E-03    0.92       9.8  T
   5    -80.3723702 -0.521092E-07  0.476E-04    0.92      30.7  T
   6    -80.3723702 -0.597497E-08  0.193E-04    0.92      75.4  T
   7    -80.3723702 -0.371642E-09  0.735E-05    0.92     198.4  T
     SCC iter.                  ...        0 min,  0.027 sec
     gradient                   ...        0 min,  0.098 sec
 * total energy  :   -79.4782442 Eh     change       -0.5032168E-02 Eh
   gradient norm :     0.0331571 Eh/α   predicted    -0.3987823E-02 ( -20.75%)
   displ. norm   :     0.5568854 α      lambda       -0.7501212E-02
   maximum displ.:     0.3119420 α      in ANC's #8, #42, #33, ...
 * RMSD in coord.:     0.7955711 α      energy gain  -0.7885469E-01 Eh

generating ANC from model Hessian ...
Using Lindh-Hessian (1995)
 Shifting diagonal of input Hessian by   9.756067774589074E-003
 Lowest  eigenvalues of input Hessian
    0.000000    0.000000    0.000000    0.000000    0.000000    0.000000
    0.010000    0.010130    0.010322    0.010913    0.010960    0.011645
    0.012240    0.013307    0.014538    0.015566    0.016731    0.018008
 Highest eigenvalues
    1.988019    2.018671    2.105252    2.171121    2.276701    2.349395
 

........................................................................
.............................. CYCLE   21 ..............................
........................................................................
   1    -80.3694200 -0.803694E+02  0.982E-02    0.84       0.0  T
   2    -80.3699261 -0.506042E-03  0.439E-02    0.82       1.0  T
   3    -80.3699692 -0.431124E-04  0.196E-02    0.83       1.0  T
   4    -80.3699697 -0.515346E-06  0.711E-03    0.83       2.1  T
   5    -80.3699699 -0.257737E-06  0.139E-03    0.83      10.5  T
   6    -80.3699700 -0.392511E-07  0.393E-04    0.83      37.1  T
   7    -80.3699700 -0.328552E-08  0.154E-04    0.83      94.6  T
   8    -80.3699700 -0.168683E-09  0.430E-05    0.83     339.2  T
     SCC iter.                  ...        0 min,  0.030 sec
     gradient                   ...        0 min,  0.098 sec
 * total energy  :   -79.4795960 Eh     change       -0.1351782E-02 Eh
   gradient norm :     0.0678882 Eh/α   predicted     0.0000000E+00 (-100.00%)
   displ. norm   :     0.2692116 α      lambda       -0.5965655E-02
   maximum displ.:     0.1338689 α      in ANC's #8, #24, #12, ...

........................................................................
.............................. CYCLE   22 ..............................
........................................................................
   1    -80.3746110 -0.803746E+02  0.487E-02    0.85       0.0  T
   2    -80.3747305 -0.119514E-03  0.230E-02    0.85       1.0  T
   3    -80.3747408 -0.103609E-04  0.106E-02    0.85       1.4  T
   4    -80.3747409 -0.518406E-07  0.344E-03    0.84       4.2  T
   5    -80.3747410 -0.108251E-06  0.774E-04    0.84      18.9  T
   6    -80.3747410 -0.195223E-07  0.166E-04    0.84      87.9  T
   7    -80.3747410 -0.799190E-09  0.527E-05    0.84     276.9  T
     SCC iter.                  ...        0 min,  0.027 sec
     gradient                   ...        0 min,  0.098 sec
 * total energy  :   -79.4836063 Eh     change       -0.4010351E-02 Eh
   gradient norm :     0.0207634 Eh/α   predicted    -0.3201882E-02 ( -20.16%)
   displ. norm   :     0.3289353 α      lambda       -0.2293780E-02
   maximum displ.:     0.1676145 α      in ANC's #8, #24, #6, ...

........................................................................
.............................. CYCLE   23 ..............................
........................................................................
   1    -80.3758869 -0.803759E+02  0.312E-02    0.84       0.0  T
   2    -80.3759331 -0.462368E-04  0.133E-02    0.84       1.1  T
   3    -80.3759368 -0.371896E-05  0.595E-03    0.84       2.5  T
   4    -80.3759369 -0.495383E-07  0.234E-03    0.84       6.2  T
   5    -80.3759369 -0.386593E-07  0.559E-04    0.84      26.1  T
   6    -80.3759369 -0.727958E-08  0.113E-04    0.84     129.5  T
   7    -80.3759369 -0.354916E-09  0.439E-05    0.84     332.5  T
     SCC iter.                  ...        0 min,  0.026 sec
     gradient                   ...        0 min,  0.098 sec
 * total energy  :   -79.4851787 Eh     change       -0.1572395E-02 Eh
   gradient norm :     0.0162000 Eh/α   predicted    -0.1270982E-02 ( -19.17%)
   displ. norm   :     0.3278432 α      lambda       -0.1189976E-02
   maximum displ.:     0.1704029 α      in ANC's #8, #24, #6, ...

........................................................................
.............................. CYCLE   24 ..............................
........................................................................
   1    -80.3753461 -0.803753E+02  0.131E-02    0.83       0.0  T
   2    -80.3753507 -0.462511E-05  0.515E-03    0.83       2.8  T
   3    -80.3753509 -0.190908E-06  0.283E-03    0.83       5.2  T
   4    -80.3753509 -0.213216E-07  0.937E-04    0.83      15.6  T
   5    -80.3753509 -0.137190E-07  0.208E-04    0.83      70.2  T
   6    -80.3753509 -0.974055E-09  0.603E-05    0.83     242.1  T
   7    -80.3753509 -0.391367E-10  0.284E-05    0.83     512.8  T
     SCC iter.                  ...        0 min,  0.027 sec
     gradient                   ...        0 min,  0.098 sec
 * total energy  :   -79.4860703 Eh     change       -0.8915659E-03 Eh
   gradient norm :     0.0205832 Eh/α   predicted    -0.6589458E-03 ( -26.09%)
   displ. norm   :     0.3905370 α      lambda       -0.1128253E-02
   maximum displ.:     0.1824783 α      in ANC's #8, #6, #24, ...

........................................................................
.............................. CYCLE   25 ..............................
........................................................................
   1    -80.3753171 -0.803753E+02  0.124E-02    0.81       0.0  T
   2    -80.3753229 -0.572256E-05  0.508E-03    0.81       2.9  T
   3    -80.3753232 -0.337018E-06  0.266E-03    0.81       5.5  T
   4    -80.3753232 -0.178663E-07  0.880E-04    0.81      16.6  T
   5    -80.3753232 -0.603418E-08  0.170E-04    0.81      85.9  T
   6    -80.3753232 -0.636561E-09  0.601E-05    0.81     242.9  T
     SCC iter.                  ...        0 min,  0.023 sec
     gradient                   ...        0 min,  0.098 sec
 * total energy  :   -79.4868658 Eh     change       -0.7955418E-03 Eh
   gradient norm :     0.0146362 Eh/α   predicted    -0.6501721E-03 ( -18.27%)
   displ. norm   :     0.2825066 α      lambda       -0.5657097E-03
   maximum displ.:     0.1133133 α      in ANC's #7, #6, #8, ...

........................................................................
.............................. CYCLE   26 ..............................
........................................................................
   1    -80.3773852 -0.803774E+02  0.104E-02    0.80       0.0  T
   2    -80.3773896 -0.437533E-05  0.478E-03    0.80       3.1  T
   3    -80.3773899 -0.321298E-06  0.233E-03    0.80       6.3  T
   4    -80.3773899 -0.774317E-08  0.768E-04    0.80      19.0  T
   5    -80.3773899 -0.684614E-08  0.166E-04    0.80      87.9  T
   6    -80.3773899 -0.497195E-09  0.410E-05    0.80     355.3  T
     SCC iter.                  ...        0 min,  0.023 sec
     gradient                   ...        0 min,  0.098 sec
 * total energy  :   -79.4872594 Eh     change       -0.3936150E-03 Eh
   gradient norm :     0.0062959 Eh/α   predicted    -0.3054301E-03 ( -22.40%)
   displ. norm   :     0.2911408 α      lambda       -0.3536803E-03
   maximum displ.:     0.1262501 α      in ANC's #7, #2, #6, ...

........................................................................
.............................. CYCLE   27 ..............................
........................................................................
   1    -80.3777514 -0.803778E+02  0.772E-03    0.79       0.0  T
   2    -80.3777536 -0.217724E-05  0.295E-03    0.79       4.9  T
   3    -80.3777537 -0.177551E-06  0.151E-03    0.80       9.7  T
   4    -80.3777537 -0.732449E-08  0.549E-04    0.80      26.5  T
   5    -80.3777537 -0.373726E-08  0.146E-04    0.80     100.2  T
   6    -80.3777537 -0.284047E-09  0.381E-05    0.80     382.8  T
     SCC iter.                  ...        0 min,  0.023 sec
     gradient                   ...        0 min,  0.098 sec
 * total energy  :   -79.4875270 Eh     change       -0.2675304E-03 Eh
   gradient norm :     0.0060190 Eh/α   predicted    -0.1918309E-03 ( -28.30%)
   displ. norm   :     0.3479204 α      lambda       -0.3999852E-03
   maximum displ.:     0.1654597 α      in ANC's #7, #2, #13, ...

........................................................................
.............................. CYCLE   28 ..............................
........................................................................
   1    -80.3792342 -0.803792E+02  0.786E-03    0.79       0.0  T
   2    -80.3792367 -0.256509E-05  0.328E-03    0.79       4.4  T
   3    -80.3792370 -0.305027E-06  0.169E-03    0.79       8.6  T
   4    -80.3792371 -0.142066E-07  0.617E-04    0.79      23.6  T
   5    -80.3792371 -0.267347E-08  0.154E-04    0.79      94.9  T
   6    -80.3792371 -0.236383E-09  0.394E-05    0.79     370.2  T
     SCC iter.                  ...        0 min,  0.023 sec
     gradient                   ...        0 min,  0.098 sec
 * total energy  :   -79.4878279 Eh     change       -0.3008882E-03 Eh
   gradient norm :     0.0097594 Eh/α   predicted    -0.2242066E-03 ( -25.49%)
   displ. norm   :     0.3993009 α      lambda       -0.4244036E-03
   maximum displ.:     0.1999260 α      in ANC's #7, #2, #13, ...

........................................................................
.............................. CYCLE   29 ..............................
........................................................................
   1    -80.3780445 -0.803780E+02  0.675E-03    0.78       0.0  T
   2    -80.3780470 -0.240343E-05  0.343E-03    0.78       4.3  T
   3    -80.3780473 -0.319502E-06  0.167E-03    0.78       8.7  T
   4    -80.3780473 -0.156179E-07  0.606E-04    0.78      24.1  T
   5    -80.3780473 -0.114512E-08  0.143E-04    0.78     102.0  T
   6    -80.3780473 -0.142805E-09  0.423E-05    0.78     345.1  T
     SCC iter.                  ...        0 min,  0.023 sec
     gradient                   ...        0 min,  0.098 sec
 * total energy  :   -79.4881539 Eh     change       -0.3260559E-03 Eh
   gradient norm :     0.0098235 Eh/α   predicted    -0.2460471E-03 ( -24.54%)
   displ. norm   :     0.4558971 α      lambda       -0.5295971E-03
   maximum displ.:     0.2228591 α      in ANC's #7, #2, #13, ...

........................................................................
.............................. CYCLE   30 ..............................
........................................................................
   1    -80.3786992 -0.803787E+02  0.119E-02    0.78       0.0  T
   2    -80.3787045 -0.528178E-05  0.541E-03    0.78       2.7  T
   3    -80.3787048 -0.321031E-06  0.291E-03    0.78       5.0  T
   4    -80.3787049 -0.507424E-07  0.111E-03    0.78      13.1  T
   5    -80.3787049 -0.120604E-07  0.214E-04    0.78      68.3  T
   6    -80.3787049 -0.696375E-09  0.709E-05    0.78     205.7  T
   7    -80.3787049 -0.491127E-10  0.308E-05    0.78     472.8  T
     SCC iter.                  ...        0 min,  0.026 sec
     gradient                   ...        0 min,  0.098 sec
 * total energy  :   -79.4885270 Eh     change       -0.3730620E-03 Eh
   gradient norm :     0.0110639 Eh/α   predicted    -0.3198411E-03 ( -14.27%)
   displ. norm   :     0.3797928 α      lambda       -0.4206943E-03
   maximum displ.:     0.1828892 α      in ANC's #7, #2, #13, ...

........................................................................
.............................. CYCLE   31 ..............................
........................................................................
   1    -80.3767653 -0.803768E+02  0.929E-03    0.78       0.0  T
   2    -80.3767694 -0.413930E-05  0.417E-03    0.78       3.5  T
   3    -80.3767697 -0.279357E-06  0.191E-03    0.78       7.6  T
   4    -80.3767697 -0.183476E-07  0.830E-04    0.78      17.6  T
   5    -80.3767697 -0.522756E-08  0.188E-04    0.78      77.7  T
   6    -80.3767697 -0.434838E-09  0.620E-05    0.78     235.2  T
     SCC iter.                  ...        0 min,  0.023 sec
     gradient                   ...        0 min,  0.098 sec
 * total energy  :   -79.4888195 Eh     change       -0.2925469E-03 Eh
   gradient norm :     0.0110158 Eh/α   predicted    -0.2406984E-03 ( -17.72%)
   displ. norm   :     0.3391341 α      lambda       -0.5488755E-03
   maximum displ.:     0.1664547 α      in ANC's #6, #7, #5, ...

........................................................................
.............................. CYCLE   32 ..............................
........................................................................
   1    -80.3809937 -0.803810E+02  0.166E-02    0.79       0.0  T
   2    -80.3810021 -0.839350E-05  0.721E-03    0.79       2.0  T
   3    -80.3810027 -0.571218E-06  0.410E-03    0.79       3.6  T
   4    -80.3810027 -0.402274E-07  0.108E-03    0.79      13.5  T
   5    -80.3810028 -0.199414E-07  0.229E-04    0.79      63.8  T
   6    -80.3810028 -0.105538E-08  0.739E-05    0.79     197.3  T
   7    -80.3810028 -0.894289E-10  0.275E-05    0.79     530.6  T
     SCC iter.                  ...        0 min,  0.026 sec
     gradient                   ...        0 min,  0.098 sec
 * total energy  :   -79.4890906 Eh     change       -0.2710962E-03 Eh
   gradient norm :     0.0123010 Eh/α   predicted    -0.3060034E-03 (  12.88%)
   displ. norm   :     0.4964816 α      lambda       -0.5972697E-03
   maximum displ.:     0.2132410 α      in ANC's #7, #13, #5, ...

........................................................................
.............................. CYCLE   33 ..............................
........................................................................
   1    -80.3731742 -0.803732E+02  0.196E-02    0.80       0.0  T
   2    -80.3731774 -0.321368E-05  0.104E-02    0.79       1.4  T
   3    -80.3731775 -0.761574E-07  0.399E-03    0.79       3.7  T
   4    -80.3731777 -0.196832E-06  0.897E-04    0.79      16.3  T
   5    -80.3731777 -0.922043E-08  0.242E-04    0.79      60.2  T
   6    -80.3731777 -0.935302E-09  0.686E-05    0.79     212.6  T
   7    -80.3731777 -0.613909E-10  0.202E-05    0.79     721.3  T
     SCC iter.                  ...        0 min,  0.026 sec
     gradient                   ...        0 min,  0.098 sec
 * total energy  :   -79.4892666 Eh     change       -0.1759524E-03 Eh
   gradient norm :     0.0187551 Eh/α   predicted    -0.3722476E-03 ( 111.56%)
   displ. norm   :     0.1583303 α      lambda       -0.7678696E-03
   maximum displ.:     0.0781738 α      in ANC's #6, #8, #12, ...

........................................................................
.............................. CYCLE   34 ..............................
........................................................................
   1    -80.3798946 -0.803799E+02  0.194E-02    0.79       0.0  T
   2    -80.3799002 -0.555753E-05  0.985E-03    0.79       1.5  T
   3    -80.3799004 -0.193331E-06  0.461E-03    0.79       3.2  T
   4    -80.3799005 -0.895438E-07  0.101E-03    0.79      14.5  T
   5    -80.3799005 -0.140029E-07  0.174E-04    0.79      83.9  T
   6    -80.3799005 -0.821501E-09  0.489E-05    0.79     298.1  T
     SCC iter.                  ...        0 min,  0.023 sec
     gradient                   ...        0 min,  0.098 sec
 * total energy  :   -79.4896526 Eh     change       -0.3860371E-03 Eh
   gradient norm :     0.0132633 Eh/α   predicted    -0.3935613E-03 (   1.95%)
   displ. norm   :     0.2267220 α      lambda       -0.3493463E-03
   maximum displ.:     0.1121349 α      in ANC's #6, #5, #7, ...

........................................................................
.............................. CYCLE   35 ..............................
........................................................................
   1    -80.3816653 -0.803817E+02  0.694E-03    0.80       0.0  T
   2    -80.3816675 -0.221401E-05  0.293E-03    0.79       5.0  T
   3    -80.3816676 -0.828625E-07  0.168E-03    0.79       8.7  T
   4    -80.3816676 -0.107155E-07  0.594E-04    0.79      24.6  T
   5    -80.3816676 -0.335494E-08  0.125E-04    0.79     116.2  T
   6    -80.3816676 -0.186049E-09  0.324E-05    0.79     450.3  T
     SCC iter.                  ...        0 min,  0.023 sec
     gradient                   ...        0 min,  0.098 sec
 * total energy  :   -79.4899374 Eh     change       -0.2847820E-03 Eh
   gradient norm :     0.0073254 Eh/α   predicted    -0.1836634E-03 ( -35.51%)
   displ. norm   :     0.5724639 α      lambda       -0.5741874E-03
   maximum displ.:     0.2604539 α      in ANC's #5, #6, #7, ...

........................................................................
.............................. CYCLE   36 ..............................
........................................................................
   1    -80.3799990 -0.803800E+02  0.112E-02    0.80       0.0  T
   2    -80.3800056 -0.663083E-05  0.491E-03    0.79       3.0  T
   3    -80.3800060 -0.383052E-06  0.265E-03    0.80       5.5  T
   4    -80.3800060 -0.343462E-07  0.981E-04    0.80      14.9  T
   5    -80.3800060 -0.503725E-08  0.233E-04    0.80      62.7  T
   6    -80.3800060 -0.352571E-09  0.652E-05    0.80     223.8  T
   7    -80.3800060 -0.434710E-10  0.193E-05    0.80     754.1  T
     SCC iter.                  ...        0 min,  0.026 sec
     gradient                   ...        0 min,  0.098 sec
 * total energy  :   -79.4903348 Eh     change       -0.3974016E-03 Eh
   gradient norm :     0.0104744 Eh/α   predicted    -0.3811845E-03 (  -4.08%)
   displ. norm   :     0.3503148 α      lambda       -0.3581295E-03
   maximum displ.:     0.1823307 α      in ANC's #5, #6, #4, ...

........................................................................
.............................. CYCLE   37 ..............................
........................................................................
   1    -80.3819972 -0.803820E+02  0.739E-03    0.80       0.0  T
   2    -80.3819994 -0.214226E-05  0.377E-03    0.80       3.9  T
   3    -80.3819995 -0.164562E-06  0.212E-03    0.80       6.9  T
   4    -80.3819995 -0.118756E-07  0.554E-04    0.80      26.3  T
   5    -80.3819995 -0.308651E-08  0.149E-04    0.80      97.9  T
   6    -80.3819995 -0.263782E-09  0.358E-05    0.80     407.8  T
     SCC iter.                  ...        0 min,  0.023 sec
     gradient                   ...        0 min,  0.098 sec
 * total energy  :   -79.4906031 Eh     change       -0.2682520E-03 Eh
   gradient norm :     0.0116950 Eh/α   predicted    -0.2010416E-03 ( -25.05%)
   displ. norm   :     0.5082503 α      lambda       -0.4295694E-03
   maximum displ.:     0.2538112 α      in ANC's #5, #4, #6, ...

........................................................................
.............................. CYCLE   38 ..............................
........................................................................
   1    -80.3805298 -0.803805E+02  0.853E-03    0.82       0.0  T
   2    -80.3805318 -0.198499E-05  0.418E-03    0.81       3.5  T
   3    -80.3805320 -0.219550E-06  0.214E-03    0.81       6.8  T
   4    -80.3805320 -0.195294E-07  0.499E-04    0.81      29.2  T
   5    -80.3805320 -0.262979E-08  0.166E-04    0.81      87.9  T
   6    -80.3805320 -0.276941E-09  0.413E-05    0.81     353.4  T
     SCC iter.                  ...        0 min,  0.023 sec
     gradient                   ...        0 min,  0.098 sec
 * total energy  :   -79.4908953 Eh     change       -0.2922536E-03 Eh
   gradient norm :     0.0124865 Eh/α   predicted    -0.2702722E-03 (  -7.52%)
   displ. norm   :     0.4011417 α      lambda       -0.7201163E-03
   maximum displ.:     0.2200359 α      in ANC's #5, #4, #1, ...

........................................................................
.............................. CYCLE   39 ..............................
........................................................................
   1    -80.3915320 -0.803915E+02  0.205E-02    0.82       0.0  T
   2    -80.3915440 -0.119317E-04  0.932E-03    0.83       1.6  T
   3    -80.3915443 -0.305625E-06  0.481E-03    0.83       3.0  T
   4    -80.3915443 -0.593688E-07  0.144E-03    0.83      10.1  T
   5    -80.3915444 -0.397973E-07  0.207E-04    0.83      70.6  T
   6    -80.3915444 -0.685120E-09  0.647E-05    0.83     225.4  T
   7    -80.3915444 -0.764686E-10  0.246E-05    0.83     593.7  T
     SCC iter.                  ...        0 min,  0.026 sec
     gradient                   ...        0 min,  0.098 sec
 * total energy  :   -79.4911268 Eh     change       -0.2315162E-03 Eh
   gradient norm :     0.0131185 Eh/α   predicted    -0.4180005E-03 (  80.55%)
   displ. norm   :     0.4890159 α      lambda       -0.5781645E-03
   maximum displ.:     0.2532529 α      in ANC's #5, #4, #1, ...

........................................................................
.............................. CYCLE   40 ..............................
........................................................................
   1    -80.3822206 -0.803822E+02  0.177E-02    0.83       0.0  T
   2    -80.3822247 -0.404407E-05  0.875E-03    0.83       1.7  T
   3    -80.3822249 -0.218195E-06  0.421E-03    0.83       3.5  T
   4    -80.3822250 -0.814993E-07  0.707E-04    0.83      20.6  T
   5    -80.3822250 -0.427667E-08  0.220E-04    0.83      66.3  T
   6    -80.3822250 -0.678014E-09  0.475E-05    0.83     307.0  T
   7    -80.3822250 -0.538734E-10  0.133E-05    0.83    1100.2  T
     SCC iter.                  ...        0 min,  0.026 sec
     gradient                   ...        0 min,  0.098 sec
 * total energy  :   -79.4913902 Eh     change       -0.2634193E-03 Eh
   gradient norm :     0.0120439 Eh/α   predicted    -0.3582138E-03 (  35.99%)
   displ. norm   :     0.0892013 α      lambda       -0.2727719E-03
   maximum displ.:     0.0374809 α      in ANC's #8, #1, #5, ...

........................................................................
.............................. CYCLE   41 ..............................
........................................................................
   1    -80.3827044 -0.803827E+02  0.787E-03    0.83       0.0  T
   2    -80.3827060 -0.155108E-05  0.392E-03    0.83       3.7  T
   3    -80.3827061 -0.127872E-06  0.221E-03    0.83       6.6  T
   4    -80.3827061 -0.870158E-08  0.416E-04    0.83      35.0  T
   5    -80.3827061 -0.232259E-08  0.107E-04    0.83     135.9  T
   6    -80.3827061 -0.209951E-09  0.268E-05    0.83     544.7  T
     SCC iter.                  ...        0 min,  0.023 sec
     gradient                   ...        0 min,  0.099 sec
 * total energy  :   -79.4915476 Eh     change       -0.1573152E-03 Eh
   gradient norm :     0.0064673 Eh/α   predicted    -0.1374706E-03 ( -12.61%)
   displ. norm   :     0.2260086 α      lambda       -0.2020064E-03
   maximum displ.:     0.1228113 α      in ANC's #5, #4, #1, ...

........................................................................
.............................. CYCLE   42 ..............................
........................................................................
   1    -80.3852398 -0.803852E+02  0.669E-03    0.83       0.0  T
   2    -80.3852410 -0.119836E-05  0.379E-03    0.83       3.8  T
   3    -80.3852411 -0.137118E-06  0.203E-03    0.83       7.2  T
   4    -80.3852412 -0.121350E-07  0.356E-04    0.83      41.0  T
   5    -80.3852412 -0.766818E-09  0.994E-05    0.83     146.7  T
   6    -80.3852412 -0.848388E-10  0.262E-05    0.83     557.1  T
     SCC iter.                  ...        0 min,  0.023 sec
     gradient                   ...        0 min,  0.098 sec
 * total energy  :   -79.4916845 Eh     change       -0.1369263E-03 Eh
   gradient norm :     0.0050978 Eh/α   predicted    -0.1061631E-03 ( -22.47%)
   displ. norm   :     0.3961827 α      lambda       -0.2106371E-03
   maximum displ.:     0.2120846 α      in ANC's #5, #4, #1, ...
 * RMSD in coord.:     0.8431467 α      energy gain  -0.1344029E-01 Eh

generating ANC from model Hessian ...
Using Lindh-Hessian (1995)
 Shifting diagonal of input Hessian by   9.763076596025360E-003
 Lowest  eigenvalues of input Hessian
    0.000000    0.000000    0.000000    0.000000    0.000000    0.000000
    0.010000    0.010091    0.010357    0.010920    0.011017    0.011705
    0.012153    0.013548    0.014415    0.015551    0.016175    0.018504
 Highest eigenvalues
    1.980038    2.020619    2.099466    2.159551    2.346799    2.377457
 

........................................................................
.............................. CYCLE   43 ..............................
........................................................................
   1    -80.3850101 -0.803850E+02  0.716E-03    0.82       0.0  T
   2    -80.3850125 -0.241116E-05  0.361E-03    0.83       4.0  T
   3    -80.3850128 -0.259724E-06  0.194E-03    0.83       7.5  T
   4    -80.3850128 -0.100867E-07  0.599E-04    0.83      24.3  T
   5    -80.3850128 -0.487447E-09  0.118E-04    0.83     123.9  T
   6    -80.3850128 -0.133383E-09  0.318E-05    0.83     459.4  T
     SCC iter.                  ...        0 min,  0.023 sec
     gradient                   ...        0 min,  0.098 sec
 * total energy  :   -79.4918162 Eh     change       -0.1317063E-03 Eh
   gradient norm :     0.0057458 Eh/α   predicted     0.0000000E+00 (-100.00%)
   displ. norm   :     0.0427971 α      lambda       -0.6696058E-04
   maximum displ.:     0.0172707 α      in ANC's #1, #13, #6, ...

........................................................................
.............................. CYCLE   44 ..............................
........................................................................
   1    -80.3860605 -0.803861E+02  0.325E-03    0.83       0.0  T
   2    -80.3860608 -0.382640E-06  0.181E-03    0.83       8.1  T
   3    -80.3860609 -0.373784E-07  0.102E-03    0.83      14.3  T
   4    -80.3860609 -0.151275E-08  0.214E-04    0.83      68.2  T
   5    -80.3860609 -0.404299E-09  0.368E-05    0.83     396.5  T
   6    -80.3860609 -0.319318E-10  0.148E-05    0.83     982.6  T
     SCC iter.                  ...        0 min,  0.023 sec
     gradient                   ...        0 min,  0.098 sec
 * total energy  :   -79.4918751 Eh     change       -0.5889571E-04 Eh
   gradient norm :     0.0031400 Eh/α   predicted    -0.3725715E-04 ( -36.74%)
   displ. norm   :     0.1173040 α      lambda       -0.1110352E-03
   maximum displ.:     0.0496169 α      in ANC's #1, #13, #6, ...

........................................................................
.............................. CYCLE   45 ..............................
........................................................................
   1    -80.3869884 -0.803870E+02  0.644E-03    0.83       0.0  T
   2    -80.3869904 -0.202083E-05  0.324E-03    0.82       4.5  T
   3    -80.3869905 -0.153132E-06  0.176E-03    0.83       8.3  T
   4    -80.3869905 -0.468312E-08  0.590E-04    0.83      24.7  T
   5    -80.3869905 -0.223150E-08  0.886E-05    0.83     164.7  T
   6    -80.3869905 -0.137916E-09  0.350E-05    0.83     417.2  T
     SCC iter.                  ...        0 min,  0.023 sec
     gradient                   ...        0 min,  0.098 sec
 * total energy  :   -79.4919498 Eh     change       -0.7466788E-04 Eh
   gradient norm :     0.0028805 Eh/α   predicted    -0.5628185E-04 ( -24.62%)
   displ. norm   :     0.1176432 α      lambda       -0.5901848E-04
   maximum displ.:     0.0518220 α      in ANC's #1, #13, #5, ...

........................................................................
.............................. CYCLE   46 ..............................
........................................................................
   1    -80.3867656 -0.803868E+02  0.430E-03    0.82       0.0  T
   2    -80.3867666 -0.941900E-06  0.175E-03    0.82       8.3  T
   3    -80.3867666 -0.520027E-07  0.896E-04    0.82      16.3  T
   4    -80.3867666 -0.229345E-08  0.371E-04    0.82      39.3  T
   5    -80.3867666 -0.106199E-08  0.684E-05    0.82     213.2  T
   6    -80.3867666 -0.522107E-10  0.268E-05    0.82     544.1  T
     SCC iter.                  ...        0 min,  0.023 sec
     gradient                   ...        0 min,  0.098 sec
 * total energy  :   -79.4919953 Eh     change       -0.4557049E-04 Eh
   gradient norm :     0.0039476 Eh/α   predicted    -0.3021077E-04 ( -33.71%)
   displ. norm   :     0.1719105 α      lambda       -0.7040185E-04
   maximum displ.:     0.0771864 α      in ANC's #1, #13, #5, ...

........................................................................
.............................. CYCLE   47 ..............................
........................................................................
   1    -80.3858803 -0.803859E+02  0.474E-03    0.82       0.0  T
   2    -80.3858811 -0.833058E-06  0.169E-03    0.82       8.6  T
   3    -80.3858812 -0.424441E-07  0.843E-04    0.82      17.3  T
   4    -80.3858812 -0.282543E-08  0.283E-04    0.82      51.6  T
   5    -80.3858812 -0.103121E-08  0.707E-05    0.82     206.4  T
   6    -80.3858812 -0.606235E-10  0.284E-05    0.82     513.9  T
     SCC iter.                  ...        0 min,  0.023 sec
     gradient                   ...        0 min,  0.098 sec
 * total energy  :   -79.4920444 Eh     change       -0.4905807E-04 Eh
   gradient norm :     0.0039725 Eh/α   predicted    -0.3624187E-04 ( -26.12%)
   displ. norm   :     0.1365174 α      lambda       -0.4508156E-04
   maximum displ.:     0.0644298 α      in ANC's #1, #5, #13, ...

........................................................................
.............................. CYCLE   48 ..............................
........................................................................
   1    -80.3854019 -0.803854E+02  0.309E-03    0.81       0.0  T
   2    -80.3854021 -0.237406E-06  0.131E-03    0.82      11.2  T
   3    -80.3854022 -0.302681E-07  0.644E-04    0.82      22.6  T
   4    -80.3854022 -0.138500E-08  0.144E-04    0.82     101.2  T
   5    -80.3854022 -0.282142E-09  0.469E-05    0.82     311.1  T
     SCC iter.                  ...        0 min,  0.019 sec
     gradient                   ...        0 min,  0.098 sec
 * total energy  :   -79.4920781 Eh     change       -0.3371811E-04 Eh
   gradient norm :     0.0029607 Eh/α   predicted    -0.2297965E-04 ( -31.85%)
   displ. norm   :     0.1390559 α      lambda       -0.4439773E-04
   maximum displ.:     0.0683454 α      in ANC's #1, #5, #3, ...

........................................................................
.............................. CYCLE   49 ..............................
........................................................................
   1    -80.3854031 -0.803854E+02  0.341E-03    0.82       0.0  T
   2    -80.3854035 -0.412760E-06  0.161E-03    0.82       9.0  T
   3    -80.3854036 -0.554675E-07  0.805E-04    0.82      18.1  T
   4    -80.3854036 -0.156129E-08  0.192E-04    0.82      75.9  T
   5    -80.3854036 -0.211372E-09  0.507E-05    0.82     288.0  T
     SCC iter.                  ...        0 min,  0.019 sec
     gradient                   ...        0 min,  0.098 sec
 * total energy  :   -79.4921111 Eh     change       -0.3304812E-04 Eh
   gradient norm :     0.0022306 Eh/α   predicted    -0.2264497E-04 ( -31.48%)
   displ. norm   :     0.1400238 α      lambda       -0.3628984E-04
   maximum displ.:     0.0707228 α      in ANC's #1, #5, #3, ...

........................................................................
.............................. CYCLE   50 ..............................
........................................................................
   1    -80.3855277 -0.803855E+02  0.277E-03    0.82       0.0  T
   2    -80.3855280 -0.323226E-06  0.124E-03    0.82      11.8  T
   3    -80.3855281 -0.362826E-07  0.619E-04    0.82      23.6  T
   4    -80.3855281 -0.142079E-08  0.188E-04    0.82      77.7  T
   5    -80.3855281 -0.105331E-09  0.509E-05    0.82     286.6  T
     SCC iter.                  ...        0 min,  0.019 sec
     gradient                   ...        0 min,  0.098 sec
 * total energy  :   -79.4921394 Eh     change       -0.2824558E-04 Eh
   gradient norm :     0.0025927 Eh/α   predicted    -0.1852279E-04 ( -34.42%)
   displ. norm   :     0.1613677 α      lambda       -0.3761018E-04
   maximum displ.:     0.0832876 α      in ANC's #1, #5, #3, ...

........................................................................
.............................. CYCLE   51 ..............................
........................................................................
   1    -80.3857091 -0.803857E+02  0.221E-03    0.82       0.0  T
   2    -80.3857093 -0.200575E-06  0.928E-04    0.82      15.7  T
   3    -80.3857093 -0.179508E-07  0.494E-04    0.82      29.6  T
   4    -80.3857093 -0.156548E-08  0.157E-04    0.82      92.9  T
   5    -80.3857093 -0.592166E-10  0.446E-05    0.82     327.2  T
     SCC iter.                  ...        0 min,  0.019 sec
     gradient                   ...        0 min,  0.098 sec
 * total energy  :   -79.4921690 Eh     change       -0.2961777E-04 Eh
   gradient norm :     0.0028181 Eh/α   predicted    -0.1929552E-04 ( -34.85%)
   displ. norm   :     0.1891368 α      lambda       -0.3894316E-04
   maximum displ.:     0.0997218 α      in ANC's #1, #5, #3, ...

........................................................................
.............................. CYCLE   52 ..............................
........................................................................
   1    -80.3857838 -0.803858E+02  0.193E-03    0.82       0.0  T
   2    -80.3857839 -0.136902E-06  0.817E-04    0.82      17.8  T
   3    -80.3857839 -0.861183E-08  0.427E-04    0.82      34.2  T
   4    -80.3857839 -0.101285E-08  0.145E-04    0.82     100.3  T
   5    -80.3857839 -0.123393E-09  0.432E-05    0.82     337.8  T
     SCC iter.                  ...        0 min,  0.019 sec
     gradient                   ...        0 min,  0.098 sec
 * total energy  :   -79.4922006 Eh     change       -0.3158114E-04 Eh
   gradient norm :     0.0025730 Eh/α   predicted    -0.2017337E-04 ( -36.12%)
   displ. norm   :     0.2402731 α      lambda       -0.4549792E-04
   maximum displ.:     0.1285099 α      in ANC's #1, #5, #3, ...

........................................................................
.............................. CYCLE   53 ..............................
........................................................................
   1    -80.3856741 -0.803857E+02  0.244E-03    0.81       0.0  T
   2    -80.3856744 -0.258719E-06  0.102E-03    0.81      14.3  T
   3    -80.3856744 -0.133689E-07  0.515E-04    0.81      28.3  T
   4    -80.3856744 -0.716383E-09  0.180E-04    0.81      80.9  T
   5    -80.3856744 -0.190582E-09  0.478E-05    0.81     304.9  T
     SCC iter.                  ...        0 min,  0.019 sec
     gradient                   ...        0 min,  0.098 sec
 * total energy  :   -79.4922387 Eh     change       -0.3813937E-04 Eh
   gradient norm :     0.0023282 Eh/α   predicted    -0.2406693E-04 ( -36.90%)
   displ. norm   :     0.3253937 α      lambda       -0.6064297E-04
   maximum displ.:     0.1755321 α      in ANC's #1, #5, #3, ...

........................................................................
.............................. CYCLE   54 ..............................
........................................................................
   1    -80.3851784 -0.803852E+02  0.332E-03    0.81       0.0  T
   2    -80.3851789 -0.533488E-06  0.134E-03    0.81      10.9  T
   3    -80.3851790 -0.275888E-07  0.646E-04    0.81      22.6  T
   4    -80.3851790 -0.193451E-08  0.243E-04    0.81      59.9  T
   5    -80.3851790 -0.326082E-09  0.614E-05    0.81     237.4  T
   6    -80.3851790 -0.907932E-10  0.180E-05    0.81     808.4  T
     SCC iter.                  ...        0 min,  0.023 sec
     gradient                   ...        0 min,  0.098 sec
 * total energy  :   -79.4922917 Eh     change       -0.5299153E-04 Eh
   gradient norm :     0.0030315 Eh/α   predicted    -0.3353677E-04 ( -36.71%)
   displ. norm   :     0.4508914 α      lambda       -0.9091815E-04
   maximum displ.:     0.2451726 α      in ANC's #1, #5, #3, ...

........................................................................
.............................. CYCLE   55 ..............................
........................................................................
   1    -80.3841244 -0.803841E+02  0.444E-03    0.81       0.0  T
   2    -80.3841254 -0.932333E-06  0.175E-03    0.81       8.3  T
   3    -80.3841254 -0.496887E-07  0.828E-04    0.81      17.6  T
   4    -80.3841254 -0.162926E-08  0.326E-04    0.81      44.8  T
   5    -80.3841254 -0.656755E-09  0.828E-05    0.81     176.3  T
   6    -80.3841254 -0.156987E-09  0.229E-05    0.81     637.2  T
     SCC iter.                  ...        0 min,  0.023 sec
     gradient                   ...        0 min,  0.098 sec
 * total energy  :   -79.4923652 Eh     change       -0.7352611E-04 Eh
   gradient norm :     0.0049653 Eh/α   predicted    -0.5470326E-04 ( -25.60%)
   displ. norm   :     0.4186887 α      lambda       -0.1072707E-03
   maximum displ.:     0.2327204 α      in ANC's #1, #5, #3, ...

........................................................................
.............................. CYCLE   56 ..............................
........................................................................
   1    -80.3842639 -0.803843E+02  0.389E-03    0.81       0.0  T
   2    -80.3842646 -0.654162E-06  0.148E-03    0.81       9.9  T
   3    -80.3842646 -0.340749E-07  0.700E-04    0.81      20.8  T
   4    -80.3842646 -0.124552E-08  0.290E-04    0.81      50.3  T
   5    -80.3842646 -0.671477E-09  0.762E-05    0.81     191.5  T
   6    -80.3842646 -0.125226E-09  0.188E-05    0.81     777.5  T
     SCC iter.                  ...        0 min,  0.023 sec
     gradient                   ...        0 min,  0.098 sec
 * total energy  :   -79.4924482 Eh     change       -0.8294251E-04 Eh
   gradient norm :     0.0060375 Eh/α   predicted    -0.6303853E-04 ( -24.00%)
   displ. norm   :     0.3512249 α      lambda       -0.1207470E-03
   maximum displ.:     0.2029904 α      in ANC's #1, #5, #3, ...

........................................................................
.............................. CYCLE   57 ..............................
........................................................................
   1    -80.3852310 -0.803852E+02  0.408E-03    0.81       0.0  T
   2    -80.3852316 -0.551442E-06  0.157E-03    0.81       9.3  T
   3    -80.3852316 -0.384113E-07  0.866E-04    0.81      16.8  T
   4    -80.3852316 -0.221570E-08  0.315E-04    0.81      46.3  T
   5    -80.3852316 -0.104953E-08  0.686E-05    0.81     212.8  T
   6    -80.3852316 -0.982396E-10  0.190E-05    0.81     766.5  T
     SCC iter.                  ...        0 min,  0.023 sec
     gradient                   ...        0 min,  0.098 sec
 * total energy  :   -79.4925400 Eh     change       -0.9179306E-04 Eh
   gradient norm :     0.0054326 Eh/α   predicted    -0.6782623E-04 ( -26.11%)
   displ. norm   :     0.4604669 α      lambda       -0.1203255E-03
   maximum displ.:     0.2654750 α      in ANC's #1, #5, #3, ...

........................................................................
.............................. CYCLE   58 ..............................
........................................................................
   1    -80.3828714 -0.803829E+02  0.558E-03    0.81       0.0  T
   2    -80.3828722 -0.835509E-06  0.210E-03    0.81       7.0  T
   3    -80.3828723 -0.740116E-07  0.118E-03    0.81      12.4  T
   4    -80.3828723 -0.393206E-08  0.382E-04    0.80      38.2  T
   5    -80.3828723 -0.175103E-08  0.816E-05    0.80     178.7  T
   6    -80.3828723 -0.162771E-09  0.254E-05    0.80     574.0  T
     SCC iter.                  ...        0 min,  0.023 sec
     gradient                   ...        0 min,  0.098 sec
 * total energy  :   -79.4926174 Eh     change       -0.7737518E-04 Eh
   gradient norm :     0.0053313 Eh/α   predicted    -0.7293075E-04 (  -5.74%)
   displ. norm   :     0.2863015 α      lambda       -0.2196505E-03
   maximum displ.:     0.1526576 α      in ANC's #1, #13, #3, ...

........................................................................
.............................. CYCLE   59 ..............................
........................................................................
   1    -80.3912313 -0.803912E+02  0.139E-02    0.83       0.0  T
   2    -80.3912358 -0.453098E-05  0.601E-03    0.83       2.4  T
   3    -80.3912361 -0.251127E-06  0.343E-03    0.83       4.2  T
   4    -80.3912361 -0.169434E-07  0.836E-04    0.83      17.4  T
   5    -80.3912361 -0.101252E-07  0.175E-04    0.83      83.1  T
   6    -80.3912361 -0.106954E-08  0.498E-05    0.83     292.7  T
     SCC iter.                  ...        0 min,  0.023 sec
     gradient                   ...        0 min,  0.098 sec
 * total energy  :   -79.4926060 Eh     change        0.1137136E-04 Eh
   gradient norm :     0.0083032 Eh/α   predicted    -0.1188384E-03 (*******%)
[...]
C6-C4-C3-N2= 90.62            C6-C4-C3-N8=277.44            N7-C4-C3-N2=331.37            N7-C4-C3-N8=158.19            
H29-C5-C4-C3=299.34           H29-C5-C4-C6= 56.06           H29-C5-C4-N7=176.71           H30-C5-C4-C3=179.33           
H30-C5-C4-C6=296.05           H30-C5-C4-N7= 56.69           H31-C5-C4-C3= 60.16           H31-C5-C4-C6=176.88           
H31-C5-C4-N7=297.52           H32-C6-C4-C3= 56.04           H32-C6-C4-C5=297.96           H32-C6-C4-N7=176.61           
H33-C6-C4-C3=295.22           H33-C6-C4-C5=177.15           H33-C6-C4-N7= 55.79           H34-C6-C4-C3=175.80           
H34-C6-C4-C5= 57.72           H34-C6-C4-N7=296.36           H35-N7-C4-C3=291.11           H35-N7-C4-C5= 52.36           
H35-N7-C4-C6=173.33           H36-N7-C4-C3=171.08           H36-N7-C4-C5=292.34           H36-N7-C4-C6= 53.31           
C9-N8-C3-N2= 18.81            C9-N8-C3-C4=192.50            C10-C9-N8-C3=186.66           C21-C9-N8-C3= 12.84           
O11-C10-C9-N8=318.17          O11-C10-C9-C21=131.58         N12-C10-C9-N8=136.90          N12-C10-C9-C21=310.31         
           -------------------------------------------------
          |                Final Singlepoint                |
           -------------------------------------------------

          ...................................................
          :                      SETUP                      :
          :.................................................:
          :  # basis functions                 144          :
          :  # atomic orbitals                 144          :
          :  # shells                           94          :
          :  # electrons                       134          :
          :  # halogen bonds                     0          :
          :  max. iterations                   250          :
          :  Hamiltonian                  GFN1-xTB          :
          :  restarted?                      false          :
          :  GBSA solvation                   true          :
          :  PC potential                    false          :
          :  electronic temp.          300.0000000     K    :
          :  accuracy                    1.0000000          :
          :  -> integral cutoff          0.2500000E+02      :
          :  -> integral neglect         0.1000000E-07      :
          :  -> SCF convergence          0.1000000E-05 Eh   :
          :  -> wf. convergence          0.2000000E-04 e    :
          :  Broyden damping             0.4000000          :
          ...................................................

 iter      E             dE          RMSdq      gap      omega  full diag
   1    -80.3873534 -0.803874E+02  0.391E-06    0.77       0.0  T
   2    -80.3873534 -0.142109E-13  0.188E-06    0.77    7757.3  T
   3    -80.3873534 -0.355271E-12  0.769E-07    0.77   18974.8  T

   *** convergence criteria satisfied after 3 iterations ***

         #    Occupation            Energy/Eh            Energy/eV
      -------------------------------------------------------------
         1        2.0000           -0.8855589             -24.0973
       ...           ...                  ...                  ...
        61        2.0000           -0.4968666             -13.5204
        62        2.0000           -0.4803901             -13.0721
        63        2.0000           -0.4755985             -12.9417
        64        2.0000           -0.4669527             -12.7064
        65        2.0000           -0.4570898             -12.4380
        66        2.0000           -0.4425672             -12.0429
        67        2.0000           -0.4410310             -12.0011 (HOMO)
        68        0.0000           -0.4128125             -11.2332 (LUMO)
        69                         -0.3368877              -9.1672
        70                         -0.3013539              -8.2003
        71                         -0.2790525              -7.5934
        72                         -0.2711416              -7.3781
       ...                                ...                  ...
       144                          0.6862243              18.6731
      -------------------------------------------------------------
                  HL-Gap            0.0282186 Eh            0.7679 eV
             Fermi-level           -0.4268358 Eh          -11.6148 eV

 SCC (total)                   0 d,  0 h,  0 min,  0.148 sec
 SCC setup                      ...        0 min,  0.002 sec (  1.417%)
 Dispersion                     ...        0 min,  0.000 sec (  0.279%)
 classical contributions        ...        0 min,  0.000 sec (  0.093%)
 integral evaluation            ...        0 min,  0.039 sec ( 26.217%)
 iterations                     ...        0 min,  0.012 sec (  8.152%)
 molecular gradient             ...        0 min,  0.094 sec ( 63.268%)
 printout                       ...        0 min,  0.001 sec (  0.552%)

         :::::::::::::::::::::::::::::::::::::::::::::::::::::
         ::                     SUMMARY                     ::
         :::::::::::::::::::::::::::::::::::::::::::::::::::::
         :: total energy             -79.493509172343 Eh    ::
         :: total w/o Gsasa/hb       -79.465029743085 Eh    ::
         :: gradient norm              0.000376939649 Eh/a0 ::
         :: HOMO-LUMO gap              0.767866005251 eV    ::
         ::.................................................::
         :: SCC energy               -80.387353377601 Eh    ::
         :: -> electrostatic           0.313944945891 Eh    ::
         :: -> Gsolv                  -0.108938938836 Eh    ::
         ::    -> Gelec               -0.080459509578 Eh    ::
         ::    -> Gsasa               -0.024530209897 Eh    ::
         ::    -> Ghb                 -0.011573498366 Eh    ::
         ::    -> Gshift               0.007624279005 Eh    ::
         :: repulsion energy           0.925170218136 Eh    ::
         :: dispersion energy         -0.031326012877 Eh    ::
         :: halogen bond corr.         0.000000000000 Eh    ::
         :: add. restraining           0.000000000000 Eh    ::
         :: total charge               1.000000000383 e     ::
         :::::::::::::::::::::::::::::::::::::::::::::::::::::

           -------------------------------------------------
          |                Property Printout                |
           -------------------------------------------------

    * Orbital Energies and Occupations

         #    Occupation            Energy/Eh            Energy/eV
      -------------------------------------------------------------
         1        2.0000           -0.8855589             -24.0973
       ...           ...                  ...                  ...
        55        2.0000           -0.5258350             -14.3087
        56        2.0000           -0.5219896             -14.2041
        57        2.0000           -0.5130275             -13.9602
        58        2.0000           -0.5117017             -13.9241
        59        2.0000           -0.5097879             -13.8720
        60        2.0000           -0.5075326             -13.8107
        61        2.0000           -0.4968666             -13.5204
        62        2.0000           -0.4803901             -13.0721
        63        2.0000           -0.4755985             -12.9417
        64        2.0000           -0.4669527             -12.7064
        65        2.0000           -0.4570898             -12.4380
        66        2.0000           -0.4425672             -12.0429
        67        2.0000           -0.4410310             -12.0011 (HOMO)
        68        0.0000           -0.4128125             -11.2332 (LUMO)
        69                         -0.3368877              -9.1672
        70                         -0.3013539              -8.2003
        71                         -0.2790525              -7.5934
        72                         -0.2711416              -7.3781
        73                         -0.2584819              -7.0336
        74                         -0.1589036              -4.3240
        75                         -0.1549123              -4.2154
        76                         -0.1498931              -4.0788
        77                         -0.1456480              -3.9633
        78                         -0.1385180              -3.7693
       ...                                ...                  ...
       144                          0.6862243              18.6731
      -------------------------------------------------------------
                  HL-Gap            0.0282186 Eh            0.7679 eV
             Fermi-level           -0.4268358 Eh          -11.6148 eV

  Mulliken/CM5 charges         n(s)   n(p)   n(d)
     1C     0.03772 -0.04933   1.004  2.958  0.000
     2N    -0.17251 -0.42458   1.457  3.716  0.000
     3C     0.32813  0.47468   1.061  2.611  0.000
     4C     0.15274  0.18902   1.064  2.783  0.000
     5C    -0.11012 -0.25030   1.027  3.084  0.000
     6C    -0.09589 -0.23674   1.027  3.069  0.000
     7N    -0.50547 -0.97402   1.468  4.037  0.000
     8N    -0.30020 -0.49632   1.510  3.791  0.000
     9C     0.19919  0.29226   1.112  2.689  0.000
    10C     0.47952  0.59002   0.972  2.549  0.000
    11O    -0.56039 -0.60150   1.724  4.836  0.000
    12N    -0.31051 -0.67818   1.431  3.879  0.000
    13C     0.09081  0.04788   1.011  2.899  0.000
    14C    -0.01274 -0.02274   1.085  2.927  0.000
    15C    -0.03243 -0.08576   1.061  2.971  0.000
    16C    -0.06149 -0.11243   1.059  3.003  0.000
    17C     0.24668  0.25800   1.045  2.708  0.000
    18F    -0.27044 -0.29465   1.829  5.442  0.000
    19C    -0.06270 -0.11363   1.059  3.004  0.000
    20C    -0.02860 -0.07964   1.060  2.968  0.000
    21C     0.21664  0.23650   1.037  2.747  0.000
    22O    -0.56730 -0.77645   1.696  4.871  0.000
    23C     0.47802  0.57530   1.026  2.496  0.000
    24C    -0.09939 -0.24040   1.035  3.064  0.000
    25O    -0.46078 -0.51271   1.718  4.743  0.000
    26H     0.08360  0.16121   0.916  0.000  0.000
    27H     0.09300  0.16126   0.907  0.000  0.000
    28H     0.08789  0.15170   0.912  0.000  0.000
    29H     0.05922  0.11837   0.941  0.000  0.000
    30H     0.06726  0.12294   0.933  0.000  0.000
    31H     0.05624  0.11316   0.944  0.000  0.000
    32H     0.05871  0.11479   0.941  0.000  0.000
    33H     0.05801  0.11518   0.942  0.000  0.000
    34H     0.07506  0.13051   0.925  0.000  0.000
    35H     0.24242  0.43453   0.758  0.000  0.000
    36H     0.25170  0.44248   0.748  0.000  0.000
    37H     0.27295  0.47982   0.727  0.000  0.000
    38H     0.06329  0.12875   0.937  0.000  0.000
    39H     0.07413  0.14534   0.926  0.000  0.000
    40H     0.05156  0.10854   0.948  0.000  0.000
    41H     0.06415  0.12125   0.936  0.000  0.000
    42H     0.06360  0.12079   0.936  0.000  0.000
    43H     0.04634  0.11293   0.954  0.000  0.000
    44H     0.41506  0.59297   0.585  0.000  0.000
    45H     0.08810  0.14415   0.912  0.000  0.000
    46H     0.08657  0.14323   0.913  0.000  0.000
    47H     0.06266  0.12182   0.937  0.000  0.000

Wiberg/Mayer (AO) data.
largest (>0.10) Wiberg bond orders for each atom

 ---------------------------------------------------------------------------
     #   Z sym  total        # sym  WBO       # sym  WBO       # sym  WBO
 ---------------------------------------------------------------------------
     1   6 C    3.880 --    27 H    0.974    28 H    0.965    26 H    0.956
                             2 N    0.901
     2   7 N    3.549 --     3 C    1.359    23 C    1.015     1 C    0.901
     3   6 C    3.877 --     2 N    1.359     8 N    1.247     4 C    1.009
     4   6 C    3.957 --     3 C    1.009     7 N    0.999     5 C    0.961
                             6 C    0.936
     5   6 C    3.985 --    31 H    0.984    30 H    0.981    29 H    0.981
                             4 C    0.961
     6   6 C    3.978 --    32 H    0.984    33 H    0.984    34 H    0.975
                             4 C    0.936
     7   7 N    3.020 --     4 C    0.999    35 H    0.929    36 H    0.925
     8   7 N    3.133 --     9 C    1.647     3 C    1.247
     9   6 C    3.898 --     8 N    1.647    21 C    1.002    10 C    0.940
    10   6 C    3.921 --    11 O    1.597    12 N    1.308     9 C    0.940
    11   8 O    1.922 --    10 C    1.597    12 N    0.198
    12   7 N    3.402 --    10 C    1.308    13 C    0.937    37 H    0.885
                            11 O    0.198
    13   6 C    3.930 --    14 C    0.992    38 H    0.966    39 H    0.961
                            12 N    0.937
    14   6 C    3.985 --    20 C    1.423    15 C    1.409    13 C    0.992
    15   6 C    3.993 --    16 C    1.450    14 C    1.409    40 H    0.971
                            19 C    0.112
    16   6 C    3.991 --    15 C    1.450    17 C    1.395    41 H    0.969
                            20 C    0.109
    17   6 C    3.862 --    19 C    1.405    16 C    1.395    18 F    0.928
    18   9 F    1.057 --    17 C    0.928
    19   6 C    3.992 --    20 C    1.438    17 C    1.405    42 H    0.969
                            15 C    0.112
    20   6 C    3.993 --    19 C    1.438    14 C    1.423    43 H    0.968
                            16 C    0.109
    21   6 C    3.933 --     9 C    1.002    22 O    0.988    23 C    0.926
                            24 C    0.894
    22   8 O    1.932 --    21 C    0.988    44 H    0.812
    23   6 C    3.861 --    25 O    1.773     2 N    1.015    21 C    0.926
    24   6 C    3.969 --    47 H    0.985    46 H    0.978    45 H    0.976
                            21 C    0.894
    25   8 O    2.038 --    23 C    1.773
    26   1 H    1.018 --     1 C    0.956
    27   1 H    0.997 --     1 C    0.974
    28   1 H    0.994 --     1 C    0.965
    29   1 H    1.006 --     5 C    0.981
    30   1 H    0.998 --     5 C    0.981
    31   1 H    0.998 --     5 C    0.984
    32   1 H    1.000 --     6 C    0.984
    33   1 H    0.998 --     6 C    0.984
    34   1 H    0.994 --     6 C    0.975
    35   1 H    0.944 --     7 N    0.929
    36   1 H    0.940 --     7 N    0.925
    37   1 H    0.938 --    12 N    0.885
    38   1 H    1.002 --    13 C    0.966
    39   1 H    1.007 --    13 C    0.961
    40   1 H    0.997 --    15 C    0.971
    41   1 H    0.997 --    16 C    0.969
    42   1 H    0.997 --    19 C    0.969
    43   1 H    1.011 --    20 C    0.968
    44   1 H    0.836 --    22 O    0.812
    45   1 H    0.995 --    24 C    0.976
    46   1 H    0.994 --    24 C    0.978
    47   1 H    0.996 --    24 C    0.985
 ---------------------------------------------------------------------------

Topologies differ in total number of bonds
Writing topology from bond orders to xtbtopo.mol

 dipole moment from electron density (au)
     X       Y       Z   
  -5.2830  -1.2751   0.8194  total (Debye):   13.970

           -------------------------------------------------
          |                Geometry Summary                 |
           -------------------------------------------------

      molecular mass/u    :      349.3806376
   center of mass at/Å    :        0.6415447      -0.1167907       0.0696174
  moments of inertia/u·Å² :        0.9568040E+03   0.5208980E+04   0.5651161E+04
rotational constants/cm⁻¹ :        0.1761869E-01   0.3236264E-02   0.2983039E-02

 * 39 selected distances

     #   Z          #   Z                                           value/Å
     1   6 C        2   7 N                                       1.4663273 (max)
     2   7 N        3   6 C                                       1.3330426
     4   6 C        7   7 N                                       1.4469220
     3   6 C        8   7 N                                       1.3515186
     8   7 N        9   6 C                                       1.2882481
    10   6 C       11   8 O                                       1.2166171
    10   6 C       12   7 N                                       1.3353178
    12   7 N       13   6 C                                       1.4558158
    14   6 C       15   6 C                                       1.3946504
    15   6 C       16   6 C                                       1.3867535
    16   6 C       17   6 C                                       1.3840467
    17   6 C       19   6 C                                       1.3823108
    14   6 C       20   6 C                                       1.3912859
    19   6 C       20   6 C                                       1.3884030
    21   6 C       22   8 O                                       1.3914374
     2   7 N       23   6 C                                       1.4216833
    23   6 C       25   8 O                                       1.1951546
     1   6 C       26   1 H                                       1.0874532
     1   6 C       27   1 H                                       1.0886114
     1   6 C       28   1 H                                       1.0895132
     5   6 C       29   1 H                                       1.0887845
     5   6 C       30   1 H                                       1.0878861
     5   6 C       31   1 H                                       1.0884139
     6   6 C       32   1 H                                       1.0886948
     6   6 C       33   1 H                                       1.0881939
     6   6 C       34   1 H                                       1.0883726
     7   7 N       35   1 H                                       1.0094959
     7   7 N       36   1 H                                       1.0100719
    12   7 N       37   1 H                                       1.0057936
    13   6 C       38   1 H                                       1.0937967
    13   6 C       39   1 H                                       1.0955921
    15   6 C       40   1 H                                       1.0836804
    16   6 C       41   1 H                                       1.0822877
    19   6 C       42   1 H                                       1.0819518
    20   6 C       43   1 H                                       1.0826989
    22   8 O       44   1 H                                       0.9695212 (min)
    24   6 C       45   1 H                                       1.0880092
    24   6 C       46   1 H                                       1.0874288
    24   6 C       47   1 H                                       1.0868029

 * 6 distinct bonds (by element types)

   Z      Z             #   av. dist./Å        max./Å        min./Å
   1 H    6 C          18     1.0876762     1.0955921     1.0819518
   6 C    6 C           6     1.3879084     1.3946504     1.3823108
   1 H    7 N           3     1.0084538     1.0100719     1.0057936
   6 C    7 N           8     1.3873594     1.4663273     1.2882481
   1 H    8 O           1     0.9695212     0.9695212     0.9695212
   6 C    8 O           3     1.2677364     1.3914374     1.1951546


optimized geometry written to: xtbopt.xyz


           -------------------------------------------------
          | TOTAL ENERGY              -79.493509172343 Eh   |
          | GRADIENT NORM               0.000376939649 Eh/α |
          | HOMO-LUMO GAP               0.767866005251 eV   |
           -------------------------------------------------

------------------------------------------------------------------------
 * finished run on 2023/06/20 at 15:34:39.461     
------------------------------------------------------------------------
 total:
 * wall-time:     0 d,  0 h,  0 min, 16.644 sec
 *  cpu-time:     0 d,  0 h,  0 min, 15.669 sec
 * ratio c/w:     0.941 speedup
 SCF:
 * wall-time:     0 d,  0 h,  0 min,  0.481 sec
 *  cpu-time:     0 d,  0 h,  0 min,  0.242 sec
 * ratio c/w:     0.504 speedup
 ANC optimizer:
 * wall-time:     0 d,  0 h,  0 min, 16.007 sec
 *  cpu-time:     0 d,  0 h,  0 min, 15.373 sec
 * ratio c/w:     0.960 speedup

