      -----------------------------------------------------------      
     |                   =====================                   |     
     |                           x T B                           |     
     |                   =====================                   |     
     |                         S. Grimme                         |     
     |          Mulliken Center for Theoretical Chemistry        |     
     |                    University of Bonn                     |     
      -----------------------------------------------------------      

   * xtb version 6.5.1 (579679a) compiled by 'ehlert@majestix' on 2022-07-11

   xtb is free software: you can redistribute it and/or modify it under
   the terms of the GNU Lesser General Public License as published by
   the Free Software Foundation, either version 3 of the License, or
   (at your option) any later version.
   
   xtb is distributed in the hope that it will be useful,
   but WITHOUT ANY WARRANTY; without even the implied warranty of
   MERCHANTABILITY or FITNESS FOR A PARTICULAR PURPOSE.  See the
   GNU Lesser General Public License for more details.
   
   Cite this work as:
   * C. Bannwarth, E. Caldeweyher, S. Ehlert, A. Hansen, P. Pracht,
     J. Seibert, S. Spicher, S. Grimme, WIREs Comput. Mol. Sci., 2020, 11,
     e01493. DOI: 10.1002/wcms.1493
   
   for GFN2-xTB:
   * C. Bannwarth, S. Ehlert and S. Grimme., J. Chem. Theory Comput., 2019,
     15, 1652-1671. DOI: 10.1021/acs.jctc.8b01176
   for GFN1-xTB:
   * S. Grimme, C. Bannwarth, P. Shushkov, J. Chem. Theory Comput., 2017,
     13, 1989-2009. DOI: 10.1021/acs.jctc.7b00118
   for GFN0-xTB:
   * P. Pracht, E. Caldeweyher, S. Ehlert, S. Grimme, ChemRxiv, 2019, preprint.
     DOI: 10.26434/chemrxiv.8326202.v1
   for GFN-FF:
   * S. Spicher and S. Grimme, Angew. Chem. Int. Ed., 2020, 59, 15665-15673.
     DOI: 10.1002/anie.202004239
   
   for ALPB and GBSA implicit solvation:
   * S. Ehlert, M. Stahn, S. Spicher, S. Grimme, J. Chem. Theory Comput.,
     2021, 17, 4250-4261. DOI: 10.1021/acs.jctc.1c00471
   
   for DFT-D4:
   * E. Caldeweyher, C. Bannwarth and S. Grimme, J. Chem. Phys., 2017,
     147, 034112. DOI: 10.1063/1.4993215
   * E. Caldeweyher, S. Ehlert, A. Hansen, H. Neugebauer, S. Spicher,
     C. Bannwarth and S. Grimme, J. Chem. Phys., 2019, 150, 154122.
     DOI: 10.1063/1.5090222
   * E. Caldeweyher, J.-M. Mewes, S. Ehlert and S. Grimme, Phys. Chem. Chem. Phys.
     2020, 22, 8499-8512. DOI: 10.1039/D0CP00502A
   
   for sTDA-xTB:
   * S. Grimme and C. Bannwarth, J. Chem. Phys., 2016, 145, 054103.
     DOI: 10.1063/1.4959605
   
   in the mass-spec context:
   * V. Asgeirsson, C. Bauer and S. Grimme, Chem. Sci., 2017, 8, 4879.
     DOI: 10.1039/c7sc00601b
   * J. Koopman and S. Grimme, ACS Omega 2019, 4, 12, 15120-15133.
     DOI: 10.1021/acsomega.9b02011
   
   for metadynamics refer to:
   * S. Grimme, J. Chem. Theory Comput., 2019, 155, 2847-2862
     DOI: 10.1021/acs.jctc.9b00143
   
   for SPH calculations refer to:
   * S. Spicher and S. Grimme, J. Chem. Theory Comput., 2021, 17, 1701-1714
     DOI: 10.1021/acs.jctc.0c01306
   
   with help from (in alphabetical order)
   P. Atkinson, C. Bannwarth, F. Bohle, G. Brandenburg, E. Caldeweyher
   M. Checinski, S. Dohm, S. Ehlert, S. Ehrlich, I. Gerasimov, C. Hölzer
   A. Katbashev, J. Koopman, C. Lavigne, S. Lehtola, F. März, M. Müller,
   F. Musil, H. Neugebauer, J. Pisarek, C. Plett, P. Pracht, F. Pultar,
   J. Seibert, P. Shushkov, S. Spicher, M. Stahn, M. Steiner, T. Strunk,
   J. Stückrath, T. Rose, and J. Unsleber
   
 * started run on 2023/06/20 at 15:34:43.989     

           -------------------------------------------------
          |                Calculation Setup                |
           -------------------------------------------------

          program call               : /lustre/hpc/kemi/ree/PhD/git/ReactivityQM/dep/xtb-6.5.1/bin/xtb --gfn 1 /lustre/hpc/kemi/ree/PhD/git/ReactivityQM/calculations/R02/reac01prodN12/conf15/R02_reac01prodN12_conf15_gfn1.xyz --opt --vfukui --chrg 1 --uhf 0 --alpb DMSO
          hostname                   : node315
          coordinate file            : /lustre/hpc/kemi/ree/PhD/git/ReactivityQM/calculations/R02/reac01prodN12/conf15/R02_reac01prodN12_conf15_gfn1.xyz
          omp threads                :                     1

   ID    Z sym.   atoms
    1    6 C      1, 3, 5, 7-10, 12, 14, 15, 18, 19, 22, 24
    2    8 O      2, 4, 13, 20, 23, 25
    3    7 N      6, 11, 16, 17, 21
    4    1 H      26-43

           -------------------------------------------------
          |                 G F N 1 - x T B                 |
           -------------------------------------------------

        Reference                      10.1021/acs.jctc.7b00118
      * Hamiltonian:
        H0-scaling (s, p, d)           1.850000    2.250000    2.000000
        zeta-weighting                 0.000000
      * Dispersion:
        s8                             2.400000
        a1                             0.630000
        a2                             5.000000
        s9                             0.000000
      * Repulsion:
        kExp                           1.500000
        rExp                           1.000000
      * Coulomb:
        alpha                          2.000000
        third order                    atomic
        anisotropic                    false
      * Halogen bond correction:
        rad-scale                      1.300000
        damping                        0.440000

      * Solvation model:               ALPB
        Solvent                        DMSO
        Parameter file                 internal GFN1-xTB/ALPB
        Dielectric constant                4.6680E+01
        Reference state                gsolv [1 M gas/solution]
        Free energy shift                  7.6243E-03 Eh       4.7843E+00 kcal/mol
        Temperature                        2.9815E+02 K
        Density                            1.1000E+00 kg/L
        Solvent mass                       7.8130E+01 g/mol
        Interaction kernel             P16
        Born radius scaling (c1)           1.7672E+00
        Born radii integrator          GBOBC
        Born offset                        0.0000E+00 a0       0.0000E+00 AA
        H-bond correction              true
        Ion screening                  false
        Surface tension                    1.0000E-05 Eh       1.5569E+01 dyn/cm
        Grid points                               230 per atom

          ...................................................
          :                      SETUP                      :
          :.................................................:
          :  # basis functions                 136          :
          :  # atomic orbitals                 136          :
          :  # shells                           86          :
          :  # electrons                       134          :
          :  # halogen bonds                     0          :
          :  max. iterations                   250          :
          :  Hamiltonian                  GFN1-xTB          :
          :  restarted?                      false          :
          :  GBSA solvation                   true          :
          :  PC potential                    false          :
          :  electronic temp.          300.0000000     K    :
          :  accuracy                    1.0000000          :
          :  -> integral cutoff          0.2500000E+02      :
          :  -> integral neglect         0.1000000E-07      :
          :  -> SCF convergence          0.1000000E-05 Eh   :
          :  -> wf. convergence          0.2000000E-04 e    :
          :  Broyden damping             0.4000000          :
          ...................................................

 iter      E             dE          RMSdq      gap      omega  full diag
   1    -83.5175051 -0.835175E+02  0.832E+00    1.68       0.0  T
   2    -83.8670590 -0.349554E+00  0.494E+00    0.41       1.0  T
   3    -83.7046741  0.162385E+00  0.191E+00    0.04       1.0  T
   4    -83.8306903 -0.126016E+00  0.109E+00    1.94       1.0  T
   5    -83.8724733 -0.417830E-01  0.476E-01    1.65       1.0  T
   6    -83.8802281 -0.775486E-02  0.284E-01    0.92       1.0  T
   7    -83.8833987 -0.317059E-02  0.142E-01    0.35       1.0  T
   8    -83.8511548  0.322439E-01  0.511E-01    0.05       1.0  T
   9    -83.8827424 -0.315876E-01  0.169E-01    0.44       1.0  T
  10    -83.8832241 -0.481736E-03  0.143E-01    0.34       1.0  T
  11    -83.8837150 -0.490842E-03  0.118E-01    0.28       1.0  T
  12    -83.8845479 -0.832886E-03  0.746E-02    0.21       1.0  T
  13    -83.8846562 -0.108365E-03  0.656E-02    0.13       1.0  T
  14    -83.8848878 -0.231550E-03  0.509E-02    0.19       1.0  T
  15    -83.8851951 -0.307349E-03  0.339E-03    0.15       4.5  T
  16    -83.8851932  0.195530E-05  0.523E-03    0.16       2.9  T
  17    -83.8851961 -0.296349E-05  0.179E-03    0.15       8.5  T
  18    -83.8851965 -0.383385E-06  0.292E-04    0.15      52.3  T
  19    -83.8851965 -0.225974E-08  0.259E-04    0.15      58.8  T
  20    -83.8851965 -0.805228E-08  0.421E-05    0.15     362.2  T
  21    -83.8851965 -0.211045E-09  0.782E-06    0.15    1949.2  T

   *** convergence criteria satisfied after 21 iterations ***

         #    Occupation            Energy/Eh            Energy/eV
      -------------------------------------------------------------
         1        2.0000           -0.9204663             -25.0472
       ...           ...                  ...                  ...
        61        2.0000           -0.5024866             -13.6734
        62        2.0000           -0.4998347             -13.6012
        63        2.0000           -0.4954117             -13.4808
        64        2.0000           -0.4936957             -13.4341
        65        2.0000           -0.4744726             -12.9111
        66        2.0000           -0.4622952             -12.5797
        67        1.9020           -0.4468519             -12.1595 (HOMO)
        68        0.0980           -0.4412176             -12.0061 (LUMO)
        69                         -0.3448840              -9.3848
        70                         -0.3342087              -9.0943
        71                         -0.3153685              -8.5816
        72                         -0.3037824              -8.2663
       ...                                ...                  ...
       136                          0.6963987              18.9500
      -------------------------------------------------------------
                  HL-Gap            0.0056343 Eh            0.1533 eV
             Fermi-level           -0.4440348 Eh          -12.0828 eV

 SCC (total)                   0 d,  0 h,  0 min,  0.194 sec
 SCC setup                      ...        0 min,  0.002 sec (  1.092%)
 Dispersion                     ...        0 min,  0.000 sec (  0.214%)
 classical contributions        ...        0 min,  0.000 sec (  0.068%)
 integral evaluation            ...        0 min,  0.037 sec ( 19.204%)
 iterations                     ...        0 min,  0.071 sec ( 36.358%)
 molecular gradient             ...        0 min,  0.083 sec ( 42.579%)
 printout                       ...        0 min,  0.001 sec (  0.460%)

         :::::::::::::::::::::::::::::::::::::::::::::::::::::
         ::                     SUMMARY                     ::
         :::::::::::::::::::::::::::::::::::::::::::::::::::::
         :: total energy             -83.117342007051 Eh    ::
         :: total w/o Gsasa/hb       -83.093392970426 Eh    ::
         :: gradient norm              0.130482204131 Eh/a0 ::
         :: HOMO-LUMO gap              0.153316560995 eV    ::
         ::.................................................::
         :: SCC energy               -83.885196521048 Eh    ::
         :: -> electrostatic           0.422879237826 Eh    ::
         :: -> Gsolv                  -0.117744680002 Eh    ::
         ::    -> Gelec               -0.093795643377 Eh    ::
         ::    -> Gsasa               -0.024235506302 Eh    ::
         ::    -> Ghb                 -0.007337809328 Eh    ::
         ::    -> Gshift               0.007624279005 Eh    ::
         :: repulsion energy           0.794931648866 Eh    ::
         :: dispersion energy         -0.027077134869 Eh    ::
         :: halogen bond corr.         0.000000000000 Eh    ::
         :: add. restraining           0.000000000000 Eh    ::
         :: total charge               1.000000000000 e     ::
         :::::::::::::::::::::::::::::::::::::::::::::::::::::

      ----------------------------------------------------------- 
     |                   =====================                   |
     |                        A N C O P T                        |
     |                   =====================                   |
     |               Approximate Normal Coordinate               |
     |                Rational Function Optimizer                |
      ----------------------------------------------------------- 

          ...................................................
          :                      SETUP                      :
          :.................................................:
          :   optimization level            normal          :
          :   max. optcycles                   200          :
          :   ANC micro-cycles                  20          :
          :   degrees of freedom               123          :
          :.................................................:
          :   RF solver                   davidson          :
          :   write xtbopt.log                true          :
          :   linear?                        false          :
          :   energy convergence         0.5000000E-05 Eh   :
          :   grad. convergence          0.1000000E-02 Eh/α :
          :   maximium RF displ.         1.0000000          :
          :   Hlow (freq-cutoff)         0.1000000E-01      :
          :   Hmax (freq-cutoff)         5.0000000          :
          :   S6 in model hess.         20.0000000          :
          ...................................................

generating ANC from model Hessian ...
Using Lindh-Hessian (1995)
 Shifting diagonal of input Hessian by   9.762938400569911E-003
 Lowest  eigenvalues of input Hessian
    0.000000    0.000000    0.000000    0.000000    0.000000    0.000000
    0.010000    0.010123    0.010408    0.011028    0.012041    0.012257
    0.012679    0.014204    0.014806    0.015982    0.016901    0.018037
 Highest eigenvalues
    2.012789    2.034634    2.194494    2.306380    2.342939    2.455141
 

........................................................................
.............................. CYCLE    1 ..............................
........................................................................
   1    -83.8851965 -0.838852E+02  0.757E-07    0.15       0.0  T
   2    -83.8851965  0.106581E-11  0.339E-06    0.15    4497.3  T
   3    -83.8851965 -0.125056E-11  0.795E-08    0.15  100000.0  T
     SCC iter.                  ...        0 min,  0.011 sec
     gradient                   ...        0 min,  0.083 sec
 * total energy  :   -83.1173420 Eh     change       -0.7460699E-11 Eh
   gradient norm :     0.1304824 Eh/α   predicted     0.0000000E+00 (-100.00%)
   displ. norm   :     0.3171587 α      lambda       -0.1864139E-01
   maximum displ.:     0.1038059 α      in ANC's #22, #26, #33, ...

........................................................................
.............................. CYCLE    2 ..............................
........................................................................
   1    -83.9081130 -0.839081E+02  0.107E-01    0.25       0.0  T
   2    -83.8862602  0.218528E-01  0.425E-01    0.06       1.0  T
   3    -83.9087756 -0.225154E-01  0.674E-02    0.23       1.0  T
   4    -83.9090266 -0.250999E-03  0.381E-02    0.20       1.0  T
   5    -83.9091750 -0.148412E-03  0.846E-03    0.18       1.8  T
   6    -83.9091413  0.336258E-04  0.171E-02    0.16       1.0  T
   7    -83.9091715 -0.301899E-04  0.705E-03    0.17       2.2  T
   8    -83.9091777 -0.617275E-05  0.254E-04    0.17      60.0  T
   9    -83.9091777  0.218612E-07  0.461E-04    0.17      33.1  T
  10    -83.9091777 -0.182933E-07  0.247E-04    0.17      61.6  T
  11    -83.9091777 -0.678232E-08  0.730E-05    0.17     208.8  T
  12    -83.9091777 -0.611877E-09  0.170E-05    0.17     895.6  T
     SCC iter.                  ...        0 min,  0.042 sec
     gradient                   ...        0 min,  0.086 sec
 * total energy  :   -83.1311447 Eh     change       -0.1380273E-01 Eh
   gradient norm :     0.0689960 Eh/α   predicted    -0.1026840E-01 ( -25.61%)
   displ. norm   :     0.3356067 α      lambda       -0.9155943E-02
   maximum displ.:     0.1015781 α      in ANC's #11, #33, #22, ...

........................................................................
.............................. CYCLE    3 ..............................
........................................................................
   1    -83.9245025 -0.839245E+02  0.957E-02    0.31       0.0  T
   2    -83.9247295 -0.226956E-03  0.763E-02    0.17       1.0  T
   3    -83.9251105 -0.380977E-03  0.391E-02    0.26       1.0  T
   4    -83.9252315 -0.120987E-03  0.146E-02    0.22       1.0  T
   5    -83.9252124  0.190345E-04  0.145E-02    0.20       1.1  T
   6    -83.9252341 -0.217058E-04  0.148E-03    0.21      10.3  T
   7    -83.9252342 -0.426784E-07  0.391E-04    0.21      39.0  T
   8    -83.9252342 -0.485740E-08  0.160E-04    0.21      95.4  T
   9    -83.9252342  0.274269E-11  0.810E-05    0.21     188.3  T
     SCC iter.                  ...        0 min,  0.031 sec
     gradient                   ...        0 min,  0.086 sec
 * total energy  :   -83.1363875 Eh     change       -0.5242727E-02 Eh
   gradient norm :     0.0209161 Eh/α   predicted    -0.5095085E-02 (  -2.82%)
   displ. norm   :     0.2205424 α      lambda       -0.1226022E-02
   maximum displ.:     0.0952649 α      in ANC's #11, #5, #6, ...

........................................................................
.............................. CYCLE    4 ..............................
........................................................................
   1    -83.9249315 -0.839249E+02  0.219E-02    0.26       0.0  T
   2    -83.9249500 -0.185075E-04  0.171E-02    0.22       1.0  T
   3    -83.9249681 -0.181591E-04  0.612E-03    0.24       2.5  T
   4    -83.9249697 -0.162912E-05  0.345E-03    0.23       4.4  T
   5    -83.9249700 -0.237571E-06  0.118E-03    0.23      13.0  T
   6    -83.9249700 -0.188909E-07  0.201E-04    0.23      75.9  T
   7    -83.9249700 -0.218640E-08  0.871E-05    0.23     175.1  T
   8    -83.9249700 -0.143288E-09  0.273E-05    0.23     558.9  T
     SCC iter.                  ...        0 min,  0.027 sec
     gradient                   ...        0 min,  0.086 sec
 * total energy  :   -83.1373224 Eh     change       -0.9349013E-03 Eh
   gradient norm :     0.0139882 Eh/α   predicted    -0.6428764E-03 ( -31.24%)
   displ. norm   :     0.3168862 α      lambda       -0.1054197E-02
   maximum displ.:     0.1495292 α      in ANC's #11, #5, #6, ...

........................................................................
.............................. CYCLE    5 ..............................
........................................................................
   1    -83.9240372 -0.839240E+02  0.277E-02    0.28       0.0  T
   2    -83.9240819 -0.447514E-04  0.136E-02    0.25       1.1  T
   3    -83.9240873 -0.535322E-05  0.489E-03    0.26       3.1  T
   4    -83.9240873 -0.626303E-07  0.248E-03    0.26       6.2  T
   5    -83.9240874 -0.312566E-07  0.526E-04    0.26      29.0  T
   6    -83.9240874 -0.594174E-08  0.138E-04    0.26     110.6  T
   7    -83.9240874 -0.482999E-09  0.730E-05    0.26     208.8  T
     SCC iter.                  ...        0 min,  0.024 sec
     gradient                   ...        0 min,  0.086 sec
 * total energy  :   -83.1380153 Eh     change       -0.6928998E-03 Eh
   gradient norm :     0.0076189 Eh/α   predicted    -0.5800321E-03 ( -16.29%)
   displ. norm   :     0.2281781 α      lambda       -0.3492552E-03
   maximum displ.:     0.1140717 α      in ANC's #5, #11, #6, ...

........................................................................
.............................. CYCLE    6 ..............................
........................................................................
   1    -83.9249061 -0.839249E+02  0.151E-02    0.27       0.0  T
   2    -83.9249198 -0.137265E-04  0.658E-03    0.27       2.3  T
   3    -83.9249217 -0.188514E-05  0.219E-03    0.27       7.0  T
   4    -83.9249217 -0.334734E-07  0.115E-03    0.27      13.3  T
   5    -83.9249217 -0.109803E-07  0.396E-04    0.27      38.5  T
   6    -83.9249217 -0.271237E-08  0.103E-04    0.27     147.3  T
   7    -83.9249217 -0.356422E-09  0.372E-05    0.27     409.7  T
     SCC iter.                  ...        0 min,  0.024 sec
     gradient                   ...        0 min,  0.086 sec
 * total energy  :   -83.1382732 Eh     change       -0.2578885E-03 Eh
   gradient norm :     0.0069007 Eh/α   predicted    -0.1837654E-03 ( -28.74%)
   displ. norm   :     0.2612873 α      lambda       -0.2889861E-03
   maximum displ.:     0.1351047 α      in ANC's #5, #6, #11, ...

........................................................................
.............................. CYCLE    7 ..............................
........................................................................
   1    -83.9266174 -0.839266E+02  0.136E-02    0.28       0.0  T
   2    -83.9266274 -0.999385E-05  0.520E-03    0.28       2.9  T
   3    -83.9266289 -0.150896E-05  0.218E-03    0.28       7.0  T
   4    -83.9266290 -0.683514E-07  0.105E-03    0.28      14.5  T
   5    -83.9266290 -0.156321E-08  0.317E-04    0.28      48.2  T
   6    -83.9266290 -0.207629E-08  0.795E-05    0.28     191.9  T
   7    -83.9266290 -0.131735E-09  0.297E-05    0.28     513.0  T
     SCC iter.                  ...        0 min,  0.024 sec
     gradient                   ...        0 min,  0.086 sec
 * total energy  :   -83.1384815 Eh     change       -0.2083411E-03 Eh
   gradient norm :     0.0058454 Eh/α   predicted    -0.1543668E-03 ( -25.91%)
   displ. norm   :     0.2388824 α      lambda       -0.1917666E-03
   maximum displ.:     0.1205989 α      in ANC's #5, #2, #6, ...

........................................................................
.............................. CYCLE    8 ..............................
........................................................................
   1    -83.9283307 -0.839283E+02  0.972E-03    0.28       0.0  T
   2    -83.9283350 -0.435241E-05  0.363E-03    0.29       4.2  T
   3    -83.9283357 -0.632794E-06  0.212E-03    0.28       7.2  T
   4    -83.9283358 -0.801531E-07  0.967E-04    0.28      15.8  T
   5    -83.9283358 -0.563503E-09  0.186E-04    0.28      82.0  T
   6    -83.9283358 -0.762043E-09  0.523E-05    0.28     291.8  T
     SCC iter.                  ...        0 min,  0.021 sec
     gradient                   ...        0 min,  0.086 sec
 * total energy  :   -83.1386193 Eh     change       -0.1378405E-03 Eh
   gradient norm :     0.0042653 Eh/α   predicted    -0.1013552E-03 ( -26.47%)
   displ. norm   :     0.2009823 α      lambda       -0.1212939E-03
   maximum displ.:     0.0952312 α      in ANC's #2, #5, #6, ...

........................................................................
.............................. CYCLE    9 ..............................
........................................................................
   1    -83.9295388 -0.839295E+02  0.662E-03    0.27       0.0  T
   2    -83.9295409 -0.207014E-05  0.292E-03    0.28       5.2  T
   3    -83.9295412 -0.284711E-06  0.159E-03    0.28       9.6  T
   4    -83.9295412 -0.374025E-07  0.753E-04    0.28      20.3  T
   5    -83.9295412 -0.974623E-09  0.130E-04    0.28     117.3  T
   6    -83.9295412 -0.272806E-09  0.367E-05    0.28     416.0  T
     SCC iter.                  ...        0 min,  0.021 sec
     gradient                   ...        0 min,  0.086 sec
 * total energy  :   -83.1387056 Eh     change       -0.8628866E-04 Eh
   gradient norm :     0.0033512 Eh/α   predicted    -0.6309744E-04 ( -26.88%)
   displ. norm   :     0.1563647 α      lambda       -0.7431635E-04
   maximum displ.:     0.0836609 α      in ANC's #2, #4, #5, ...

........................................................................
.............................. CYCLE   10 ..............................
........................................................................
   1    -83.9300147 -0.839300E+02  0.419E-03    0.27       0.0  T
   2    -83.9300156 -0.957582E-06  0.202E-03    0.28       7.5  T
   3    -83.9300157 -0.957692E-07  0.936E-04    0.28      16.3  T
   4    -83.9300157 -0.464233E-08  0.517E-04    0.28      29.5  T
   5    -83.9300157 -0.233531E-08  0.113E-04    0.28     134.9  T
   6    -83.9300157 -0.310408E-09  0.290E-05    0.28     526.6  T
     SCC iter.                  ...        0 min,  0.021 sec
     gradient                   ...        0 min,  0.086 sec
 * total energy  :   -83.1387594 Eh     change       -0.5378386E-04 Eh
   gradient norm :     0.0032606 Eh/α   predicted    -0.3807339E-04 ( -29.21%)
   displ. norm   :     0.1220072 α      lambda       -0.4876095E-04
   maximum displ.:     0.0746272 α      in ANC's #2, #4, #9, ...

........................................................................
.............................. CYCLE   11 ..............................
........................................................................
   1    -83.9299865 -0.839300E+02  0.322E-03    0.27       0.0  T
   2    -83.9299869 -0.463559E-06  0.120E-03    0.27      12.7  T
   3    -83.9299870 -0.222366E-07  0.644E-04    0.27      23.7  T
   4    -83.9299870 -0.130426E-08  0.253E-04    0.27      60.3  T
   5    -83.9299870 -0.536645E-09  0.847E-05    0.27     180.1  T
   6    -83.9299870 -0.177295E-09  0.191E-05    0.27     800.4  T
     SCC iter.                  ...        0 min,  0.021 sec
     gradient                   ...        0 min,  0.086 sec
 * total energy  :   -83.1387945 Eh     change       -0.3513386E-04 Eh
   gradient norm :     0.0028111 Eh/α   predicted    -0.2474400E-04 ( -29.57%)
   displ. norm   :     0.0863101 α      lambda       -0.2949924E-04
   maximum displ.:     0.0594804 α      in ANC's #2, #4, #9, ...

........................................................................
.............................. CYCLE   12 ..............................
........................................................................
   1    -83.9298182 -0.839298E+02  0.321E-03    0.28       0.0  T
   2    -83.9298186 -0.427486E-06  0.111E-03    0.27      13.7  T
   3    -83.9298186 -0.533952E-07  0.742E-04    0.28      20.6  T
   4    -83.9298187 -0.114498E-07  0.323E-04    0.28      47.2  T
   5    -83.9298187 -0.704574E-10  0.678E-05    0.28     224.9  T
   6    -83.9298187 -0.787139E-10  0.144E-05    0.28    1060.3  T
     SCC iter.                  ...        0 min,  0.021 sec
     gradient                   ...        0 min,  0.086 sec
 * total energy  :   -83.1388164 Eh     change       -0.2181661E-04 Eh
   gradient norm :     0.0018326 Eh/α   predicted    -0.1486327E-04 ( -31.87%)
   displ. norm   :     0.1048229 α      lambda       -0.2034707E-04
   maximum displ.:     0.0755977 α      in ANC's #2, #4, #1, ...

........................................................................
.............................. CYCLE   13 ..............................
........................................................................
   1    -83.9296532 -0.839297E+02  0.451E-03    0.28       0.0  T
   2    -83.9296542 -0.988827E-06  0.177E-03    0.28       8.6  T
   3    -83.9296543 -0.141248E-06  0.939E-04    0.28      16.2  T
   4    -83.9296543 -0.155426E-07  0.434E-04    0.28      35.2  T
   5    -83.9296543 -0.107974E-09  0.903E-05    0.28     168.8  T
   6    -83.9296543 -0.167233E-09  0.202E-05    0.28     754.9  T
     SCC iter.                  ...        0 min,  0.020 sec
     gradient                   ...        0 min,  0.086 sec
 * total energy  :   -83.1388367 Eh     change       -0.2036625E-04 Eh
   gradient norm :     0.0016049 Eh/α   predicted    -0.1022896E-04 ( -49.77%)
   displ. norm   :     0.0725552 α      lambda       -0.1287625E-04
   maximum displ.:     0.0524429 α      in ANC's #2, #4, #1, ...

........................................................................
.............................. CYCLE   14 ..............................
........................................................................
   1    -83.9296811 -0.839297E+02  0.210E-03    0.28       0.0  T
   2    -83.9296814 -0.225368E-06  0.897E-04    0.28      17.0  T
   3    -83.9296814 -0.174648E-07  0.423E-04    0.28      36.1  T
   4    -83.9296814 -0.100016E-08  0.215E-04    0.28      70.9  T
   5    -83.9296814 -0.382002E-09  0.515E-05    0.28     295.9  T
   6    -83.9296814 -0.665494E-10  0.137E-05    0.28    1110.5  T
     SCC iter.                  ...        0 min,  0.021 sec
     gradient                   ...        0 min,  0.086 sec
 * total energy  :   -83.1388532 Eh     change       -0.1649020E-04 Eh
   gradient norm :     0.0018260 Eh/α   predicted    -0.6454068E-05 ( -60.86%)
   displ. norm   :     0.1282483 α      lambda       -0.2241702E-04
   maximum displ.:     0.0865019 α      in ANC's #2, #1, #4, ...

........................................................................
.............................. CYCLE   15 ..............................
........................................................................
   1    -83.9299313 -0.839299E+02  0.282E-03    0.28       0.0  T
   2    -83.9299316 -0.317626E-06  0.110E-03    0.28      13.9  T
   3    -83.9299316 -0.170243E-07  0.583E-04    0.28      26.2  T
   4    -83.9299316 -0.133203E-08  0.199E-04    0.28      76.7  T
   5    -83.9299316 -0.483752E-09  0.777E-05    0.28     196.2  T
     SCC iter.                  ...        0 min,  0.017 sec
     gradient                   ...        0 min,  0.085 sec
 * total energy  :   -83.1388791 Eh     change       -0.2592455E-04 Eh
   gradient norm :     0.0019538 Eh/α   predicted    -0.1129294E-04 ( -56.44%)
   displ. norm   :     0.1715543 α      lambda       -0.2408292E-04
   maximum displ.:     0.1193924 α      in ANC's #2, #1, #4, ...

........................................................................
.............................. CYCLE   16 ..............................
........................................................................
   1    -83.9297589 -0.839298E+02  0.338E-03    0.28       0.0  T
   2    -83.9297594 -0.468002E-06  0.135E-03    0.28      11.3  T
   3    -83.9297595 -0.856574E-07  0.736E-04    0.28      20.7  T
   4    -83.9297595 -0.925210E-08  0.271E-04    0.28      56.4  T
   5    -83.9297595 -0.154557E-09  0.846E-05    0.28     180.3  T
   6    -83.9297595 -0.961506E-10  0.248E-05    0.28     614.1  T
     SCC iter.                  ...        0 min,  0.021 sec
     gradient                   ...        0 min,  0.086 sec
 * total energy  :   -83.1389062 Eh     change       -0.2705899E-04 Eh
   gradient norm :     0.0019196 Eh/α   predicted    -0.1219991E-04 ( -54.91%)
   displ. norm   :     0.1644352 α      lambda       -0.1957346E-04
   maximum displ.:     0.1183063 α      in ANC's #2, #1, #4, ...

........................................................................
.............................. CYCLE   17 ..............................
........................................................................
   1    -83.9297242 -0.839297E+02  0.335E-03    0.28       0.0  T
   2    -83.9297248 -0.538941E-06  0.164E-03    0.28       9.3  T
   3    -83.9297249 -0.151419E-06  0.639E-04    0.28      23.9  T
   4    -83.9297249 -0.499469E-08  0.245E-04    0.28      62.2  T
   5    -83.9297249 -0.201851E-09  0.640E-05    0.28     238.3  T
   6    -83.9297249 -0.513865E-10  0.227E-05    0.28     671.6  T
     SCC iter.                  ...        0 min,  0.021 sec
     gradient                   ...        0 min,  0.085 sec
 * total energy  :   -83.1389313 Eh     change       -0.2513480E-04 Eh
   gradient norm :     0.0015903 Eh/α   predicted    -0.9907047E-05 ( -60.58%)
   displ. norm   :     0.1628216 α      lambda       -0.2014618E-04
   maximum displ.:     0.1202125 α      in ANC's #2, #1, #4, ...

........................................................................
.............................. CYCLE   18 ..............................
........................................................................
   1    -83.9298971 -0.839299E+02  0.364E-03    0.28       0.0  T
   2    -83.9298978 -0.720322E-06  0.203E-03    0.28       7.5  T
   3    -83.9298980 -0.216950E-06  0.672E-04    0.28      22.7  T
   4    -83.9298980 -0.338235E-08  0.274E-04    0.28      55.7  T
   5    -83.9298980 -0.218321E-09  0.681E-05    0.28     224.1  T
   6    -83.9298980 -0.456737E-10  0.265E-05    0.28     575.8  T
     SCC iter.                  ...        0 min,  0.020 sec
     gradient                   ...        0 min,  0.086 sec
 * total energy  :   -83.1389576 Eh     change       -0.2630681E-04 Eh
   gradient norm :     0.0010561 Eh/α   predicted    -0.1019344E-04 ( -61.25%)
   displ. norm   :     0.1942197 α      lambda       -0.2171663E-04
   maximum displ.:     0.1437495 α      in ANC's #2, #1, #13, ...

........................................................................
.............................. CYCLE   19 ..............................
........................................................................
   1    -83.9298567 -0.839299E+02  0.392E-03    0.28       0.0  T
   2    -83.9298574 -0.707727E-06  0.221E-03    0.29       6.9  T
   3    -83.9298577 -0.226847E-06  0.819E-04    0.28      18.6  T
   4    -83.9298577 -0.517511E-08  0.273E-04    0.28      55.9  T
   5    -83.9298577 -0.263014E-09  0.768E-05    0.28     198.5  T
   6    -83.9298577 -0.409841E-10  0.309E-05    0.28     493.2  T
     SCC iter.                  ...        0 min,  0.021 sec
     gradient                   ...        0 min,  0.085 sec
 * total energy  :   -83.1389854 Eh     change       -0.2777460E-04 Eh
   gradient norm :     0.0013586 Eh/α   predicted    -0.1104325E-04 ( -60.24%)
   displ. norm   :     0.2111307 α      lambda       -0.2169844E-04
   maximum displ.:     0.1576459 α      in ANC's #2, #1, #13, ...

........................................................................
.............................. CYCLE   20 ..............................
........................................................................
   1    -83.9297762 -0.839298E+02  0.353E-03    0.28       0.0  T
   2    -83.9297767 -0.555107E-06  0.192E-03    0.29       7.9  T
   3    -83.9297769 -0.153531E-06  0.744E-04    0.29      20.5  T
   4    -83.9297769 -0.598477E-08  0.239E-04    0.29      63.9  T
   5    -83.9297769 -0.325329E-09  0.721E-05    0.29     211.6  T
   6    -83.9297769 -0.429594E-10  0.312E-05    0.29     489.2  T
     SCC iter.                  ...        0 min,  0.021 sec
     gradient                   ...        0 min,  0.085 sec
 * total energy  :   -83.1390123 Eh     change       -0.2692050E-04 Eh
   gradient norm :     0.0014816 Eh/α   predicted    -0.1106607E-04 ( -58.89%)
   displ. norm   :     0.2458088 α      lambda       -0.2417100E-04
   maximum displ.:     0.1814740 α      in ANC's #2, #1, #13, ...
 * RMSD in coord.:     0.4171093 α      energy gain  -0.2167033E-01 Eh

generating ANC from model Hessian ...
Using Lindh-Hessian (1995)
 Shifting diagonal of input Hessian by   9.757468831238573E-003
 Lowest  eigenvalues of input Hessian
    0.000000    0.000000    0.000000    0.000000    0.000000    0.000000
    0.010000    0.010080    0.010240    0.010947    0.011911    0.012156
    0.012640    0.013888    0.014802    0.014859    0.016649    0.018055
 Highest eigenvalues
    2.041596    2.078954    2.208083    2.384862    2.438883    2.446036
 

........................................................................
.............................. CYCLE   21 ..............................
........................................................................
   1    -83.9301076 -0.839301E+02  0.337E-03    0.29       0.0  T
   2    -83.9301078 -0.217050E-06  0.166E-03    0.29       9.2  T
   3    -83.9301079 -0.393785E-07  0.818E-04    0.29      18.6  T
   4    -83.9301079 -0.168933E-07  0.186E-04    0.29      82.1  T
   5    -83.9301079 -0.276444E-09  0.715E-05    0.29     213.3  T
     SCC iter.                  ...        0 min,  0.017 sec
     gradient                   ...        0 min,  0.086 sec
 * total energy  :   -83.1390450 Eh     change       -0.3261522E-04 Eh
   gradient norm :     0.0019628 Eh/α   predicted     0.0000000E+00 (-100.00%)
   displ. norm   :     0.0343063 α      lambda       -0.1310981E-04
   maximum displ.:     0.0198287 α      in ANC's #2, #4, #10, ...

........................................................................
.............................. CYCLE   22 ..............................
........................................................................
   1    -83.9301112 -0.839301E+02  0.235E-03    0.29       0.0  T
   2    -83.9301114 -0.163174E-06  0.134E-03    0.29      11.4  T
   3    -83.9301114 -0.393400E-07  0.742E-04    0.29      20.5  T
   4    -83.9301114 -0.326330E-08  0.186E-04    0.29      82.2  T
   5    -83.9301114 -0.225597E-09  0.313E-05    0.29     487.1  T
     SCC iter.                  ...        0 min,  0.017 sec
     gradient                   ...        0 min,  0.086 sec
 * total energy  :   -83.1390595 Eh     change       -0.1458119E-04 Eh
   gradient norm :     0.0009035 Eh/α   predicted    -0.6616623E-05 ( -54.62%)
   displ. norm   :     0.0748547 α      lambda       -0.1506451E-04
   maximum displ.:     0.0454530 α      in ANC's #2, #4, #10, ...

........................................................................
.............................. CYCLE   23 ..............................
........................................................................
   1    -83.9301425 -0.839301E+02  0.345E-03    0.29       0.0  T
   2    -83.9301431 -0.624858E-06  0.199E-03    0.29       7.7  T
   3    -83.9301433 -0.179732E-06  0.783E-04    0.29      19.5  T
   4    -83.9301433 -0.182833E-08  0.335E-04    0.29      45.5  T
   5    -83.9301433 -0.192301E-09  0.527E-05    0.29     289.2  T
   6    -83.9301433 -0.462563E-10  0.179E-05    0.29     850.0  T
     SCC iter.                  ...        0 min,  0.021 sec
     gradient                   ...        0 min,  0.086 sec
 * total energy  :   -83.1390760 Eh     change       -0.1648889E-04 Eh
   gradient norm :     0.0011239 Eh/α   predicted    -0.7552212E-05 ( -54.20%)
   displ. norm   :     0.0901298 α      lambda       -0.1206582E-04
   maximum displ.:     0.0577632 α      in ANC's #2, #4, #10, ...

........................................................................
.............................. CYCLE   24 ..............................
........................................................................
   1    -83.9301248 -0.839301E+02  0.344E-03    0.29       0.0  T
   2    -83.9301255 -0.680346E-06  0.189E-03    0.29       8.1  T
   3    -83.9301257 -0.200909E-06  0.539E-04    0.29      28.3  T
   4    -83.9301257 -0.189378E-08  0.258E-04    0.29      59.1  T
   5    -83.9301257 -0.187896E-09  0.593E-05    0.29     257.1  T
   6    -83.9301257 -0.371330E-10  0.198E-05    0.29     768.9  T
     SCC iter.                  ...        0 min,  0.021 sec
     gradient                   ...        0 min,  0.086 sec
 * total energy  :   -83.1390901 Eh     change       -0.1410353E-04 Eh
   gradient norm :     0.0013697 Eh/α   predicted    -0.6059682E-05 ( -57.03%)
   displ. norm   :     0.1117938 α      lambda       -0.1328275E-04
   maximum displ.:     0.0736505 α      in ANC's #2, #4, #10, ...

........................................................................
.............................. CYCLE   25 ..............................
........................................................................
   1    -83.9301023 -0.839301E+02  0.372E-03    0.29       0.0  T
   2    -83.9301030 -0.748894E-06  0.182E-03    0.28       8.4  T
   3    -83.9301032 -0.192506E-06  0.550E-04    0.29      27.7  T
   4    -83.9301032 -0.425617E-08  0.248E-04    0.29      61.4  T
   5    -83.9301032 -0.260741E-09  0.709E-05    0.29     214.9  T
   6    -83.9301032 -0.411831E-10  0.220E-05    0.29     693.3  T
     SCC iter.                  ...        0 min,  0.021 sec
     gradient                   ...        0 min,  0.086 sec
 * total energy  :   -83.1391055 Eh     change       -0.1533167E-04 Eh
   gradient norm :     0.0012688 Eh/α   predicted    -0.6689365E-05 ( -56.37%)
   displ. norm   :     0.1294137 α      lambda       -0.1436998E-04
   maximum displ.:     0.0869948 α      in ANC's #2, #4, #13, ...

........................................................................
.............................. CYCLE   26 ..............................
........................................................................
   1    -83.9300484 -0.839300E+02  0.357E-03    0.28       0.0  T
   2    -83.9300490 -0.597128E-06  0.154E-03    0.28       9.9  T
   3    -83.9300491 -0.113608E-06  0.655E-04    0.28      23.3  T
   4    -83.9300492 -0.739129E-08  0.263E-04    0.28      57.9  T
   5    -83.9300492 -0.388169E-09  0.847E-05    0.28     180.0  T
   6    -83.9300492 -0.697327E-10  0.257E-05    0.28     593.9  T
     SCC iter.                  ...        0 min,  0.021 sec
     gradient                   ...        0 min,  0.084 sec
 * total energy  :   -83.1391208 Eh     change       -0.1539332E-04 Eh
   gradient norm :     0.0010861 Eh/α   predicted    -0.7241886E-05 ( -52.95%)
   displ. norm   :     0.0991119 α      lambda       -0.9748289E-05
   maximum displ.:     0.0705864 α      in ANC's #2, #4, #13, ...

........................................................................
.............................. CYCLE   27 ..............................
........................................................................
   1    -83.9300729 -0.839301E+02  0.201E-03    0.28       0.0  T
   2    -83.9300731 -0.144646E-06  0.786E-04    0.28      19.4  T
   3    -83.9300731 -0.102397E-07  0.399E-04    0.28      38.3  T
   4    -83.9300731 -0.138287E-08  0.136E-04    0.28     111.8  T
   5    -83.9300731 -0.262801E-09  0.563E-05    0.28     270.8  T
     SCC iter.                  ...        0 min,  0.017 sec
     gradient                   ...        0 min,  0.081 sec
 * total energy  :   -83.1391320 Eh     change       -0.1118439E-04 Eh
   gradient norm :     0.0008797 Eh/α   predicted    -0.4901276E-05 ( -56.18%)
   displ. norm   :     0.0736733 α      lambda       -0.7123580E-05
   maximum displ.:     0.0558583 α      in ANC's #2, #13, #4, ...

........................................................................
.............................. CYCLE   28 ..............................
........................................................................
   1    -83.9301024 -0.839301E+02  0.158E-03    0.28       0.0  T
   2    -83.9301025 -0.103981E-06  0.897E-04    0.28      17.0  T
   3    -83.9301025 -0.278579E-07  0.345E-04    0.28      44.3  T
   4    -83.9301025 -0.107674E-08  0.147E-04    0.28     103.6  T
   5    -83.9301025 -0.171497E-09  0.347E-05    0.28     439.3  T
     SCC iter.                  ...        0 min,  0.013 sec
     gradient                   ...        0 min,  0.081 sec
 * total energy  :   -83.1391406 Eh     change       -0.8544221E-05 Eh
   gradient norm :     0.0006828 Eh/α   predicted    -0.3570554E-05 ( -58.21%)
   displ. norm   :     0.0649706 α      lambda       -0.6216685E-05
   maximum displ.:     0.0502700 α      in ANC's #2, #13, #5, ...

........................................................................
.............................. CYCLE   29 ..............................
........................................................................
   1    -83.9300502 -0.839301E+02  0.188E-03    0.28       0.0  T
   2    -83.9300504 -0.184441E-06  0.110E-03    0.28      13.8  T
   3    -83.9300505 -0.630669E-07  0.334E-04    0.28      45.6  T
   4    -83.9300505 -0.743185E-09  0.146E-04    0.28     104.5  T
   5    -83.9300505 -0.685390E-10  0.315E-05    0.28     484.0  T
     SCC iter.                  ...        0 min,  0.018 sec
     gradient                   ...        0 min,  0.081 sec
 * total energy  :   -83.1391483 Eh     change       -0.7729858E-05 Eh
   gradient norm :     0.0005792 Eh/α   predicted    -0.3114993E-05 ( -59.70%)
   displ. norm   :     0.0700004 α      lambda       -0.6375577E-05
   maximum displ.:     0.0524964 α      in ANC's #2, #5, #13, ...

........................................................................
.............................. CYCLE   30 ..............................
........................................................................
   1    -83.9299702 -0.839300E+02  0.205E-03    0.28       0.0  T
   2    -83.9299704 -0.221313E-06  0.112E-03    0.28      13.7  T
   3    -83.9299705 -0.698642E-07  0.342E-04    0.28      44.6  T
   4    -83.9299705 -0.108435E-08  0.152E-04    0.28     100.6  T
   5    -83.9299705 -0.676152E-10  0.383E-05    0.28     398.1  T
     SCC iter.                  ...        0 min,  0.018 sec
     gradient                   ...        0 min,  0.075 sec
 * total energy  :   -83.1391563 Eh     change       -0.8007468E-05 Eh
   gradient norm :     0.0005993 Eh/α   predicted    -0.3197996E-05 ( -60.06%)
   displ. norm   :     0.0759102 α      lambda       -0.6280973E-05
   maximum displ.:     0.0559021 α      in ANC's #2, #5, #1, ...

........................................................................
.............................. CYCLE   31 ..............................
........................................................................
   1    -83.9298944 -0.839299E+02  0.172E-03    0.28       0.0  T
   2    -83.9298945 -0.138622E-06  0.801E-04    0.28      19.0  T
   3    -83.9298945 -0.331076E-07  0.325E-04    0.28      46.9  T
   4    -83.9298945 -0.156093E-08  0.128E-04    0.28     119.5  T
   5    -83.9298945 -0.654410E-10  0.402E-05    0.28     379.0  T
     SCC iter.                  ...        0 min,  0.021 sec
     gradient                   ...        0 min,  0.085 sec
 * total energy  :   -83.1391645 Eh     change       -0.8142873E-05 Eh
   gradient norm :     0.0006573 Eh/α   predicted    -0.3150842E-05 ( -61.31%)
   displ. norm   :     0.0828879 α      lambda       -0.6562516E-05
   maximum displ.:     0.0608719 α      in ANC's #2, #5, #1, ...

........................................................................
.............................. CYCLE   32 ..............................
........................................................................
   1    -83.9298430 -0.839298E+02  0.121E-03    0.28       0.0  T
   2    -83.9298431 -0.497308E-07  0.500E-04    0.28      30.5  T
   3    -83.9298431 -0.495426E-08  0.272E-04    0.28      56.0  T
   4    -83.9298431 -0.113988E-08  0.891E-05    0.28     171.2  T
   5    -83.9298431 -0.840998E-10  0.359E-05    0.28     424.3  T
     SCC iter.                  ...        0 min,  0.020 sec
     gradient                   ...        0 min,  0.086 sec
 * total energy  :   -83.1391732 Eh     change       -0.8730367E-05 Eh
   gradient norm :     0.0006201 Eh/α   predicted    -0.3295180E-05 ( -62.26%)
   displ. norm   :     0.0958056 α      lambda       -0.7059186E-05
   maximum displ.:     0.0711280 α      in ANC's #2, #1, #3, ...

........................................................................
.............................. CYCLE   33 ..............................
........................................................................
   1    -83.9298195 -0.839298E+02  0.113E-03    0.28       0.0  T
   2    -83.9298195 -0.353218E-07  0.537E-04    0.28      28.4  T
   3    -83.9298195 -0.301523E-08  0.234E-04    0.28      65.1  T
   4    -83.9298195 -0.810516E-09  0.962E-05    0.28     158.5  T
   5    -83.9298195 -0.149541E-09  0.275E-05    0.28     555.0  T
     SCC iter.                  ...        0 min,  0.019 sec
     gradient                   ...        0 min,  0.085 sec
 * total energy  :   -83.1391827 Eh     change       -0.9480383E-05 Eh
   gradient norm :     0.0005261 Eh/α   predicted    -0.3546615E-05 ( -62.59%)
   displ. norm   :     0.0995260 α      lambda       -0.6897239E-05
   maximum displ.:     0.0749434 α      in ANC's #2, #1, #3, ...

........................................................................
.............................. CYCLE   34 ..............................
........................................................................
   1    -83.9298176 -0.839298E+02  0.116E-03    0.29       0.0  T
   2    -83.9298177 -0.393908E-07  0.646E-04    0.28      23.6  T
   3    -83.9298177 -0.956663E-08  0.288E-04    0.28      52.9  T
   4    -83.9298177 -0.159123E-08  0.763E-05    0.28     199.9  T
   5    -83.9298177 -0.349587E-10  0.262E-05    0.28     581.3  T
     SCC iter.                  ...        0 min,  0.020 sec
     gradient                   ...        0 min,  0.085 sec
 * total energy  :   -83.1391921 Eh     change       -0.9459785E-05 Eh
   gradient norm :     0.0004672 Eh/α   predicted    -0.3468084E-05 ( -63.34%)
   displ. norm   :     0.1093933 α      lambda       -0.7437963E-05
   maximum displ.:     0.0826136 α      in ANC's #2, #1, #3, ...

........................................................................
.............................. CYCLE   35 ..............................
........................................................................
   1    -83.9298484 -0.839298E+02  0.131E-03    0.29       0.0  T
   2    -83.9298485 -0.465535E-07  0.685E-04    0.28      22.2  T
   3    -83.9298485 -0.114542E-07  0.319E-04    0.29      47.9  T
   4    -83.9298485 -0.224516E-08  0.682E-05    0.29     223.5  T
   5    -83.9298485 -0.306386E-10  0.259E-05    0.29     588.7  T
     SCC iter.                  ...        0 min,  0.019 sec
     gradient                   ...        0 min,  0.085 sec
 * total energy  :   -83.1392026 Eh     change       -0.1043230E-04 Eh
   gradient norm :     0.0005370 Eh/α   predicted    -0.3742404E-05 ( -64.13%)
   displ. norm   :     0.1395716 α      lambda       -0.9467095E-05
   maximum displ.:     0.1046708 α      in ANC's #2, #1, #3, ...

........................................................................
.............................. CYCLE   36 ..............................
........................................................................
   1    -83.9298462 -0.839298E+02  0.161E-03    0.29       0.0  T
   2    -83.9298463 -0.507164E-07  0.770E-04    0.29      19.8  T
   3    -83.9298463 -0.830688E-08  0.383E-04    0.29      39.8  T
   4    -83.9298463 -0.449973E-08  0.700E-05    0.29     217.7  T
   5    -83.9298463 -0.577245E-10  0.274E-05    0.29     555.6  T
     SCC iter.                  ...        0 min,  0.019 sec
     gradient                   ...        0 min,  0.085 sec
 * total energy  :   -83.1392160 Eh     change       -0.1340648E-04 Eh
   gradient norm :     0.0006983 Eh/α   predicted    -0.4776710E-05 ( -64.37%)
   displ. norm   :     0.2053812 α      lambda       -0.1371143E-04
   maximum displ.:     0.1529087 α      in ANC's #2, #1, #3, ...

........................................................................
.............................. CYCLE   37 ..............................
........................................................................
   1    -83.9297711 -0.839298E+02  0.220E-03    0.29       0.0  T
   2    -83.9297711 -0.632260E-07  0.998E-04    0.29      15.3  T
   3    -83.9297711 -0.587848E-08  0.405E-04    0.29      37.7  T
   4    -83.9297711 -0.567292E-08  0.860E-05    0.29     177.3  T
   5    -83.9297711 -0.172335E-09  0.362E-05    0.29     421.3  T
     SCC iter.                  ...        0 min,  0.019 sec
     gradient                   ...        0 min,  0.086 sec
 * total energy  :   -83.1392352 Eh     change       -0.1919784E-04 Eh
   gradient norm :     0.0009261 Eh/α   predicted    -0.6985248E-05 ( -63.61%)
   displ. norm   :     0.3365498 α      lambda       -0.2134099E-04
   maximum displ.:     0.2490394 α      in ANC's #2, #1, #3, ...

........................................................................
.............................. CYCLE   38 ..............................
........................................................................
   1    -83.9293936 -0.839294E+02  0.353E-03    0.29       0.0  T
   2    -83.9293937 -0.139158E-06  0.159E-03    0.29       9.6  T
   3    -83.9293937 -0.178301E-07  0.378E-04    0.29      40.3  T
   4    -83.9293937 -0.238217E-08  0.118E-04    0.29     128.9  T
   5    -83.9293937 -0.228482E-09  0.509E-05    0.29     299.6  T
     SCC iter.                  ...        0 min,  0.020 sec
     gradient                   ...        0 min,  0.085 sec
 * total energy  :   -83.1392635 Eh     change       -0.2831617E-04 Eh
   gradient norm :     0.0014382 Eh/α   predicted    -0.1120806E-04 ( -60.42%)
   displ. norm   :     0.5989360 α      lambda       -0.3440072E-04
   maximum displ.:     0.4434443 α      in ANC's #2, #1, #3, ...

........................................................................
.............................. CYCLE   39 ..............................
........................................................................
   1    -83.9280644 -0.839281E+02  0.634E-03    0.28       0.0  T
   2    -83.9280649 -0.528046E-06  0.288E-03    0.29       5.3  T
   3    -83.9280650 -0.462909E-07  0.911E-04    0.29      16.7  T
   4    -83.9280650 -0.167154E-07  0.345E-04    0.29      44.2  T
   5    -83.9280650 -0.305612E-08  0.128E-04    0.29     118.9  T
   6    -83.9280650 -0.438121E-10  0.445E-05    0.29     342.6  T
     SCC iter.                  ...        0 min,  0.023 sec
     gradient                   ...        0 min,  0.085 sec
 * total energy  :   -83.1392916 Eh     change       -0.2809784E-04 Eh
   gradient norm :     0.0030145 Eh/α   predicted    -0.1994519E-04 ( -29.02%)
   displ. norm   :     0.1075071 α      lambda       -0.2132833E-04
   maximum displ.:     0.0788479 α      in ANC's #2, #1, #3, ...

........................................................................
.............................. CYCLE   40 ..............................
........................................................................
   1    -83.9293570 -0.839294E+02  0.235E-03    0.29       0.0  T
   2    -83.9293571 -0.615308E-07  0.117E-03    0.29      13.1  T
   3    -83.9293571 -0.228781E-09  0.567E-04    0.29      26.9  T
   4    -83.9293571 -0.709912E-08  0.162E-04    0.29      94.2  T
   5    -83.9293571 -0.309484E-09  0.454E-05    0.29     335.6  T
     SCC iter.                  ...        0 min,  0.019 sec
     gradient                   ...        0 min,  0.085 sec
 * total energy  :   -83.1393072 Eh     change       -0.1562072E-04 Eh
   gradient norm :     0.0018938 Eh/α   predicted    -0.1078867E-04 ( -30.93%)
   displ. norm   :     0.4135690 α      lambda       -0.2674008E-04
   maximum displ.:     0.3036175 α      in ANC's #2, #1, #3, ...

........................................................................
.............................. CYCLE   41 ..............................
........................................................................
   1    -83.9306946 -0.839307E+02  0.526E-03    0.29       0.0  T
   2    -83.9306952 -0.673645E-06  0.226E-03    0.29       6.8  T
   3    -83.9306953 -0.755902E-07  0.132E-03    0.29      11.6  T
   4    -83.9306954 -0.389947E-07  0.376E-04    0.29      40.6  T
   5    -83.9306954 -0.678057E-09  0.139E-04    0.29     109.4  T
   6    -83.9306954 -0.192273E-09  0.483E-05    0.29     315.5  T
     SCC iter.                  ...        0 min,  0.023 sec
     gradient                   ...        0 min,  0.085 sec
 * total energy  :   -83.1393342 Eh     change       -0.2704811E-04 Eh
   gradient norm :     0.0016016 Eh/α   predicted    -0.1438918E-04 ( -46.80%)
   displ. norm   :     0.5279249 α      lambda       -0.1933664E-04
   maximum displ.:     0.3869940 α      in ANC's #2, #1, #3, ...

........................................................................
.............................. CYCLE   42 ..............................
........................................................................
   1    -83.9287284 -0.839287E+02  0.577E-03    0.29       0.0  T
   2    -83.9287293 -0.919405E-06  0.320E-03    0.29       4.8  T
   3    -83.9287296 -0.225407E-06  0.156E-03    0.29       9.8  T
   4    -83.9287296 -0.443830E-07  0.400E-04    0.29      38.1  T
   5    -83.9287296 -0.445922E-09  0.141E-04    0.29     108.2  T
   6    -83.9287296 -0.926832E-10  0.535E-05    0.29     285.2  T
     SCC iter.                  ...        0 min,  0.023 sec
     gradient                   ...        0 min,  0.086 sec
 * total energy  :   -83.1393438 Eh     change       -0.9503999E-05 Eh
   gradient norm :     0.0021548 Eh/α   predicted    -0.1086815E-04 (  14.35%)
   displ. norm   :     0.0467770 α      lambda       -0.1610935E-04
   maximum displ.:     0.0319295 α      in ANC's #2, #1, #16, ...
 * RMSD in coord.:     0.4941952 α      energy gain  -0.3314166E-03 Eh

generating ANC from model Hessian ...
Using Lindh-Hessian (1995)
 Shifting diagonal of input Hessian by   9.763696063757259E-003
 Lowest  eigenvalues of input Hessian
    0.000000    0.000000    0.000000    0.000000    0.000000    0.000000
    0.010000    0.010092    0.010236    0.010954    0.011882    0.012209
    0.012707    0.013883    0.014835    0.014895    0.016624    0.018010
 Highest eigenvalues
    2.041008    2.079881    2.208197    2.386958    2.439400    2.445979
 

........................................................................
.............................. CYCLE   43 ..............................
........................................................................
   1    -83.9302184 -0.839302E+02  0.326E-03    0.29       0.0  T
   2    -83.9302187 -0.354120E-06  0.149E-03    0.29      10.3  T
   3    -83.9302188 -0.388331E-07  0.841E-04    0.29      18.1  T
   4    -83.9302188 -0.656223E-08  0.304E-04    0.29      50.1  T
   5    -83.9302188 -0.959872E-09  0.635E-05    0.29     240.2  T
   6    -83.9302188 -0.112053E-09  0.174E-05    0.29     878.0  T
     SCC iter.                  ...        0 min,  0.023 sec
     gradient                   ...        0 min,  0.086 sec
 * total energy  :   -83.1393540 Eh     change       -0.1026101E-04 Eh
   gradient norm :     0.0009163 Eh/α   predicted     0.0000000E+00 (-100.00%)
   displ. norm   :     0.0162909 α      lambda       -0.8690502E-06
   maximum displ.:     0.0080450 α      in ANC's #3, #10, #5, ...

........................................................................
.............................. CYCLE   44 ..............................
........................................................................
   1    -83.9305383 -0.839305E+02  0.970E-04    0.29       0.0  T
   2    -83.9305383 -0.253482E-07  0.480E-04    0.29      31.8  T
   3    -83.9305383 -0.154535E-08  0.263E-04    0.29      58.0  T
   4    -83.9305383 -0.337963E-09  0.781E-05    0.29     195.3  T
   5    -83.9305383 -0.535039E-10  0.160E-05    0.29     952.8  T
     SCC iter.                  ...        0 min,  0.019 sec
     gradient                   ...        0 min,  0.085 sec
 * total energy  :   -83.1393574 Eh     change       -0.3434176E-05 Eh
   gradient norm :     0.0003843 Eh/α   predicted    -0.1695694E-05 ( -50.62%)
   displ. norm   :     0.0305274 α      lambda       -0.3133992E-05
   maximum displ.:     0.0158021 α      in ANC's #3, #5, #10, ...

   *** GEOMETRY OPTIMIZATION CONVERGED AFTER 44 ITERATIONS ***

------------------------------------------------------------------------
 total energy gain   :        -0.0220154 Eh      -13.8149 kcal/mol
 total RMSD          :         0.8217883 a0        0.4349 Å
 total power (kW/mol):        -1.3136711 (step)   -8.9048 (real)
------------------------------------------------------------------------

 ANCopt (total)                0 d,  0 h,  0 min,  6.491 sec
 optimizer setup                ...        0 min,  0.001 sec (  0.012%)
 model hessian                  ...        0 min,  0.080 sec (  1.229%)
 ANC generation                 ...        0 min,  0.007 sec (  0.110%)
 coordinate transformation      ...        0 min,  0.002 sec (  0.024%)
 single point calculation       ...        0 min,  6.368 sec ( 98.099%)
 optimization log               ...        0 min,  0.023 sec (  0.350%)
 hessian update                 ...        0 min,  0.001 sec (  0.020%)
 rational function              ...        0 min,  0.006 sec (  0.088%)

================
 final structure:
================
43
 xtb: 6.5.1 (579679a)
C            5.23523004655852        2.55830791117337        0.94149558482949
O            4.18518769037468        1.64937266379607        0.58632644378233
C            4.32792743559336        0.39362320493482        0.97688926169974
O            5.29569432169307       -0.01056641061463        1.59669293371193
C            3.19747834388282       -0.48700674891836        0.59641815920115
N            2.15833061828833        0.08557951788098       -0.09167196805481
C            1.15065451586802       -0.64428925206596       -0.42952564907515
C            0.02271192376036       -0.00678697087286       -1.22084286451218
C            0.34813032904427        1.46365761522185       -1.48277227717174
C           -0.22072127682439       -0.74433520537692       -2.53921125681912
N           -1.22032127888069       -0.00332897332524       -0.40065100090457
C           -1.97301087026097       -1.06041177521671       -0.18130430488145
O           -1.79257488904612       -2.21277263073373       -0.47556477640385
C           -3.30702876429695       -0.71839780050480        0.64918233633565
C           -3.21925764189090       -1.48200425500575        1.96994334673414
N           -4.39171149910745       -1.07119165667002       -0.17685679051643
N           -5.07054572337824       -0.04123703206077       -0.46209492806339
C           -4.49782721357079        1.02598342937062        0.17131764422919
C           -4.96127545443024        2.40585601112302        0.09543213615858
O           -3.45850635116490        0.66544889296087        0.84098294152934
N            1.08547364782344       -1.97204967754321       -0.13580734753342
C            2.06117260741195       -2.66894976046711        0.55731512429125
O            1.93324424759162       -3.85341351554569        0.80034992078357
C            3.20059739932569       -1.82010693957696        0.93298166237462
O            4.18336570020138       -2.41860285936688        1.59777101556050
H            4.93118722659039        3.53720797983980        0.57756582378684
H            6.17140343645222        2.24870936581283        0.47149148887874
H            5.36022411352132        2.57538528471295        2.02632603142454
H           -0.47559463727242        1.93634521617497       -2.01303380533320
H            1.25122069491600        1.53246428921232       -2.08716740537718
H            0.51954444007557        1.98426345065308       -0.54229668203154
H           -0.42906697032331       -1.79942434673081       -2.37619183812702
H            0.66783761668381       -0.65471190949860       -3.16254715134607
H           -1.06514787600619       -0.29312591077661       -3.05668908580295
H           -1.50912134521075        0.89008565604741       -0.03917621899411
H           -3.08609019284985       -2.53958338560004        1.74947530109372
H           -4.13936332571653       -1.32419723856956        2.52854682819786
H           -2.37378016233252       -1.10790957473936        2.54215823173089
H           -4.76342368050579        2.78572884100409       -0.91138515831060
H           -4.44624340936416        3.02818722525867        0.82382421033844
H           -6.04291508422107        2.44011800331931        0.23853230400702
H            0.26290514434606       -2.50130805021244       -0.39855966753281
H            4.89400614664736       -1.77061367850195        1.81855244610905
 
 Bond Distances (Angstroems)
 ---------------------------
C1-O2=1.4335         C1-H26=1.0877        C1-H27=1.0923        C1-H28=1.0921        O2-C1=1.4335         O2-C3=1.3228         
C3-O2=1.3228         C3-O4=1.2182         C3-C5=1.4826         O4-C3=1.2182         C5-C3=1.4826         C5-N6=1.3716         
C5-C24=1.3749        N6-C5=1.3716         N6-C7=1.2893         C7-N6=1.2893         C7-C8=1.5182         C7-N21=1.3614        
C8-C7=1.5182         C8-C9=1.5286         C8-C10=1.5301        C8-N11=1.4892        C9-C8=1.5286         C9-H29=1.0877        
C9-H30=1.0889        C9-H31=1.0885        C10-C8=1.5301        C10-H32=1.0877       C10-H33=1.0891       C10-H34=1.0883       
N11-C8=1.4892        N11-C12=1.3161       N11-H35=1.0061       C12-N11=1.3161       C12-O13=1.2029       C12-C14=1.6082       
O13-C12=1.2029       C14-C12=1.6082       C14-C15=1.5281       C14-N16=1.4083       C14-O20=1.4053       C15-C14=1.5281       
C15-H36=1.0885       C15-H37=1.0879       C15-H38=1.0873       N16-C14=1.4083       N16-N17=1.2661       N17-N16=1.2661       
N17-C18=1.3668       C18-N17=1.3668       C18-C19=1.4576       C18-O20=1.2879       C19-C18=1.4576       C19-H39=1.0941       
C19-H40=1.0877       C19-H41=1.0916       O20-C14=1.4053       O20-C18=1.2879       N21-C7=1.3614        N21-C22=1.3849       
N21-H42=1.0128       C22-N21=1.3849       C22-O23=1.2159       C22-C24=1.4697       O23-C22=1.2159       C24-C5=1.3749        
C24-C22=1.4697       C24-O25=1.3289       O25-C24=1.3289       O25-H43=0.9867       H26-C1=1.0877        H27-C1=1.0923        
H28-C1=1.0921        H29-C9=1.0877        H30-C9=1.0889        H31-C9=1.0885        H32-C10=1.0877       H33-C10=1.0891       
H34-C10=1.0883       H35-N11=1.0061       H36-C15=1.0885       H37-C15=1.0879       H38-C15=1.0873       H39-C19=1.0941       
H40-C19=1.0877       H41-C19=1.0916       H42-N21=1.0128       H43-O25=0.9867       
 C  H  Rav=1.0893 sigma=0.0021  Rmin=1.0873  Rmax=1.0941    15
 C  C  Rav=1.4998 sigma=0.0608  Rmin=1.3749  Rmax=1.6082     9
 N  H  Rav=1.0095 sigma=0.0033  Rmin=1.0061  Rmax=1.0128     2
 N  C  Rav=1.3735 sigma=0.0563  Rmin=1.2893  Rmax=1.4892     8
 N  N  Rav=1.2661 sigma=0.0000  Rmin=1.2661  Rmax=1.2661     1
 O  H  Rav=0.9867 sigma=0.0000  Rmin=0.9867  Rmax=0.9867     1
 O  C  Rav=1.3019 sigma=0.0818  Rmin=1.2029  Rmax=1.4335     8
 
 selected bond angles (degree)
 --------------------
H26-C1-O2=106.44               H27-C1-O2=109.97               H27-C1-H26=110.53              H28-C1-O2=109.87               
H28-C1-H26=110.50              H28-C1-H27=109.50              C3-O2-C1=116.73                O4-C3-O2=123.43                
C5-C3-O2=113.94                C5-C3-O4=122.63                N6-C5-C3=117.29                C24-C5-C3=120.75               
C24-C5-N6=121.96               C7-N6-C5=119.16                C8-C7-N6=118.66                N21-C7-N6=122.21               
N21-C7-C8=119.11               C9-C8-C7=109.58                C10-C8-C7=111.40               C10-C8-C9=110.48               
N11-C8-C7=109.51               N11-C8-C9=105.65               N11-C8-C10=110.05              H29-C9-C8=109.90               
H30-C9-C8=109.42               H30-C9-H29=109.27              H31-C9-C8=110.21               H31-C9-H29=109.43              
H31-C9-H30=108.59              H32-C10-C8=111.65              H33-C10-C8=108.88              H33-C10-H32=108.78             
H34-C10-C8=109.47              H34-C10-H32=108.95             H34-C10-H33=109.07             
 
 selected dihedral angles (degree)
 ---------------------------------
C3-O2-C1-H26=182.21           C3-O2-C1-H27= 62.47           C3-O2-C1-H28=301.88           O4-C3-O2-C1=359.24            
C5-C3-O2-C1=179.05            N6-C5-C3-O2=359.68            N6-C5-C3-O4=179.49            C24-C5-C3-O2=180.04           
C24-C5-C3-O4=359.85           C7-N6-C5-C3=180.65            C7-N6-C5-C24=  0.29           C8-C7-N6-C5=181.50            
N21-C7-N6-C5=359.46           C9-C8-C7-N6=  0.69            C9-C8-C7-N21=182.67           C10-C8-C7-N6=123.25           
C10-C8-C7-N21=305.23          N11-C8-C7-N6=245.23           N11-C8-C7-N21= 67.21          H29-C9-C8-C7=182.38           
H29-C9-C8-C10= 59.27          H29-C9-C8-N11=300.27          H30-C9-C8-C7= 62.39           H30-C9-C8-C10=299.29          
H30-C9-C8-N11=180.29          H31-C9-C8-C7=303.06           H31-C9-C8-C10=179.95          H31-C9-C8-N11= 60.95          
H32-C10-C8-C7= 56.49          H32-C10-C8-C9=178.54          H32-C10-C8-N11=294.83         H33-C10-C8-C7=296.38          
H33-C10-C8-C9= 58.42          H33-C10-C8-N11=174.71         H34-C10-C8-C7=177.22          H34-C10-C8-C9=299.26          
H34-C10-C8-N11= 55.55         
           -------------------------------------------------
          |                Final Singlepoint                |
           -------------------------------------------------

          ...................................................
          :                      SETUP                      :
          :.................................................:
          :  # basis functions                 136          :
          :  # atomic orbitals                 136          :
          :  # shells                           86          :
          :  # electrons                       134          :
          :  # halogen bonds                     0          :
          :  max. iterations                   250          :
          :  Hamiltonian                  GFN1-xTB          :
          :  restarted?                      false          :
          :  GBSA solvation                   true          :
          :  PC potential                    false          :
          :  electronic temp.          300.0000000     K    :
          :  accuracy                    1.0000000          :
          :  -> integral cutoff          0.2500000E+02      :
          :  -> integral neglect         0.1000000E-07      :
          :  -> SCF convergence          0.1000000E-05 Eh   :
          :  -> wf. convergence          0.2000000E-04 e    :
          :  Broyden damping             0.4000000          :
          ...................................................

 iter      E             dE          RMSdq      gap      omega  full diag
   1    -83.9305383 -0.839305E+02  0.372E-06    0.29       0.0  T
   2    -83.9305383 -0.611067E-12  0.183E-06    0.29    8331.9  T
   3    -83.9305383 -0.568434E-13  0.106E-06    0.29   14389.6  T

   *** convergence criteria satisfied after 3 iterations ***

         #    Occupation            Energy/Eh            Energy/eV
      -------------------------------------------------------------
         1        2.0000           -0.9380979             -25.5269
       ...           ...                  ...                  ...
        61        2.0000           -0.5040685             -13.7164
        62        2.0000           -0.5014838             -13.6461
        63        2.0000           -0.4965129             -13.5108
        64        2.0000           -0.4953062             -13.4780
        65        2.0000           -0.4695606             -12.7774
        66        2.0000           -0.4561543             -12.4126
        67        1.9927           -0.4400231             -11.9736 (HOMO)
        68        0.0073           -0.4293579             -11.6834 (LUMO)
        69                         -0.3336450              -9.0789
        70                         -0.3324206              -9.0456
        71                         -0.3049660              -8.2985
        72                         -0.2964185              -8.0660
       ...                                ...                  ...
       136                          0.7194140              19.5763
      -------------------------------------------------------------
                  HL-Gap            0.0106652 Eh            0.2902 eV
             Fermi-level           -0.4346905 Eh          -11.8285 eV

 SCC (total)                   0 d,  0 h,  0 min,  0.122 sec
 SCC setup                      ...        0 min,  0.002 sec (  1.697%)
 Dispersion                     ...        0 min,  0.000 sec (  0.293%)
 classical contributions        ...        0 min,  0.000 sec (  0.107%)
 integral evaluation            ...        0 min,  0.036 sec ( 29.537%)
 iterations                     ...        0 min,  0.012 sec (  9.830%)
 molecular gradient             ...        0 min,  0.071 sec ( 58.032%)
 printout                       ...        0 min,  0.001 sec (  0.457%)

         :::::::::::::::::::::::::::::::::::::::::::::::::::::
         ::                     SUMMARY                     ::
         :::::::::::::::::::::::::::::::::::::::::::::::::::::
         :: total energy             -83.139357446609 Eh    ::
         :: total w/o Gsasa/hb       -83.115173001272 Eh    ::
         :: gradient norm              0.000385540605 Eh/a0 ::
         :: HOMO-LUMO gap              0.290215927891 eV    ::
         ::.................................................::
         :: SCC energy               -83.930538309776 Eh    ::
         :: -> electrostatic           0.425339931106 Eh    ::
         :: -> Gsolv                  -0.122481184743 Eh    ::
         ::    -> Gelec               -0.098296739406 Eh    ::
         ::    -> Gsasa               -0.024405447566 Eh    ::
         ::    -> Ghb                 -0.007403276775 Eh    ::
         ::    -> Gshift               0.007624279005 Eh    ::
         :: repulsion energy           0.818223988786 Eh    ::
         :: dispersion energy         -0.027043125619 Eh    ::
         :: halogen bond corr.         0.000000000000 Eh    ::
         :: add. restraining           0.000000000000 Eh    ::
         :: total charge               1.000000000309 e     ::
         :::::::::::::::::::::::::::::::::::::::::::::::::::::

           -------------------------------------------------
          |                Property Printout                |
           -------------------------------------------------

    * Orbital Energies and Occupations

         #    Occupation            Energy/Eh            Energy/eV
      -------------------------------------------------------------
         1        2.0000           -0.9380979             -25.5269
       ...           ...                  ...                  ...
        55        2.0000           -0.5360948             -14.5879
        56        2.0000           -0.5292954             -14.4029
        57        2.0000           -0.5238349             -14.2543
        58        2.0000           -0.5194063             -14.1338
        59        2.0000           -0.5165388             -14.0557
        60        2.0000           -0.5049680             -13.7409
        61        2.0000           -0.5040685             -13.7164
        62        2.0000           -0.5014838             -13.6461
        63        2.0000           -0.4965129             -13.5108
        64        2.0000           -0.4953062             -13.4780
        65        2.0000           -0.4695606             -12.7774
        66        2.0000           -0.4561543             -12.4126
        67        1.9927           -0.4400231             -11.9736 (HOMO)
        68        0.0073           -0.4293579             -11.6834 (LUMO)
        69                         -0.3336450              -9.0789
        70                         -0.3324206              -9.0456
        71                         -0.3049660              -8.2985
        72                         -0.2964185              -8.0660
        73                         -0.2494319              -6.7874
        74                         -0.1778272              -4.8389
        75                         -0.1688958              -4.5959
        76                         -0.1600476              -4.3551
        77                         -0.1457594              -3.9663
        78                         -0.1405264              -3.8239
       ...                                ...                  ...
       136                          0.7194140              19.5763
      -------------------------------------------------------------
                  HL-Gap            0.0106652 Eh            0.2902 eV
             Fermi-level           -0.4346905 Eh          -11.8285 eV

  Mulliken/CM5 charges         n(s)   n(p)   n(d)
     1C     0.16048  0.03952   0.983  2.856  0.000
     2O    -0.39948 -0.48237   1.682  4.717  0.000
     3C     0.57622  0.64104   0.968  2.456  0.000
     4O    -0.56783 -0.63253   1.725  4.843  0.000
     5C     0.06493  0.14122   1.043  2.892  0.000
     6N    -0.35997 -0.54590   1.527  3.833  0.000
     7C     0.27793  0.43065   1.013  2.709  0.000
     8C     0.14676  0.18357   1.075  2.778  0.000
     9C    -0.10790 -0.24697   1.023  3.085  0.000
    10C    -0.11517 -0.25511   1.023  3.092  0.000
    11N    -0.31578 -0.67283   1.436  3.880  0.000
    12C     0.50439  0.62017   0.983  2.513  0.000
    13O    -0.49951 -0.55581   1.719  4.781  0.000
    14C     0.31998  0.40940   1.055  2.625  0.000
    15C    -0.08519 -0.22175   1.030  3.055  0.000
    16N    -0.06915 -0.16427   1.572  3.497  0.000
    17N    -0.14289 -0.23739   1.547  3.596  0.000
    18C     0.47274  0.57129   1.050  2.477  0.000
    19C    -0.11091 -0.24759   1.023  3.088  0.000
    20O    -0.31450 -0.38131   1.685  4.629  0.000
    21N    -0.29254 -0.63636   1.440  3.853  0.000
    22C     0.46073  0.56286   0.982  2.557  0.000
    23O    -0.56112 -0.59992   1.724  4.837  0.000
    24C     0.24314  0.27774   1.031  2.726  0.000
    25O    -0.49756 -0.68560   1.695  4.803  0.000
    26H     0.05859  0.11896   0.941  0.000  0.000
    27H     0.05849  0.11997   0.942  0.000  0.000
    28H     0.05884  0.12077   0.941  0.000  0.000
    29H     0.05929  0.11541   0.941  0.000  0.000
    30H     0.06662  0.12380   0.933  0.000  0.000
    31H     0.06141  0.12146   0.939  0.000  0.000
    32H     0.06712  0.13032   0.933  0.000  0.000
    33H     0.06502  0.11963   0.935  0.000  0.000
    34H     0.06324  0.11964   0.937  0.000  0.000
    35H     0.28743  0.49620   0.713  0.000  0.000
    36H     0.09729  0.15600   0.903  0.000  0.000
    37H     0.09537  0.15281   0.905  0.000  0.000
    38H     0.09102  0.14756   0.909  0.000  0.000
    39H     0.13775  0.19209   0.862  0.000  0.000
    40H     0.11617  0.17193   0.884  0.000  0.000
    41H     0.12755  0.18239   0.872  0.000  0.000
    42H     0.28806  0.49938   0.712  0.000  0.000
    43H     0.41291  0.59994   0.587  0.000  0.000

Wiberg/Mayer (AO) data.
largest (>0.10) Wiberg bond orders for each atom

 ---------------------------------------------------------------------------
     #   Z sym  total        # sym  WBO       # sym  WBO       # sym  WBO
 ---------------------------------------------------------------------------
     1   6 C    3.863 --    26 H    0.986    28 H    0.979    27 H    0.979
                             2 O    0.888
     2   8 O    2.220 --     3 C    1.141     1 C    0.888     4 O    0.131
     3   6 C    3.850 --     4 O    1.608     2 O    1.141     5 C    1.016
     4   8 O    1.947 --     3 C    1.608     2 O    0.131
     5   6 C    3.956 --    24 C    1.479     6 N    1.178     3 C    1.016
     6   7 N    3.024 --     7 C    1.588     5 C    1.178
     7   6 C    3.934 --     6 N    1.588    21 N    1.182     8 C    0.972
     8   6 C    3.908 --     9 C    0.998    10 C    0.989     7 C    0.972
                            11 N    0.873
     9   6 C    3.983 --     8 C    0.998    29 H    0.984    31 H    0.981
                            30 H    0.979
    10   6 C    3.984 --     8 C    0.989    34 H    0.982    33 H    0.981
                            32 H    0.977
    11   7 N    3.386 --    12 C    1.368    35 H    0.879     8 C    0.873
                            13 O    0.180
    12   6 C    3.910 --    13 O    1.641    11 N    1.368    14 C    0.750
    13   8 O    2.049 --    12 C    1.641    11 N    0.180
    14   6 C    3.838 --    16 N    1.101    15 C    0.917    20 O    0.907
                            12 C    0.750
    15   6 C    3.947 --    38 H    0.979    37 H    0.975    36 H    0.975
                            14 C    0.917
    16   7 N    2.991 --    17 N    1.633    14 C    1.101
    17   7 N    3.015 --    16 N    1.633    18 C    1.216
    18   6 C    3.798 --    20 O    1.268    17 N    1.216    19 C    1.081
    19   6 C    3.963 --    18 C    1.081    40 H    0.970    41 H    0.935
                            39 H    0.909
    20   8 O    2.369 --    18 C    1.268    14 C    0.907
    21   7 N    3.462 --     7 C    1.182    22 C    1.116    42 H    0.867
                            23 O    0.135
    22   6 C    3.906 --    23 O    1.613    21 N    1.116    24 C    1.049
    23   8 O    1.907 --    22 C    1.613    21 N    0.135
    24   6 C    3.913 --     5 C    1.479    25 O    1.140    22 C    1.049
    25   8 O    2.102 --    24 C    1.140    43 H    0.771
    26   1 H    1.010 --     1 C    0.986
    27   1 H    1.005 --     1 C    0.979
    28   1 H    1.005 --     1 C    0.979
    29   1 H    0.997 --     9 C    0.984
    30   1 H    1.002 --     9 C    0.979
    31   1 H    1.004 --     9 C    0.981
    32   1 H    1.002 --    10 C    0.977
    33   1 H    0.997 --    10 C    0.981
    34   1 H    0.997 --    10 C    0.982
    35   1 H    0.924 --    11 N    0.879
    36   1 H    0.995 --    15 C    0.975
    37   1 H    0.990 --    15 C    0.975
    38   1 H    0.991 --    15 C    0.979
    39   1 H    0.975 --    19 C    0.909
    40   1 H    0.985 --    19 C    0.970
    41   1 H    0.980 --    19 C    0.935
    42   1 H    0.932 --    21 N    0.867
    43   1 H    0.848 --    25 O    0.771
 ---------------------------------------------------------------------------

Topologies differ in total number of bonds
Writing topology from bond orders to xtbtopo.mol

 dipole moment from electron density (au)
     X       Y       Z   
  -6.6678   5.3964   0.0503  total (Debye):   21.803

           -------------------------------------------------
          |                Geometry Summary                 |
           -------------------------------------------------

      molecular mass/u    :      352.3231817
   center of mass at/Å    :        0.2084149      -0.4294891       0.2044383
  moments of inertia/u·Å² :        0.1258282E+04   0.4351961E+04   0.4940393E+04
rotational constants/cm⁻¹ :        0.1339734E-01   0.3873571E-02   0.3412205E-02

 * 39 selected distances

     #   Z          #   Z                                           value/Å
     1   6 C        2   8 O                                       1.4334914
     2   8 O        3   6 C                                       1.3228080
     3   6 C        4   8 O                                       1.2182360
     5   6 C        6   7 N                                       1.3715507
     6   7 N        7   6 C                                       1.2892886
     8   6 C        9   6 C                                       1.5286307
     8   6 C       10   6 C                                       1.5301414 (max)
    11   7 N       12   6 C                                       1.3160847
    12   6 C       13   8 O                                       1.2029473
    14   6 C       15   6 C                                       1.5281390
    14   6 C       16   7 N                                       1.4083115
    16   7 N       17   7 N                                       1.2660899
    17   7 N       18   6 C                                       1.3668130
    18   6 C       19   6 C                                       1.4575979
    14   6 C       20   8 O                                       1.4052633
    18   6 C       20   8 O                                       1.2878761
     7   6 C       21   7 N                                       1.3614210
    21   7 N       22   6 C                                       1.3849467
    22   6 C       23   8 O                                       1.2158891
     5   6 C       24   6 C                                       1.3749332
    24   6 C       25   8 O                                       1.3289003
     1   6 C       26   1 H                                       1.0877189
     1   6 C       27   1 H                                       1.0923259
     1   6 C       28   1 H                                       1.0921412
     9   6 C       29   1 H                                       1.0877196
     9   6 C       30   1 H                                       1.0888527
     9   6 C       31   1 H                                       1.0885347
    10   6 C       32   1 H                                       1.0877484
    10   6 C       33   1 H                                       1.0890900
    10   6 C       34   1 H                                       1.0883150
    11   7 N       35   1 H                                       1.0061110
    15   6 C       36   1 H                                       1.0884914
    15   6 C       37   1 H                                       1.0879042
    15   6 C       38   1 H                                       1.0872944
    19   6 C       39   1 H                                       1.0941344
    19   6 C       40   1 H                                       1.0877083
    19   6 C       41   1 H                                       1.0916025
    21   7 N       42   1 H                                       1.0128042
    25   8 O       43   1 H                                       0.9867342 (min)

 * 7 distinct bonds (by element types)

   Z      Z             #   av. dist./Å        max./Å        min./Å
   1 H    6 C          15     1.0893055     1.0941344     1.0872944
   6 C    6 C           5     1.4838884     1.5301414     1.3749332
   1 H    7 N           2     1.0094576     1.0128042     1.0061110
   6 C    7 N           7     1.3569166     1.4083115     1.2892886
   7 N    7 N           1     1.2660899     1.2660899     1.2660899
   1 H    8 O           1     0.9867342     0.9867342     0.9867342
   6 C    8 O           8     1.3019264     1.4334914     1.2029473


optimized geometry written to: xtbopt.xyz


           -------------------------------------------------
          | TOTAL ENERGY              -83.139357446609 Eh   |
          | GRADIENT NORM               0.000385540605 Eh/α |
          | HOMO-LUMO GAP               0.290215927891 eV   |
           -------------------------------------------------

------------------------------------------------------------------------
 * finished run on 2023/06/20 at 15:34:50.901     
------------------------------------------------------------------------
 total:
 * wall-time:     0 d,  0 h,  0 min,  6.912 sec
 *  cpu-time:     0 d,  0 h,  0 min,  6.826 sec
 * ratio c/w:     0.988 speedup
 SCF:
 * wall-time:     0 d,  0 h,  0 min,  0.195 sec
 *  cpu-time:     0 d,  0 h,  0 min,  0.194 sec
 * ratio c/w:     0.995 speedup
 ANC optimizer:
 * wall-time:     0 d,  0 h,  0 min,  6.632 sec
 *  cpu-time:     0 d,  0 h,  0 min,  6.595 sec
 * ratio c/w:     0.994 speedup

