
                                 *****************
                                 * O   R   C   A *
                                 *****************

                                            #,                                       
                                            ###                                      
                                            ####                                     
                                            #####                                    
                                            ######                                   
                                           ########,                                 
                                     ,,################,,,,,                         
                               ,,#################################,,                 
                          ,,##########################################,,             
                       ,#########################################, ''#####,          
                    ,#############################################,,   '####,        
                  ,##################################################,,,,####,       
                ,###########''''           ''''###############################       
              ,#####''   ,,,,##########,,,,          '''####'''          '####       
            ,##' ,,,,###########################,,,                        '##       
           ' ,,###''''                  '''############,,,                           
         ,,##''                                '''############,,,,        ,,,,,,###''
      ,#''                                            '''#######################'''  
     '                                                          ''''####''''         
             ,#######,   #######,   ,#######,      ##                                
            ,#'     '#,  ##    ##  ,#'     '#,    #''#        ######   ,####,        
            ##       ##  ##   ,#'  ##            #'  '#       #        #'  '#        
            ##       ##  #######   ##           ,######,      #####,   #    #        
            '#,     ,#'  ##    ##  '#,     ,#' ,#      #,         ##   #,  ,#        
             '#######'   ##     ##  '#######'  #'      '#     #####' # '####'        



                  #######################################################
                  #                        -***-                        #
                  #          Department of theory and spectroscopy      #
                  #    Directorship and core code : Frank Neese         #
                  #        Max Planck Institute fuer Kohlenforschung    #
                  #                Kaiser Wilhelm Platz 1               #
                  #                 D-45470 Muelheim/Ruhr               #
                  #                      Germany                        #
                  #                                                     #
                  #                  All rights reserved                #
                  #                        -***-                        #
                  #######################################################


                         Program Version 5.0.1 -  RELEASE  -


 With contributions from (in alphabetic order):
   Daniel Aravena         : Magnetic Suceptibility
   Michael Atanasov       : Ab Initio Ligand Field Theory (pilot matlab implementation)
   Alexander A. Auer      : GIAO ZORA, VPT2 properties, NMR spectrum
   Ute Becker             : Parallelization
   Giovanni Bistoni       : ED, misc. LED, open-shell LED, HFLD
   Martin Brehm           : Molecular dynamics
   Dmytro Bykov           : SCF Hessian
   Vijay G. Chilkuri      : MRCI spin determinant printing, contributions to CSF-ICE
   Dipayan Datta          : RHF DLPNO-CCSD density
   Achintya Kumar Dutta   : EOM-CC, STEOM-CC
   Dmitry Ganyushin       : Spin-Orbit,Spin-Spin,Magnetic field MRCI
   Miquel Garcia          : C-PCM and meta-GGA Hessian, CC/C-PCM, Gaussian charge scheme
   Yang Guo               : DLPNO-NEVPT2, F12-NEVPT2, CIM, IAO-localization
   Andreas Hansen         : Spin unrestricted coupled pair/coupled cluster methods
   Benjamin Helmich-Paris : MC-RPA, TRAH-SCF, COSX integrals
   Lee Huntington         : MR-EOM, pCC
   Robert Izsak           : Overlap fitted RIJCOSX, COSX-SCS-MP3, EOM
   Marcus Kettner         : VPT2
   Christian Kollmar      : KDIIS, OOCD, Brueckner-CCSD(T), CCSD density, CASPT2, CASPT2-K
   Simone Kossmann        : Meta GGA functionals, TD-DFT gradient, OOMP2, MP2 Hessian
   Martin Krupicka        : Initial AUTO-CI
   Lucas Lang             : DCDCAS
   Marvin Lechner         : AUTO-CI (C++ implementation), FIC-MRCC
   Dagmar Lenk            : GEPOL surface, SMD
   Dimitrios Liakos       : Extrapolation schemes; Compound Job, initial MDCI parallelization
   Dimitrios Manganas     : Further ROCIS development; embedding schemes
   Dimitrios Pantazis     : SARC Basis sets
   Anastasios Papadopoulos: AUTO-CI, single reference methods and gradients
   Taras Petrenko         : DFT Hessian,TD-DFT gradient, ASA, ECA, R-Raman, ABS, FL, XAS/XES, NRVS
   Peter Pinski           : DLPNO-MP2, DLPNO-MP2 Gradient
   Christoph Reimann      : Effective Core Potentials
   Marius Retegan         : Local ZFS, SOC
   Christoph Riplinger    : Optimizer, TS searches, QM/MM, DLPNO-CCSD(T), (RO)-DLPNO pert. Triples
   Tobias Risthaus        : Range-separated hybrids, TD-DFT gradient, RPA, STAB
   Michael Roemelt        : Original ROCIS implementation
   Masaaki Saitow         : Open-shell DLPNO-CCSD energy and density
   Barbara Sandhoefer     : DKH picture change effects
   Avijit Sen             : IP-ROCIS
   Kantharuban Sivalingam : CASSCF convergence, NEVPT2, FIC-MRCI
   Bernardo de Souza      : ESD, SOC TD-DFT
   Georgi Stoychev        : AutoAux, RI-MP2 NMR, DLPNO-MP2 response
   Willem Van den Heuvel  : Paramagnetic NMR
   Boris Wezisla          : Elementary symmetry handling
   Frank Wennmohs         : Technical directorship


 We gratefully acknowledge several colleagues who have allowed us to
 interface, adapt or use parts of their codes:
   Stefan Grimme, W. Hujo, H. Kruse, P. Pracht,  : VdW corrections, initial TS optimization,
                  C. Bannwarth, S. Ehlert          DFT functionals, gCP, sTDA/sTD-DF
   Ed Valeev, F. Pavosevic, A. Kumar             : LibInt (2-el integral package), F12 methods
   Garnet Chan, S. Sharma, J. Yang, R. Olivares  : DMRG
   Ulf Ekstrom                                   : XCFun DFT Library
   Mihaly Kallay                                 : mrcc  (arbitrary order and MRCC methods)
   Jiri Pittner, Ondrej Demel                    : Mk-CCSD
   Frank Weinhold                                : gennbo (NPA and NBO analysis)
   Christopher J. Cramer and Donald G. Truhlar   : smd solvation model
   Lars Goerigk                                  : TD-DFT with DH, B97 family of functionals
   V. Asgeirsson, H. Jonsson                     : NEB implementation
   FAccTs GmbH                                   : IRC, NEB, NEB-TS, DLPNO-Multilevel, CI-OPT
                                                   MM, QMMM, 2- and 3-layer-ONIOM, Crystal-QMMM,
                                                   LR-CPCM, SF, NACMEs, symmetry and pop. for TD-DFT,
                                                   nearIR, NL-DFT gradient (VV10), updates on ESD,
                                                   ML-optimized integration grids
   S Lehtola, MJT Oliveira, MAL Marques          : LibXC Library
   Liviu Ungur et al                             : ANISO software


 Your calculation uses the libint2 library for the computation of 2-el integrals
 For citations please refer to: http://libint.valeyev.net

 Your ORCA version has been built with support for libXC version: 5.1.0
 For citations please refer to: https://tddft.org/programs/libxc/

 This ORCA versions uses:
   CBLAS   interface :  Fast vector & matrix operations
   LAPACKE interface :  Fast linear algebra routines
   SCALAPACK package :  Parallel linear algebra routines
   Shared memory     :  Shared parallel matrices
   BLAS/LAPACK       :  OpenBLAS 0.3.15  USE64BITINT DYNAMIC_ARCH NO_AFFINITY Haswell SINGLE_THREADED
        Core in use  :  Haswell
   Copyright (c) 2011-2014, The OpenBLAS Project


Your calculation utilizes the geometrical counterpoise correction gCP
Please cite in your paper:
H.Kruse, S. Grimme J.Chem.Phys., 136, (2012), 154101 
   

Your calculation utilizes the atom-pairwise dispersion correction
based on tight binding partial charges (D4)
Cite in your paper:
E.Caldeweyher, C.Bannwarth, S.Grimme, J.Chem.Phys., (2017), 147, 034112.
E.Caldeweyher, S.Ehlert, A.Hansen, H.Neugebauer, S.Grimme, J.Chem.Phys., (2018), in progress.
   

Your calculation utilizes the SMD solvation module
Please cite in your paper:
A.V. Marenich, C.J. Cramer, D.G. Truhlar J. Phys. Chem. B, 113, (2009), 6378 

================================================================================

----- Orbital basis set information -----
Your calculation utilizes the basis: def2-mTZVPP
   Stefan Grimme, Andreas Hansen, Sebastian Ehlert, and Jan-Michael Mewes 
   J. Chem. Phys. 154, 000000 (2021). DOI: 10.1063/5.0040021

----- AuxJ basis set information -----
Your calculation utilizes the basis: def2-mTZVPP/J
   Stefan Grimme, Andreas Hansen, Sebastian Ehlert, and Jan-Michael Mewes 
   J. Chem. Phys. 154, 000000 (2021). DOI: 10.1063/5.0040021

================================================================================
                                        WARNINGS
                       Please study these warnings very carefully!
================================================================================

Using LibXC functional ID 497 : Re-regularized SCAN exchange by Furness et al
[ 1]  J. W. Furness, A. D. Kaplan, J. Ning, J. P. Perdew, and J. Sun, J. Phys. Chem. Lett. 11, 8208 (2020)
[ 2]  J. W. Furness, A. D. Kaplan, J. Ning, J. P. Perdew, and J. Sun, J. Phys. Chem. Lett. 11, 9248 (2020)
Using LibXC functional ID 498 : Re-regularized SCAN correlation by Furness et al
[ 1]  J. W. Furness, A. D. Kaplan, J. Ning, J. P. Perdew, and J. Sun, J. Phys. Chem. Lett. 11, 8208 (2020)
[ 2]  J. W. Furness, A. D. Kaplan, J. Ning, J. P. Perdew, and J. Sun, J. Phys. Chem. Lett. 11, 9248 (2020)
Using LibXC functional ID 497 : Re-regularized SCAN exchange by Furness et al
[ 1]  J. W. Furness, A. D. Kaplan, J. Ning, J. P. Perdew, and J. Sun, J. Phys. Chem. Lett. 11, 8208 (2020)
[ 2]  J. W. Furness, A. D. Kaplan, J. Ning, J. P. Perdew, and J. Sun, J. Phys. Chem. Lett. 11, 9248 (2020)
Using LibXC functional ID 498 : Re-regularized SCAN correlation by Furness et al
[ 1]  J. W. Furness, A. D. Kaplan, J. Ning, J. P. Perdew, and J. Sun, J. Phys. Chem. Lett. 11, 8208 (2020)
[ 2]  J. W. Furness, A. D. Kaplan, J. Ning, J. P. Perdew, and J. Sun, J. Phys. Chem. Lett. 11, 9248 (2020)

INFO   : the flag for use of the SHARK integral package has been found!

================================================================================
                                       INPUT FILE
================================================================================
NAME = /lustre/hpc/kemi/ree/PhD/git/ReactivityQM/calculations/R02deprot/reac01prodE10/conf05/gfn1/orca_calc.inp
|  1> # ORCA input file 
|  2> ! SP r2SCAN-3c CPCM 
|  3> 
|  4> %maxcore 1875.0 
|  5> %pal nprocs 4 end 
|  6> %cpcm smd true SMDsolvent "DMSO" end 
|  7> 
|  8> *xyz -2 1
|  9> C       6.678397   -1.253668    0.541305
| 10> O       5.310577   -0.924647    0.363559
| 11> C       5.069857    0.263729   -0.268078
| 12> O       6.015790    0.971218   -0.648812
| 13> C       3.668419    0.586770   -0.429858
| 14> N       2.738948   -0.307029    0.042846
| 15> C       1.469353    0.016793   -0.108978
| 16> C       0.445714   -1.014561    0.381128
| 17> C       0.979815   -1.713448    1.640299
| 18> C       0.270191   -2.040501   -0.761040
| 19> N      -0.795532   -0.309986    0.692761
| 20> C      -2.008806   -1.076840    0.827903
| 21> O      -1.981138   -2.270455    1.277940
| 22> C      -3.131367   -0.350438    0.500299
| 23> N      -3.195548    0.964157    0.014899
| 24> N      -4.493378    1.177261   -0.152220
| 25> C      -4.946771    2.458074   -0.638914
| 26> C      -5.257891    0.157277    0.177555
| 27> C      -6.737087    0.066844    0.107863
| 28> O      -4.487234   -0.881713    0.607591
| 29> N       0.986987    1.113924   -0.684799
| 30> C       1.840536    2.061287   -1.180674
| 31> O       1.412840    3.108382   -1.718655
| 32> C       3.258800    1.767849   -1.039547
| 33> O       4.147884    2.688735   -1.523107
| 34> H       7.182232   -0.503644    1.159950
| 35> H       7.193626   -1.314133   -0.422861
| 36> H       6.714830   -2.222853    1.037858
| 37> H       0.298536   -2.501145    1.960854
| 38> H       1.957525   -2.150865    1.435739
| 39> H       1.083648   -0.988474    2.449257
| 40> H      -0.374009   -2.862945   -0.450666
| 41> H      -0.168850   -1.556310   -1.634280
| 42> H       1.244959   -2.443914   -1.037382
| 43> H      -0.924667    0.465669    0.037583
| 44> H      -5.524554    2.962699    0.134824
| 45> H      -5.574591    2.317053   -1.517186
| 46> H      -4.074369    3.055051   -0.896083
| 47> H      -7.200678    0.958370    0.530963
| 48> H      -7.068043   -0.805579    0.667976
| 49> H      -7.085284   -0.031370   -0.923352
| 50> H       5.060337    2.363376   -1.370254
| 51> **                         ****END OF INPUT****
================================================================================

                       ****************************
                       * Single Point Calculation *
                       ****************************

---------------------------------
CARTESIAN COORDINATES (ANGSTROEM)
---------------------------------
  C      6.678397   -1.253668    0.541305
  O      5.310577   -0.924647    0.363559
  C      5.069857    0.263729   -0.268078
  O      6.015790    0.971218   -0.648812
  C      3.668419    0.586770   -0.429858
  N      2.738948   -0.307029    0.042846
  C      1.469353    0.016793   -0.108978
  C      0.445714   -1.014561    0.381128
  C      0.979815   -1.713448    1.640299
  C      0.270191   -2.040501   -0.761040
  N     -0.795532   -0.309986    0.692761
  C     -2.008806   -1.076840    0.827903
  O     -1.981138   -2.270455    1.277940
  C     -3.131367   -0.350438    0.500299
  N     -3.195548    0.964157    0.014899
  N     -4.493378    1.177261   -0.152220
  C     -4.946771    2.458074   -0.638914
  C     -5.257891    0.157277    0.177555
  C     -6.737087    0.066844    0.107863
  O     -4.487234   -0.881713    0.607591
  N      0.986987    1.113924   -0.684799
  C      1.840536    2.061287   -1.180674
  O      1.412840    3.108382   -1.718655
  C      3.258800    1.767849   -1.039547
  O      4.147884    2.688735   -1.523107
  H      7.182232   -0.503644    1.159950
  H      7.193626   -1.314133   -0.422861
  H      6.714830   -2.222853    1.037858
  H      0.298536   -2.501145    1.960854
  H      1.957525   -2.150865    1.435739
  H      1.083648   -0.988474    2.449257
  H     -0.374009   -2.862945   -0.450666
  H     -0.168850   -1.556310   -1.634280
  H      1.244959   -2.443914   -1.037382
  H     -0.924667    0.465669    0.037583
  H     -5.524554    2.962699    0.134824
  H     -5.574591    2.317053   -1.517186
  H     -4.074369    3.055051   -0.896083
  H     -7.200678    0.958370    0.530963
  H     -7.068043   -0.805579    0.667976
  H     -7.085284   -0.031370   -0.923352
  H      5.060337    2.363376   -1.370254

----------------------------
CARTESIAN COORDINATES (A.U.)
----------------------------
  NO LB      ZA    FRAG     MASS         X           Y           Z
   0 C     6.0000    0    12.011   12.620341   -2.369089    1.022918
   1 O     8.0000    0    15.999   10.035536   -1.747330    0.687027
   2 C     6.0000    0    12.011    9.580641    0.498376   -0.506594
   3 O     8.0000    0    15.999   11.368196    1.835336   -1.226077
   4 C     6.0000    0    12.011    6.932307    1.108835   -0.812314
   5 N     7.0000    0    14.007    5.175862   -0.580201    0.080967
   6 C     6.0000    0    12.011    2.776675    0.031734   -0.205939
   7 C     6.0000    0    12.011    0.842277   -1.917242    0.720228
   8 C     6.0000    0    12.011    1.851582   -3.237947    3.099716
   9 C     6.0000    0    12.011    0.510587   -3.855988   -1.438157
  10 N     7.0000    0    14.007   -1.503338   -0.585789    1.309129
  11 C     6.0000    0    12.011   -3.796093   -2.034933    1.564510
  12 O     8.0000    0    15.999   -3.743808   -4.290538    2.414957
  13 C     6.0000    0    12.011   -5.917426   -0.662232    0.945428
  14 N     7.0000    0    14.007   -6.038711    1.821993    0.028155
  15 N     7.0000    0    14.007   -8.491254    2.224701   -0.287654
  16 C     6.0000    0    12.011   -9.348042    4.645087   -1.207372
  17 C     6.0000    0    12.011   -9.935974    0.297210    0.335530
  18 C     6.0000    0    12.011  -12.731249    0.126317    0.203832
  19 O     8.0000    0    15.999   -8.479643   -1.666196    1.148181
  20 N     7.0000    0    14.007    1.865135    2.105011   -1.294083
  21 C     6.0000    0    12.011    3.478109    3.895268   -2.231151
  22 O     8.0000    0    15.999    2.669881    5.873991   -3.247787
  23 C     6.0000    0    12.011    6.158240    3.340750   -1.964459
  24 O     8.0000    0    15.999    7.838365    5.080973   -2.878255
  25 H     1.0000    0     1.008   13.572452   -0.951749    2.191988
  26 H     1.0000    0     1.008   13.593983   -2.483351   -0.799091
  27 H     1.0000    0     1.008   12.689190   -4.200583    1.961267
  28 H     1.0000    0     1.008    0.564151   -4.726479    3.705477
  29 H     1.0000    0     1.008    3.699186   -4.064546    2.713154
  30 H     1.0000    0     1.008    2.047798   -1.867945    4.628425
  31 H     1.0000    0     1.008   -0.706775   -5.410182   -0.851635
  32 H     1.0000    0     1.008   -0.319080   -2.941000   -3.088342
  33 H     1.0000    0     1.008    2.352632   -4.618328   -1.960368
  34 H     1.0000    0     1.008   -1.747367    0.879987    0.071022
  35 H     1.0000    0     1.008  -10.439894    5.598690    0.254780
  36 H     1.0000    0     1.008  -10.534450    4.378596   -2.867066
  37 H     1.0000    0     1.008   -7.699442    5.773210   -1.693351
  38 H     1.0000    0     1.008  -13.607309    1.811057    1.003375
  39 H     1.0000    0     1.008  -13.356666   -1.522324    1.262292
  40 H     1.0000    0     1.008  -13.389246   -0.059281   -1.744882
  41 H     1.0000    0     1.008    9.562651    4.466133   -2.589405

--------------------------------
INTERNAL COORDINATES (ANGSTROEM)
--------------------------------
 C      0   0   0     0.000000000000     0.00000000     0.00000000
 O      1   0   0     1.418019749988     0.00000000     0.00000000
 C      2   1   0     1.367168217720   115.43170361     0.00000000
 O      3   2   1     1.241083520302   120.20134836     0.33470622
 C      3   2   1     1.447258347333   114.59243310   180.49466938
 N      5   3   2     1.373405280264   118.13827053   359.55714383
 C      6   5   3     1.319008217823   116.87346770   179.52313164
 C      7   6   5     1.533535707727   116.14217013   177.97476049
 C      8   7   6     1.535974779810   109.62720990    35.45386272
 C      8   7   6     1.545286040626   106.62487118   276.31691342
 N      8   7   6     1.460901327890   108.11702123   155.22267163
 C     11   8   7     1.441652599122   118.58764656   163.61570908
 O     12  11   8     1.275937141014   120.82528129    31.98745555
 C     12  11   8     1.376636279175   112.53660386   208.43940306
 N     14  12  11     1.402815873444   127.88883617     3.21672356
 N     15  14  12     1.325784591809   103.82947108   179.24458331
 C     16  15  14     1.443231860462   119.51716297   179.44074666
 C     16  15  14     1.316662081952   114.35006371     0.40697301
 C     18  16  15     1.483595601493   127.90672968   180.17480527
 O     18  16  15     1.363210692830   109.94916180   359.56974464
 N      7   6   5     1.329640257046   126.98531636     0.72961169
 C     21   7   6     1.368186597214   120.13084717   359.06939600
 O     22  21   7     1.252499646228   121.43373500   180.54815328
 C      5   3   2     1.390847226018   121.58291881   179.28288587
 O     24   5   3     1.368331706003   122.34728031     0.15496479
 H      1   2   3     1.095037599275   110.83706303    61.24066460
 H      1   2   3     1.094866665043   110.87658450   300.55967964
 H      1   2   3     1.089592497002   107.20343729   180.88626516
 H      9   8   7     1.089661941923   110.65113421   184.16225737
 H      9   8   7     1.090456450111   109.90795241   304.61203974
 H      9   8   7     1.091229415993   109.78691884    64.10163055
 H     10   8   7     1.089834754911   110.95704456   174.55419164
 H     10   8   7     1.090754794517   110.04388855   295.23609807
 H     10   8   7     1.090540968216   109.35153005    54.60482040
 H     11   8   7     1.023510986230   109.64218031    34.85218290
 H     17  16  15     1.089564168995   109.76345228   245.66680974
 H     17  16  15     1.088763785596   109.76920939   125.77112079
 H     17  16  15     1.087935054447   108.34707504     5.57532227
 H     19  18  16     1.090297589632   110.84641658   313.54607253
 H     19  18  16     1.088292395284   109.14085783   193.41726781
 H     19  18  16     1.092836454750   111.56011336    73.57544285
 H     25  24   5     0.980710454568   109.03717689     0.53137120

---------------------------
INTERNAL COORDINATES (A.U.)
---------------------------
 C      0   0   0     0.000000000000     0.00000000     0.00000000
 O      1   0   0     2.679668979969     0.00000000     0.00000000
 C      2   1   0     2.583573510493   115.43170361     0.00000000
 O      3   2   1     2.345307962694   120.20134836     0.33470622
 C      3   2   1     2.734921921491   114.59243310   180.49466938
 N      5   3   2     2.595359850581   118.13827053   359.55714383
 C      6   5   3     2.492564300077   116.87346770   179.52313164
 C      7   6   5     2.897962504193   116.14217013   177.97476049
 C      8   7   6     2.902571682450   109.62720990    35.45386272
 C      8   7   6     2.920167415354   106.62487118   276.31691342
 N      8   7   6     2.760703418393   108.11702123   155.22267163
 C     11   8   7     2.724328592597   118.58764656   163.61570908
 O     12  11   8     2.411171760614   120.82528129    31.98745555
 C     12  11   8     2.601465553661   112.53660386   208.43940306
 N     14  12  11     2.650937817126   127.88883617     3.21672356
 N     15  14  12     2.505369791091   103.82947108   179.24458331
 C     16  15  14     2.727312964024   119.51716297   179.44074666
 C     16  15  14     2.488130745808   114.35006371     0.40697301
 C     18  16  15     2.803589380312   127.90672968   180.17480527
 O     18  16  15     2.576094872281   109.94916180   359.56974464
 N      7   6   5     2.512655942454   126.98531636     0.72961169
 C     21   7   6     2.585497968835   120.13084717   359.06939600
 O     22  21   7     2.366881314205   121.43373500   180.54815328
 C      5   3   2     2.628320351299   121.58291881   179.28288587
 O     24   5   3     2.585772184706   122.34728031     0.15496479
 H      1   2   3     2.069321168976   110.83706303    61.24066460
 H      1   2   3     2.068998150091   110.87658450   300.55967964
 H      1   2   3     2.059031416909   107.20343729   180.88626516
 H      9   8   7     2.059162648791   110.65113421   184.16225737
 H      9   8   7     2.060664051678   109.90795241   304.61203974
 H      9   8   7     2.062124745506   109.78691884    64.10163055
 H     10   8   7     2.059489218011   110.95704456   174.55419164
 H     10   8   7     2.061227840899   110.04388855   295.23609807
 H     10   8   7     2.060823767749   109.35153005    54.60482040
 H     11   8   7     1.934155459035   109.64218031    34.85218290
 H     17  16  15     2.058977884734   109.76345228   245.66680974
 H     17  16  15     2.057465379308   109.76920939   125.77112079
 H     17  16  15     2.055899304397   108.34707504     5.57532227
 H     19  18  16     2.060363848879   110.84641658   313.54607253
 H     19  18  16     2.056574580717   109.14085783   193.41726781
 H     19  18  16     2.065161608642   111.56011336    73.57544285
 H     25  24   5     1.853274175807   109.03717689     0.53137120

---------------------
BASIS SET INFORMATION
---------------------
There are 4 groups of distinct atoms

 Group   1 Type C   : 11s6p1d contracted to 5s3p1d pattern {62111/411/1}
 Group   2 Type O   : 11s6p2d contracted to 5s3p2d pattern {62111/411/11}
 Group   3 Type N   : 11s6p2d contracted to 5s3p2d pattern {62111/411/11}
 Group   4 Type H   : 4s1p contracted to 2s1p pattern {31/1}

Atom   0C    basis set group =>   1
Atom   1O    basis set group =>   2
Atom   2C    basis set group =>   1
Atom   3O    basis set group =>   2
Atom   4C    basis set group =>   1
Atom   5N    basis set group =>   3
Atom   6C    basis set group =>   1
Atom   7C    basis set group =>   1
Atom   8C    basis set group =>   1
Atom   9C    basis set group =>   1
Atom  10N    basis set group =>   3
Atom  11C    basis set group =>   1
Atom  12O    basis set group =>   2
Atom  13C    basis set group =>   1
Atom  14N    basis set group =>   3
Atom  15N    basis set group =>   3
Atom  16C    basis set group =>   1
Atom  17C    basis set group =>   1
Atom  18C    basis set group =>   1
Atom  19O    basis set group =>   2
Atom  20N    basis set group =>   3
Atom  21C    basis set group =>   1
Atom  22O    basis set group =>   2
Atom  23C    basis set group =>   1
Atom  24O    basis set group =>   2
Atom  25H    basis set group =>   4
Atom  26H    basis set group =>   4
Atom  27H    basis set group =>   4
Atom  28H    basis set group =>   4
Atom  29H    basis set group =>   4
Atom  30H    basis set group =>   4
Atom  31H    basis set group =>   4
Atom  32H    basis set group =>   4
Atom  33H    basis set group =>   4
Atom  34H    basis set group =>   4
Atom  35H    basis set group =>   4
Atom  36H    basis set group =>   4
Atom  37H    basis set group =>   4
Atom  38H    basis set group =>   4
Atom  39H    basis set group =>   4
Atom  40H    basis set group =>   4
Atom  41H    basis set group =>   4
---------------------------------
AUXILIARY/J BASIS SET INFORMATION
---------------------------------
There are 4 groups of distinct atoms

 Group   1 Type C   : 8s3p3d contracted to 6s3p3d pattern {311111/111/111}
 Group   2 Type O   : 8s3p3d contracted to 6s3p3d pattern {311111/111/111}
 Group   3 Type N   : 8s3p3d contracted to 6s3p3d pattern {311111/111/111}
 Group   4 Type H   : 5s2p1d contracted to 3s1p1d pattern {311/2/1}

Atom   0C    basis set group =>   1
Atom   1O    basis set group =>   2
Atom   2C    basis set group =>   1
Atom   3O    basis set group =>   2
Atom   4C    basis set group =>   1
Atom   5N    basis set group =>   3
Atom   6C    basis set group =>   1
Atom   7C    basis set group =>   1
Atom   8C    basis set group =>   1
Atom   9C    basis set group =>   1
Atom  10N    basis set group =>   3
Atom  11C    basis set group =>   1
Atom  12O    basis set group =>   2
Atom  13C    basis set group =>   1
Atom  14N    basis set group =>   3
Atom  15N    basis set group =>   3
Atom  16C    basis set group =>   1
Atom  17C    basis set group =>   1
Atom  18C    basis set group =>   1
Atom  19O    basis set group =>   2
Atom  20N    basis set group =>   3
Atom  21C    basis set group =>   1
Atom  22O    basis set group =>   2
Atom  23C    basis set group =>   1
Atom  24O    basis set group =>   2
Atom  25H    basis set group =>   4
Atom  26H    basis set group =>   4
Atom  27H    basis set group =>   4
Atom  28H    basis set group =>   4
Atom  29H    basis set group =>   4
Atom  30H    basis set group =>   4
Atom  31H    basis set group =>   4
Atom  32H    basis set group =>   4
Atom  33H    basis set group =>   4
Atom  34H    basis set group =>   4
Atom  35H    basis set group =>   4
Atom  36H    basis set group =>   4
Atom  37H    basis set group =>   4
Atom  38H    basis set group =>   4
Atom  39H    basis set group =>   4
Atom  40H    basis set group =>   4
Atom  41H    basis set group =>   4


           ************************************************************
           *        Program running with 4 parallel MPI-processes     *
           *              working on a common directory               *
           ************************************************************
------------------------------------------------------------------------------
                           ORCA GTO INTEGRAL CALCULATION
                           -- RI-GTO INTEGRALS CHOSEN --
------------------------------------------------------------------------------
------------------------------------------------------------------------------
                   ___                                                        
                  /   \      - P O W E R E D   B Y -                         
                 /     \                                                     
                 |  |  |   _    _      __       _____    __    __             
                 |  |  |  | |  | |    /  \     |  _  \  |  |  /  |          
                  \  \/   | |  | |   /    \    | | | |  |  | /  /          
                 / \  \   | |__| |  /  /\  \   | |_| |  |  |/  /          
                |  |  |   |  __  | /  /__\  \  |    /   |      \           
                |  |  |   | |  | | |   __   |  |    \   |  |\   \          
                \     /   | |  | | |  |  |  |  | |\  \  |  | \   \       
                 \___/    |_|  |_| |__|  |__|  |_| \__\ |__|  \__/        
                                                                              
                      - O R C A' S   B I G   F R I E N D -                    
                                      &                                       
                       - I N T E G R A L  F E E D E R -                       
                                                                              
 v1 FN, 2020, v2 2021                                                         
------------------------------------------------------------------------------


Reading SHARK input file /lustre/hpc/kemi/ree/PhD/git/ReactivityQM/calculations/R02deprot/reac01prodE10/conf05/gfn1/orca_calc.SHARKINP.tmp ... ok
----------------------
SHARK INTEGRAL PACKAGE
----------------------

Number of atoms                             ...     42
Number of basis functions                   ...    615
Number of shells                            ...    287
Maximum angular momentum                    ...      2
Integral batch strategy                     ... SHARK/LIBINT Hybrid
RI-J (if used) integral strategy            ... SPLIT-RIJ (Revised 2003 algorithm where possible)
Printlevel                                  ...      1
Contraction scheme used                     ... SEGMENTED contraction
Coulomb Range Separation                    ... NOT USED
Exchange Range Separation                   ... NOT USED
Finite Nucleus Model                        ... NOT USED
Auxiliary Coulomb fitting basis             ... AVAILABLE
   # of basis functions in Aux-J            ...    937
   # of shells in Aux-J                     ...    385
   Maximum angular momentum in Aux-J        ...      2
Auxiliary J/K fitting basis                 ... NOT available
Auxiliary Correlation fitting basis         ... NOT available
Auxiliary 'external' fitting basis          ... NOT available
Integral threshold                          ...     1.000000e-10
Primitive cut-off                           ...     1.000000e-11
Primitive pair pre-selection threshold      ...     1.000000e-11

Calculating pre-screening integrals         ... done (  0.3 sec) Dimension = 287
Organizing shell pair data                  ... done (  0.3 sec)
Shell pair information
Total number of shell pairs                 ...     41328
Shell pairs after pre-screening             ...     24787
Total number of primitive shell pairs       ...    149932
Primitive shell pairs kept                  ...     56003
          la=0 lb=0:   7006 shell pairs
          la=1 lb=0:   8949 shell pairs
          la=1 lb=1:   2869 shell pairs
          la=2 lb=0:   3395 shell pairs
          la=2 lb=1:   2148 shell pairs
          la=2 lb=2:    420 shell pairs

Calculating one electron integrals          ... done (  0.1 sec)
Calculating RI/J V-Matrix + Cholesky decomp.... done (  0.2 sec)
Calculating Nuclear repulsion               ... done (  0.0 sec) ENN=   2206.432375269344 Eh

SHARK setup successfully completed in   1.0 seconds

Maximum memory used throughout the entire GTOINT-calculation: 37.3 MB


           ************************************************************
           *        Program running with 4 parallel MPI-processes     *
           *              working on a common directory               *
           ************************************************************
-------------------------------------------------------------------------------
                                 ORCA SCF
-------------------------------------------------------------------------------

------------
SCF SETTINGS
------------
Hamiltonian:
 Density Functional     Method          .... DFT(GTOs)
  Functional kind                       .... Exchange
  Functional name                       .... Re-regularized SCAN exchange by Furness et al
  Functional family                     .... MGGA
  Functional refs                              
    [ 0] J. W. Furness, A. D. Kaplan, J. Ning, J. P. Perdew, and J. Sun, J. Phys. Chem. Lett. 11, 8208 (2020)
    [ 1] J. W. Furness, A. D. Kaplan, J. Ning, J. P. Perdew, and J. Sun, J. Phys. Chem. Lett. 11, 9248 (2020)
  Functional external parameters         .... 8
 Parameter  0 :         c1 parameter
 Parameter  1 :         c2 parameter
 Parameter  2 :          d parameter
 Parameter  3 :         k1 parameter
 Parameter  4 :       taur parameter
 Parameter  5 :     alphar parameter
 Parameter  6 :        eta parameter
 Parameter  7 :        dp2 parameter
  Functional kind                       .... Correlation
  Functional name                       .... Re-regularized SCAN correlation by Furness et al
  Functional family                     .... MGGA
  Functional refs                              
    [ 0] J. W. Furness, A. D. Kaplan, J. Ning, J. P. Perdew, and J. Sun, J. Phys. Chem. Lett. 11, 8208 (2020)
    [ 1] J. W. Furness, A. D. Kaplan, J. Ning, J. P. Perdew, and J. Sun, J. Phys. Chem. Lett. 11, 9248 (2020)
  Functional external parameters         .... 0
 Gradients option       PostSCFGGA      .... off
   Density functional embedding theory  .... OFF
 RI-approximation to the Coulomb term is turned on
   Number of AuxJ basis functions       .... 937


General Settings:
 Integral files         IntName         .... /lustre/hpc/kemi/ree/PhD/git/ReactivityQM/calculations/R02deprot/reac01prodE10/conf05/gfn1/orca_calc
 Hartree-Fock type      HFTyp           .... RHF
 Total Charge           Charge          ....   -2
 Multiplicity           Mult            ....    1
 Number of Electrons    NEL             ....  186
 Basis Dimension        Dim             ....  615
 Nuclear Repulsion      ENuc            ....   2206.4323752693 Eh

Convergence Acceleration:
 DIIS                   CNVDIIS         .... on
   Start iteration      DIISMaxIt       ....    12
   Startup error        DIISStart       ....  0.200000
   # of expansion vecs  DIISMaxEq       ....     5
   Bias factor          DIISBfac        ....   1.050
   Max. coefficient     DIISMaxC        ....  10.000
 Trust-Rad. Augm. Hess. CNVTRAH         .... auto
   Auto Start mean grad. ratio tolernc. ....  1.125000
   Auto Start start iteration           ....    20
   Auto Start num. interpolation iter.  ....    10
   Max. Number of Micro iterations      ....    16
   Max. Number of Macro iterations      .... Maxiter - #DIIS iter
   Number of Davidson start vectors     ....     2
   Converg. threshold I  (grad. norm)   ....   5.000e-05
   Converg. threshold II (energy diff.) ....   1.000e-06
   Grad. Scal. Fac. for Micro threshold ....   0.100
   Minimum threshold for Micro iter.    ....   0.010
   NR start threshold (gradient norm)   ....   0.001
   Initial trust radius                 ....   0.400
   Minimum AH scaling param. (alpha)    ....   1.000
   Maximum AH scaling param. (alpha)    .... 1000.000
   Orbital update algorithm             .... Taylor
   White noise on init. David. guess    .... on
   Maximum white noise                  ....   0.010
   Quad. conv. algorithm                .... NR
   COSX micro iterations for RIJONX calc.... off
 SOSCF                  CNVSOSCF        .... on
   Start iteration      SOSCFMaxIt      ....   150
   Startup grad/error   SOSCFStart      ....  0.003300
 Level Shifting         CNVShift        .... on
   Level shift para.    LevelShift      ....    0.2500
   Turn off err/grad.   ShiftErr        ....    0.0010
 Zerner damping         CNVZerner       .... off
 Static damping         CNVDamp         .... on
   Fraction old density DampFac         ....    0.7000
   Max. Damping (<1)    DampMax         ....    0.9800
   Min. Damping (>=0)   DampMin         ....    0.0000
   Turn off err/grad.   DampErr         ....    0.1000
 Fernandez-Rico         CNVRico         .... off

SCF Procedure:
 Maximum # iterations   MaxIter         ....   125
 SCF integral mode      SCFMode         .... Direct
   Integral package                     .... SHARK and LIBINT hybrid scheme
 Reset frequency        DirectResetFreq ....    20
 Integral Threshold     Thresh          ....  1.000e-10 Eh
 Primitive CutOff       TCut            ....  1.000e-11 Eh

Convergence Tolerance:
 Convergence Check Mode ConvCheckMode   .... Total+1el-Energy
 Convergence forced     ConvForced      .... 0
 Energy Change          TolE            ....  1.000e-06 Eh
 1-El. energy change                    ....  1.000e-03 Eh
 Orbital Gradient       TolG            ....  5.000e-05
 Orbital Rotation angle TolX            ....  5.000e-05
 DIIS Error             TolErr          ....  1.000e-06


Diagonalization of the overlap matrix:
Smallest eigenvalue                        ... 1.551e-05
Time for diagonalization                   ...    0.107 sec
Threshold for overlap eigenvalues          ... 1.000e-08
Number of eigenvalues below threshold      ... 0
Time for construction of square roots      ...    0.064 sec
Total time needed                          ...    0.174 sec

Time for model grid setup =    0.921 sec

------------------------------
INITIAL GUESS: MODEL POTENTIAL
------------------------------
Loading Hartree-Fock densities                     ... done
Calculating cut-offs                               ... done
Initializing the effective Hamiltonian             ... done
Setting up the integral package (SHARK)            ... done
Starting the Coulomb interaction                   ... done (   1.2 sec)
Reading the grid                                   ... done
Mapping shells                                     ... done
Starting the XC term evaluation                    ... done (   0.6 sec)
  promolecular density results
     # of electrons  =    183.994314063
     EX              =   -158.241900838
     EC              =     -6.240368188
     EX+EC           =   -164.482269026
Transforming the Hamiltonian                       ... done (   0.1 sec)
Diagonalizing the Hamiltonian                      ... done (   0.1 sec)
Back transforming the eigenvectors                 ... done (   0.0 sec)
Now organizing SCF variables                       ... done
                      ------------------
                      INITIAL GUESS DONE (   3.0 sec)
                      ------------------
-------------------
DFT GRID GENERATION
-------------------

General Integration Accuracy     IntAcc      ... 4.388
Radial Grid Type                 RadialGrid  ... OptM3 with GC (2021)
Angular Grid (max. ang.)         AngularGrid ... 4 (Lebedev-302)
Angular grid pruning method      GridPruning ... 4 (adaptive)
Weight generation scheme         WeightScheme... Becke
Basis function cutoff            BFCut       ... 1.0000e-10
Integration weight cutoff        WCut        ... 1.0000e-14
Angular grids for H and He will be reduced by one unit
Partially contracted basis set               ... off
Rotationally invariant grid construction     ... off

Total number of grid points                  ...   206144
Total number of batches                      ...     3242
Average number of points per batch           ...       63
Average number of grid points per atom       ...     4908
Time for grid setup =    3.024 sec


--------------------
CPCM SOLVATION MODEL
--------------------
CPCM parameters:
  Epsilon                                         ...      46.8260
  Refrac                                          ...       1.4170
  Rsolv                                           ...       1.3000
  Surface type                                    ... GAUSSIAN VDW
  Epsilon function type                           ...         CPCM
Solvent:                                     ... DMSO
SMD-CDS solvent descriptors:
  Soln                                       ...    1.4170
  Soln25                                     ...    1.4773
  Sola                                       ...    0.0000
  Solb                                       ...    0.8800
  Solg                                       ...   61.7800
  Solc                                       ...    0.0000
  Solh                                       ...    0.0000
Radii:
 Radius for C  used is    3.4960 Bohr (=   1.8500 Ang.)
 Radius for O  used is    4.3350 Bohr (=   2.2940 Ang.)
 Radius for N  used is    3.5716 Bohr (=   1.8900 Ang.)
 Radius for H  used is    2.2677 Bohr (=   1.2000 Ang.)
Calculating surface                               ...        done! (  0.0s)
GEPOL surface points                              ...         2120
GEPOL Volume                                      ...    2871.5510
GEPOL Surface-area                                ...    1449.6362
Calculating surface distance matrix               ...        done! (  0.1s)
Performing Cholesky decomposition & store         ...        done! (  0.2s)
Overall time for CPCM initialization              ...                 0.3s
--------------
SCF ITERATIONS
--------------
ITER       Energy         Delta-E        Max-DP      RMS-DP      [F,P]     Damp
               ***  Starting incremental Fock matrix formation  ***
  0  -1267.9748780476   0.000000000000 1.01429560  0.00574242  0.3486760 0.7000
  1  -1268.3880607380  -0.413182690404 0.86797687  0.00465995  0.1170992 0.7000
                               ***Turning on DIIS***
  2  -1268.5233689057  -0.135308167701 1.14389728  0.00544223  0.0416893 0.0000
  3  -1268.7588562544  -0.235487348718 0.77014218  0.00437001  0.0684679 0.0000
  4  -1268.8079111177  -0.049054863227 0.20620367  0.00109347  0.0263652 0.0000
  5  -1268.8147891929  -0.006878075200 0.11187836  0.00053617  0.0057083 0.0000
  6  -1268.8155328025  -0.000743609644 0.03468106  0.00020126  0.0040602 0.0000
  7  -1268.8161080743  -0.000575271837 0.01204926  0.00011884  0.0013350 0.0000
  8  -1268.8165870141  -0.000478939791 0.02952875  0.00014630  0.0010425 0.0000
  9  -1268.8169927039  -0.000405689824 0.02598314  0.00012712  0.0010835 0.0000
 10  -1268.8173429208  -0.000350216874 0.36047752  0.00371512  0.0009790 0.0000
 11  -1268.5131431415   0.304199779294 0.00090313  0.00000339  0.1013729 0.7000
 12  -1268.5132856282  -0.000142486652 0.00086622  0.00000551  0.1014251 0.7000
 13  -1268.5130616412   0.000223986943 0.00820765  0.00003321  0.1016486 0.7000
 14  -1268.5115408896   0.001520751604 0.00830168  0.00003432  0.1022252 0.7000
 15  -1268.5100276621   0.001513227513 0.79379833  0.00274182  0.1027620 0.7000
 16  -1268.7051458723  -0.195118210140 1.50454220  0.00546115  0.0165729 0.0000
 17  -1268.6465723648   0.058573507461 0.40929419  0.00142464  0.0998320 0.0000
 18  -1268.7121726809  -0.065600316063 0.42811372  0.00133580  0.0797838 0.0000
 19  -1268.7460922036  -0.033919522737 0.31897782  0.00100951  0.0629666 0.0000
               *** Restarting incremental Fock matrix formation ***
                                   *** Resetting DIIS ***

 WARNING: the maximum gradient error descreased on average only by a factor   1.1
          during the last 20 iterations

                      *** Initiating the TRAH-SCF procedure ***


TRAH GRID
---------

General Integration Accuracy     IntAcc      ... 3.467
Radial Grid Type                 RadialGrid  ... OptM3 with GC (2021)
Angular Grid (max. ang.)         AngularGrid ... 1 (Lebedev-50)
Angular grid pruning method      GridPruning ... 4 (adaptive)
Weight generation scheme         WeightScheme... Becke
Basis function cutoff            BFCut       ... 1.0000e-10
Integration weight cutoff        WCut        ... 1.0000e-14
Angular grids for H and He will be reduced by one unit
Partially contracted basis set               ... off
Rotationally invariant grid construction     ... off

Total number of grid points                  ...    30371
Total number of batches                      ...      498
Average number of points per batch           ...       60
Average number of grid points per atom       ...      723

 --------------------------------------------------------------------------------------------
   Iter.        energy            ||Error||_2        Shift      TRadius  Mac/Mic        Rej.
 --------------------------------------------------------------------------------------------
WARNING: 4 diagonal Hessian elements are negative!
    0      -1268.766195495691     7.395366e-01                     0.400 (TRAH MAcro)   No
WARNING : negative HOMO - LUMO gap : -0.133368
    0     dE    -2.981166e-02     8.299138e-01    -5.9243e-02      0.080 (TRAH MIcro)
    0     dE    -4.502447e-02     2.511289e-01    -8.7207e-02      0.181 (TRAH MIcro)
    0     dE    -4.804235e-02     8.630009e-02    -9.3155e-02      0.177 (TRAH MIcro)
    0     dE    -4.889800e-02     9.722069e-02    -9.4555e-02      0.185 (TRAH MIcro)
    0     dE    -8.118268e-02     3.810530e-01    -4.2828e-01      0.400 (TRAH MIcro)
    0     dE    -5.021499e-02     1.422093e-01    -7.0063e-01      0.169 (TRAH MIcro)
    0     dE    -4.964989e-02     2.095384e-02    -7.0800e-01      0.159 (TRAH MIcro)
    0     dE    -4.948460e-02     7.297024e-03    -7.0835e-01      0.158 (TRAH MIcro)
WARNING: 1 diagonal Hessian elements are negative!
    1      -1268.813581880513     7.818270e-02                     0.480 (TRAH MAcro)   No
WARNING : negative HOMO - LUMO gap : -0.032782
    1     dE    -7.351501e-04     2.247410e-01    -1.4698e-03      0.019 (TRAH MIcro)
    1     dE    -1.424750e-03     1.187289e-01    -2.8407e-03      0.056 (TRAH MIcro)
    1     dE    -2.173345e-03     9.529757e-02    -4.3141e-03      0.087 (TRAH MIcro)
    1     dE    -3.755021e-03     2.270847e-01    -7.2600e-03      0.186 (TRAH MIcro)
    1     dE    -1.935296e-02     1.742546e-01    -1.1276e-01      0.480 (TRAH MIcro)
    1     dE    -2.031463e-02     8.594175e-02    -1.2182e-01      0.480 (TRAH MIcro)
    1     dE    -2.051322e-02     2.881221e-02    -1.2367e-01      0.480 (TRAH MIcro)
    1     dE    -2.053410e-02     8.326718e-03    -1.2385e-01      0.480 (TRAH MIcro)
    1     dE    -2.053692e-02     2.920500e-03    -1.2387e-01      0.480 (TRAH MIcro)
 ---------------------------------
          TRAH Step control 
 ---------------------------------
  predicted energy change = -0.020537
  actual energy  change   = 0.011513
  energy change ratio     = -0.560600
  old trust radius        = 0.480000
  new trust radius        = 0.336000
  reject step?            =  1
    2      -1268.813581880513     7.395366e-01                     0.336 (TRAH MAcro)  Yes
WARNING: 1 diagonal Hessian elements are negative!
    3      -1268.813581880513     7.818270e-02                     0.336 (TRAH MAcro)   No
WARNING : negative HOMO - LUMO gap : -0.032782
    3     dE    -7.361518e-04     2.245749e-01    -1.4718e-03      0.019 (TRAH MIcro)
    3     dE    -1.426440e-03     1.183117e-01    -2.8440e-03      0.056 (TRAH MIcro)
    3     dE    -2.174878e-03     9.555762e-02    -4.3171e-03      0.087 (TRAH MIcro)
    3     dE    -3.759571e-03     2.275501e-01    -7.2681e-03      0.186 (TRAH MIcro)
    3     dE    -1.225234e-02     1.222965e-01    -1.3254e-01      0.336 (TRAH MIcro)
    3     dE    -1.231221e-02     5.948517e-02    -1.4284e-01      0.328 (TRAH MIcro)
    3     dE    -8.248153e-03     2.277061e-02    -1.7203e-01      0.233 (TRAH MIcro)
    3     dE    -8.243929e-03     6.473991e-03    -1.7217e-01      0.233 (TRAH MIcro)
    4      -1268.818091855644     7.734081e-02                     0.336 (TRAH MAcro)   No
WARNING : small    HOMO - LUMO gap : 0.009200
    4     dE    -2.655997e-04     1.538932e-01    -5.3117e-04      0.007 (TRAH MIcro)
    4     dE    -3.476705e-04     7.884111e-02    -6.9508e-04      0.019 (TRAH MIcro)
    4     dE    -4.723019e-04     1.043705e-02    -9.4428e-04      0.019 (TRAH MIcro)
    4     dE    -4.786398e-04     6.352230e-03    -9.5694e-04      0.019 (TRAH MIcro)
    5      -1268.818572174386     6.495104e-03                     0.403 (TRAH MAcro)   No
WARNING : small    HOMO - LUMO gap : 0.003061
    5     dE    -1.660458e-07     5.666021e-03    -3.3221e-07      0.000 (TRAH MIcro)
    5     dE    -6.984073e-07     3.735671e-03    -1.3968e-06      0.001 (TRAH MIcro)
    5     dE    -1.012617e-06     2.624645e-03    -2.0252e-06      0.001 (TRAH MIcro)
    5     dE    -1.408620e-06     1.013753e-03    -2.8172e-06      0.001 (TRAH MIcro)
    5     dE    -1.477894e-06     3.893611e-04    -2.9558e-06      0.001 (TRAH MIcro)
    6      -1268.818573648652     3.901183e-04                           (NR   MAcro)
WARNING : small    HOMO - LUMO gap : 0.003042
    6     dE    -8.942086e-09     1.660395e-04                           (NR   MIcro)
    6     dE    -1.011161e-08     1.296848e-04                           (NR   MIcro)
    6     dE    -1.134122e-08     6.831235e-05                           (NR   MIcro)
    6     dE    -1.161967e-08     4.102882e-05                           (NR   MIcro)
    6     dE    -1.173228e-08     1.931564e-05                           (NR   MIcro)
    6     dE    -1.175273e-08     6.504356e-06                           (NR   MIcro)
    6     dE    -1.175491e-08     2.383612e-06                           (NR   MIcro)
    7      -1268.818573660409     4.075601e-06                           (NR   MAcro)
WARNING : small    HOMO - LUMO gap : 0.003042

               *****************************************************
               *                     SUCCESS                       *
               *           SCF CONVERGED AFTER  68 CYCLES          *
               *****************************************************


SMD CDS free energy correction energy :                -1.29746     Kcal/mol
Total Energy after SMD CDS correction =             -1268.820641302 Eh

----------------
TOTAL SCF ENERGY
----------------

Total Energy       :        -1268.82064130 Eh          -34526.36494 eV

Components:
Nuclear Repulsion  :         2206.43237527 Eh           60040.07731 eV
Electronic Energy  :        -3475.25301657 Eh          -94566.44225 eV
One Electron Energy:        -6167.93666836 Eh         -167838.08947 eV
Two Electron Energy:         2692.68365179 Eh           73271.64722 eV
CPCM Dielectric    :           -0.29886262 Eh              -8.13247 eV
SMD CDS (Gcds)     :           -0.00206764 Eh              -0.05626 eV

Virial components:
Potential Energy   :        -2532.47384346 Eh          -68912.11670 eV
Kinetic Energy     :         1263.65320216 Eh           34385.75177 eV
Virial Ratio       :            2.00408929


DFT components:
N(Alpha)           :       92.999982592274 electrons
N(Beta)            :       92.999982592274 electrons
N(Total)           :      185.999965184547 electrons
E(X)               :     -162.361888464475 Eh       
E(C)               :       -6.195360062956 Eh       
E(XC)              :     -168.557248527432 Eh       
DFET-embed. en.    :        0.000000000000 Eh       
CPCM Solvation Model Properties:
Surface-charge          :            1.96103088
Charge-correction       :           -0.00745205 Eh              -0.20278 eV
Free-energy (cav+disp)  :           -0.00206764 Eh              -0.05626 eV

---------------
SCF CONVERGENCE
---------------

  Last Energy change         ...   -1.1757e-08  Tolerance :   1.0000e-06
  Last Orbital Gradient      ...    4.0756e-06  Tolerance :   5.0000e-05
  Last Orbital Rotation      ...    1.6397e-04

             **** THE GBW FILE WAS UPDATED (/lustre/hpc/kemi/ree/PhD/git/ReactivityQM/calculations/R02deprot/reac01prodE10/conf05/gfn1/orca_calc.gbw) ****
             **** DENSITY /lustre/hpc/kemi/ree/PhD/git/ReactivityQM/calculations/R02deprot/reac01prodE10/conf05/gfn1/orca_calc.scfp WAS UPDATED ****
             **** ENERGY FILE WAS UPDATED (/lustre/hpc/kemi/ree/PhD/git/ReactivityQM/calculations/R02deprot/reac01prodE10/conf05/gfn1/orca_calc.en.tmp) ****
             **** THE GBW FILE WAS UPDATED (/lustre/hpc/kemi/ree/PhD/git/ReactivityQM/calculations/R02deprot/reac01prodE10/conf05/gfn1/orca_calc.gbw) ****
             **** DENSITY /lustre/hpc/kemi/ree/PhD/git/ReactivityQM/calculations/R02deprot/reac01prodE10/conf05/gfn1/orca_calc.scfp WAS UPDATED ****
----------------
ORBITAL ENERGIES
----------------

  NO   OCC          E(Eh)            E(eV) 
   0   2.0000     -18.980947      -516.4978 
   1   2.0000     -18.974599      -516.3251 
   2   2.0000     -18.950997      -515.6829 
   3   2.0000     -18.918291      -514.7929 
   4   2.0000     -18.863897      -513.3127 
   5   2.0000     -18.839091      -512.6377 
   6   2.0000     -14.248053      -387.7092 
   7   2.0000     -14.142740      -384.8435 
   8   2.0000     -14.115752      -384.1092 
   9   2.0000     -14.109631      -383.9426 
  10   2.0000     -14.106153      -383.8479 
  11   2.0000     -10.129044      -275.6253 
  12   2.0000     -10.107146      -275.0294 
  13   2.0000     -10.076194      -274.1872 
  14   2.0000     -10.065602      -273.8989 
  15   2.0000     -10.062875      -273.8248 
  16   2.0000     -10.059793      -273.7409 
  17   2.0000     -10.057283      -273.6726 
  18   2.0000     -10.050005      -273.4745 
  19   2.0000     -10.049007      -273.4474 
  20   2.0000     -10.046595      -273.3817 
  21   2.0000     -10.041833      -273.2522 
  22   2.0000     -10.033902      -273.0363 
  23   2.0000      -9.994051      -271.9520 
  24   2.0000      -9.987560      -271.7753 
  25   2.0000      -1.065439       -28.9921 
  26   2.0000      -1.043102       -28.3842 
  27   2.0000      -0.994989       -27.0750 
  28   2.0000      -0.958367       -26.0785 
  29   2.0000      -0.952584       -25.9211 
  30   2.0000      -0.936502       -25.4835 
  31   2.0000      -0.909228       -24.7414 
  32   2.0000      -0.891593       -24.2615 
  33   2.0000      -0.827239       -22.5103 
  34   2.0000      -0.796741       -21.6804 
  35   2.0000      -0.791642       -21.5417 
  36   2.0000      -0.726330       -19.7644 
  37   2.0000      -0.713501       -19.4153 
  38   2.0000      -0.692650       -18.8480 
  39   2.0000      -0.670161       -18.2360 
  40   2.0000      -0.665188       -18.1007 
  41   2.0000      -0.629489       -17.1293 
  42   2.0000      -0.624500       -16.9935 
  43   2.0000      -0.600852       -16.3500 
  44   2.0000      -0.579916       -15.7803 
  45   2.0000      -0.543478       -14.7888 
  46   2.0000      -0.524089       -14.2612 
  47   2.0000      -0.521329       -14.1861 
  48   2.0000      -0.493260       -13.4223 
  49   2.0000      -0.470584       -12.8053 
  50   2.0000      -0.465702       -12.6724 
  51   2.0000      -0.458550       -12.4778 
  52   2.0000      -0.456702       -12.4275 
  53   2.0000      -0.441433       -12.0120 
  54   2.0000      -0.429731       -11.6936 
  55   2.0000      -0.428610       -11.6631 
  56   2.0000      -0.418439       -11.3863 
  57   2.0000      -0.404191       -10.9986 
  58   2.0000      -0.393646       -10.7117 
  59   2.0000      -0.387448       -10.5430 
  60   2.0000      -0.385194       -10.4817 
  61   2.0000      -0.381641       -10.3850 
  62   2.0000      -0.375801       -10.2261 
  63   2.0000      -0.370526       -10.0825 
  64   2.0000      -0.367332        -9.9956 
  65   2.0000      -0.363417        -9.8891 
  66   2.0000      -0.360535        -9.8107 
  67   2.0000      -0.347556        -9.4575 
  68   2.0000      -0.346699        -9.4341 
  69   2.0000      -0.342654        -9.3241 
  70   2.0000      -0.337159        -9.1746 
  71   2.0000      -0.326191        -8.8761 
  72   2.0000      -0.320559        -8.7229 
  73   2.0000      -0.310310        -8.4440 
  74   2.0000      -0.304687        -8.2909 
  75   2.0000      -0.302196        -8.2232 
  76   2.0000      -0.300387        -8.1740 
  77   2.0000      -0.294042        -8.0013 
  78   2.0000      -0.292305        -7.9540 
  79   2.0000      -0.286230        -7.7887 
  80   2.0000      -0.279446        -7.6041 
  81   2.0000      -0.254764        -6.9325 
  82   2.0000      -0.254004        -6.9118 
  83   2.0000      -0.240568        -6.5462 
  84   2.0000      -0.235382        -6.4051 
  85   2.0000      -0.217624        -5.9219 
  86   2.0000      -0.200247        -5.4490 
  87   2.0000      -0.185235        -5.0405 
  88   2.0000      -0.182048        -4.9538 
  89   2.0000      -0.175664        -4.7800 
  90   2.0000      -0.160217        -4.3597 
  91   2.0000      -0.156492        -4.2584 
  92   2.0000      -0.058423        -1.5898 
  93   0.0000      -0.055381        -1.5070 
  94   0.0000      -0.011657        -0.3172 
  95   0.0000       0.012637         0.3439 
  96   0.0000       0.057723         1.5707 
  97   0.0000       0.062216         1.6930 
  98   0.0000       0.067706         1.8424 
  99   0.0000       0.094314         2.5664 
 100   0.0000       0.098295         2.6747 
 101   0.0000       0.108235         2.9452 
 102   0.0000       0.112421         3.0591 
 103   0.0000       0.116727         3.1763 
 104   0.0000       0.122828         3.3423 
 105   0.0000       0.125992         3.4284 
 106   0.0000       0.128595         3.4992 
 107   0.0000       0.139286         3.7902 
 108   0.0000       0.148842         4.0502 
 109   0.0000       0.152566         4.1515 
 110   0.0000       0.154748         4.2109 
 111   0.0000       0.157487         4.2854 
 112   0.0000       0.160786         4.3752 
 113   0.0000       0.165862         4.5133 
 114   0.0000       0.166954         4.5431 
 115   0.0000       0.168460         4.5840 
 116   0.0000       0.169618         4.6155 
 117   0.0000       0.177801         4.8382 
 118   0.0000       0.178696         4.8626 
 119   0.0000       0.180941         4.9237 
 120   0.0000       0.184512         5.0208 
 121   0.0000       0.188642         5.1332 
 122   0.0000       0.195172         5.3109 
 123   0.0000       0.196540         5.3481 
 124   0.0000       0.201080         5.4717 
 125   0.0000       0.204528         5.5655 
 126   0.0000       0.207414         5.6440 
 127   0.0000       0.209627         5.7042 
 128   0.0000       0.215839         5.8733 
 129   0.0000       0.216817         5.8999 
 130   0.0000       0.220721         6.0061 
 131   0.0000       0.225452         6.1349 
 132   0.0000       0.229018         6.2319 
 133   0.0000       0.232150         6.3171 
 134   0.0000       0.236722         6.4415 
 135   0.0000       0.243309         6.6208 
 136   0.0000       0.244968         6.6659 
 137   0.0000       0.249935         6.8011 
 138   0.0000       0.253906         6.9091 
 139   0.0000       0.255356         6.9486 
 140   0.0000       0.257795         7.0150 
 141   0.0000       0.264267         7.1911 
 142   0.0000       0.268546         7.3075 
 143   0.0000       0.273848         7.4518 
 144   0.0000       0.278788         7.5862 
 145   0.0000       0.286212         7.7882 
 146   0.0000       0.290731         7.9112 
 147   0.0000       0.294071         8.0021 
 148   0.0000       0.297542         8.0965 
 149   0.0000       0.305254         8.3064 
 150   0.0000       0.308243         8.3877 
 151   0.0000       0.316259         8.6059 
 152   0.0000       0.320341         8.7169 
 153   0.0000       0.327327         8.9070 
 154   0.0000       0.328648         8.9430 
 155   0.0000       0.334563         9.1039 
 156   0.0000       0.336162         9.1474 
 157   0.0000       0.340589         9.2679 
 158   0.0000       0.342878         9.3302 
 159   0.0000       0.343846         9.3565 
 160   0.0000       0.353548         9.6205 
 161   0.0000       0.357459         9.7270 
 162   0.0000       0.363245         9.8844 
 163   0.0000       0.363655         9.8956 
 164   0.0000       0.371476        10.1084 
 165   0.0000       0.376097        10.2341 
 166   0.0000       0.377001        10.2587 
 167   0.0000       0.382197        10.4001 
 168   0.0000       0.387263        10.5380 
 169   0.0000       0.392547        10.6817 
 170   0.0000       0.396240        10.7822 
 171   0.0000       0.400450        10.8968 
 172   0.0000       0.407107        11.0780 
 173   0.0000       0.416158        11.3242 
 174   0.0000       0.422423        11.4947 
 175   0.0000       0.429851        11.6968 
 176   0.0000       0.431213        11.7339 
 177   0.0000       0.439416        11.9571 
 178   0.0000       0.440664        11.9911 
 179   0.0000       0.448357        12.2004 
 180   0.0000       0.454756        12.3745 
 181   0.0000       0.461064        12.5462 
 182   0.0000       0.461997        12.5716 
 183   0.0000       0.472122        12.8471 
 184   0.0000       0.476701        12.9717 
 185   0.0000       0.481831        13.1113 
 186   0.0000       0.488203        13.2847 
 187   0.0000       0.490875        13.3574 
 188   0.0000       0.499016        13.5789 
 189   0.0000       0.501669        13.6511 
 190   0.0000       0.504747        13.7349 
 191   0.0000       0.514434        13.9985 
 192   0.0000       0.517059        14.0699 
 193   0.0000       0.522236        14.2108 
 194   0.0000       0.533609        14.5202 
 195   0.0000       0.538363        14.6496 
 196   0.0000       0.539605        14.6834 
 197   0.0000       0.551612        15.0101 
 198   0.0000       0.555768        15.1232 
 199   0.0000       0.560891        15.2626 
 200   0.0000       0.565944        15.4001 
 201   0.0000       0.570152        15.5146 
 202   0.0000       0.574377        15.6296 
 203   0.0000       0.581719        15.8294 
 204   0.0000       0.583510        15.8781 
 205   0.0000       0.590746        16.0750 
 206   0.0000       0.601748        16.3744 
 207   0.0000       0.609100        16.5745 
 208   0.0000       0.609822        16.5941 
 209   0.0000       0.615930        16.7603 
 210   0.0000       0.620149        16.8751 
 211   0.0000       0.623822        16.9750 
 212   0.0000       0.629062        17.1177 
 213   0.0000       0.640807        17.4372 
 214   0.0000       0.642564        17.4851 
 215   0.0000       0.645975        17.5779 
 216   0.0000       0.649013        17.6605 
 217   0.0000       0.656329        17.8596 
 218   0.0000       0.663877        18.0650 
 219   0.0000       0.666402        18.1337 
 220   0.0000       0.673571        18.3288 
 221   0.0000       0.675589        18.3837 
 222   0.0000       0.678319        18.4580 
 223   0.0000       0.685473        18.6527 
 224   0.0000       0.692452        18.8426 
 225   0.0000       0.694105        18.8875 
 226   0.0000       0.698254        19.0004 
 227   0.0000       0.709129        19.2964 
 228   0.0000       0.719695        19.5839 
 229   0.0000       0.721318        19.6281 
 230   0.0000       0.728896        19.8343 
 231   0.0000       0.735351        20.0099 
 232   0.0000       0.741890        20.1879 
 233   0.0000       0.742888        20.2150 
 234   0.0000       0.750615        20.4253 
 235   0.0000       0.755122        20.5479 
 236   0.0000       0.762465        20.7477 
 237   0.0000       0.766100        20.8467 
 238   0.0000       0.770795        20.9744 
 239   0.0000       0.774602        21.0780 
 240   0.0000       0.779869        21.2213 
 241   0.0000       0.784854        21.3570 
 242   0.0000       0.790676        21.5154 
 243   0.0000       0.796185        21.6653 
 244   0.0000       0.803949        21.8766 
 245   0.0000       0.807408        21.9707 
 246   0.0000       0.818080        22.2611 
 247   0.0000       0.823477        22.4079 
 248   0.0000       0.830543        22.6002 
 249   0.0000       0.834035        22.6952 
 250   0.0000       0.843618        22.9560 
 251   0.0000       0.847201        23.0535 
 252   0.0000       0.851980        23.1835 
 253   0.0000       0.859171        23.3792 
 254   0.0000       0.866045        23.5663 
 255   0.0000       0.873692        23.7744 
 256   0.0000       0.875367        23.8200 
 257   0.0000       0.880899        23.9705 
 258   0.0000       0.884649        24.0725 
 259   0.0000       0.898457        24.4483 
 260   0.0000       0.906647        24.6711 
 261   0.0000       0.915688        24.9171 
 262   0.0000       0.919139        25.0111 
 263   0.0000       0.923465        25.1287 
 264   0.0000       0.928531        25.2666 
 265   0.0000       0.943811        25.6824 
 266   0.0000       0.951025        25.8787 
 267   0.0000       0.956551        26.0291 
 268   0.0000       0.966704        26.3054 
 269   0.0000       0.968478        26.3536 
 270   0.0000       0.973150        26.4808 
 271   0.0000       0.978332        26.6218 
 272   0.0000       0.992801        27.0155 
 273   0.0000       0.998375        27.1672 
 274   0.0000       1.007105        27.4047 
 275   0.0000       1.020304        27.7639 
 276   0.0000       1.023622        27.8542 
 277   0.0000       1.038700        28.2645 
 278   0.0000       1.046467        28.4758 
 279   0.0000       1.048654        28.5353 
 280   0.0000       1.057625        28.7794 
 281   0.0000       1.075418        29.2636 
 282   0.0000       1.079771        29.3821 
 283   0.0000       1.083136        29.4736 
 284   0.0000       1.097928        29.8762 
 285   0.0000       1.110146        30.2086 
 286   0.0000       1.126438        30.6519 
 287   0.0000       1.129394        30.7324 
 288   0.0000       1.134920        30.8827 
 289   0.0000       1.138968        30.9929 
 290   0.0000       1.145934        31.1825 
 291   0.0000       1.155203        31.4347 
 292   0.0000       1.157350        31.4931 
 293   0.0000       1.165775        31.7223 
 294   0.0000       1.180834        32.1321 
 295   0.0000       1.187046        32.3012 
 296   0.0000       1.192978        32.4626 
 297   0.0000       1.209052        32.9000 
 298   0.0000       1.213648        33.0251 
 299   0.0000       1.219415        33.1820 
 300   0.0000       1.222699        33.2713 
 301   0.0000       1.240192        33.7473 
 302   0.0000       1.245014        33.8785 
 303   0.0000       1.255739        34.1704 
 304   0.0000       1.262118        34.3440 
 305   0.0000       1.273430        34.6518 
 306   0.0000       1.286752        35.0143 
 307   0.0000       1.295905        35.2634 
 308   0.0000       1.299702        35.3667 
 309   0.0000       1.311020        35.6747 
 310   0.0000       1.322527        35.9878 
 311   0.0000       1.323569        36.0161 
 312   0.0000       1.337407        36.3927 
 313   0.0000       1.342289        36.5255 
 314   0.0000       1.345320        36.6080 
 315   0.0000       1.353384        36.8275 
 316   0.0000       1.361884        37.0587 
 317   0.0000       1.369886        37.2765 
 318   0.0000       1.384416        37.6719 
 319   0.0000       1.393412        37.9167 
 320   0.0000       1.401079        38.1253 
 321   0.0000       1.407772        38.3074 
 322   0.0000       1.417522        38.5727 
 323   0.0000       1.431739        38.9596 
 324   0.0000       1.441445        39.2237 
 325   0.0000       1.448723        39.4218 
 326   0.0000       1.456833        39.6424 
 327   0.0000       1.469327        39.9824 
 328   0.0000       1.481633        40.3173 
 329   0.0000       1.486690        40.4549 
 330   0.0000       1.496945        40.7339 
 331   0.0000       1.505923        40.9783 
 332   0.0000       1.508250        41.0416 
 333   0.0000       1.522081        41.4179 
 334   0.0000       1.546503        42.0825 
 335   0.0000       1.557414        42.3794 
 336   0.0000       1.562692        42.5230 
 337   0.0000       1.586371        43.1674 
 338   0.0000       1.606989        43.7284 
 339   0.0000       1.615388        43.9569 
 340   0.0000       1.619061        44.0569 
 341   0.0000       1.623029        44.1649 
 342   0.0000       1.642062        44.6828 
 343   0.0000       1.653507        44.9942 
 344   0.0000       1.657996        45.1164 
 345   0.0000       1.673127        45.5281 
 346   0.0000       1.686203        45.8839 
 347   0.0000       1.696843        46.1735 
 348   0.0000       1.703177        46.3458 
 349   0.0000       1.733258        47.1643 
 350   0.0000       1.736351        47.2485 
 351   0.0000       1.740164        47.3523 
 352   0.0000       1.745122        47.4872 
 353   0.0000       1.761423        47.9308 
 354   0.0000       1.776250        48.3342 
 355   0.0000       1.778307        48.3902 
 356   0.0000       1.799008        48.9535 
 357   0.0000       1.805382        49.1270 
 358   0.0000       1.813901        49.3588 
 359   0.0000       1.819622        49.5144 
 360   0.0000       1.826667        49.7061 
 361   0.0000       1.837225        49.9934 
 362   0.0000       1.846639        50.2496 
 363   0.0000       1.850138        50.3448 
 364   0.0000       1.851395        50.3790 
 365   0.0000       1.856129        50.5079 
 366   0.0000       1.867052        50.8051 
 367   0.0000       1.871825        50.9349 
 368   0.0000       1.873634        50.9842 
 369   0.0000       1.877134        51.0794 
 370   0.0000       1.896859        51.6161 
 371   0.0000       1.899783        51.6957 
 372   0.0000       1.906264        51.8721 
 373   0.0000       1.912437        52.0401 
 374   0.0000       1.919910        52.2434 
 375   0.0000       1.924291        52.3626 
 376   0.0000       1.929564        52.5061 
 377   0.0000       1.933881        52.6236 
 378   0.0000       1.947847        53.0036 
 379   0.0000       1.973345        53.6975 
 380   0.0000       1.980171        53.8832 
 381   0.0000       1.987966        54.0953 
 382   0.0000       2.000637        54.4401 
 383   0.0000       2.005541        54.5735 
 384   0.0000       2.032553        55.3086 
 385   0.0000       2.041082        55.5407 
 386   0.0000       2.046133        55.6781 
 387   0.0000       2.058381        56.0114 
 388   0.0000       2.061991        56.1096 
 389   0.0000       2.085604        56.7522 
 390   0.0000       2.091567        56.9144 
 391   0.0000       2.102274        57.2058 
 392   0.0000       2.107015        57.3348 
 393   0.0000       2.112179        57.4753 
 394   0.0000       2.127030        57.8794 
 395   0.0000       2.129604        57.9495 
 396   0.0000       2.139601        58.2215 
 397   0.0000       2.146246        58.4023 
 398   0.0000       2.148587        58.4660 
 399   0.0000       2.152426        58.5705 
 400   0.0000       2.172972        59.1296 
 401   0.0000       2.186939        59.5096 
 402   0.0000       2.200780        59.8863 
 403   0.0000       2.218438        60.3668 
 404   0.0000       2.227478        60.6128 
 405   0.0000       2.237023        60.8725 
 406   0.0000       2.251652        61.2706 
 407   0.0000       2.263311        61.5878 
 408   0.0000       2.274485        61.8919 
 409   0.0000       2.282153        62.1005 
 410   0.0000       2.290985        62.3409 
 411   0.0000       2.295280        62.4577 
 412   0.0000       2.305626        62.7393 
 413   0.0000       2.314993        62.9942 
 414   0.0000       2.320723        63.1501 
 415   0.0000       2.323209        63.2177 
 416   0.0000       2.332325        63.4658 
 417   0.0000       2.336641        63.5832 
 418   0.0000       2.342895        63.7534 
 419   0.0000       2.348151        63.8964 
 420   0.0000       2.358016        64.1649 
 421   0.0000       2.365069        64.3568 
 422   0.0000       2.369074        64.4658 
 423   0.0000       2.383361        64.8545 
 424   0.0000       2.389097        65.0106 
 425   0.0000       2.390874        65.0590 
 426   0.0000       2.393720        65.1364 
 427   0.0000       2.404608        65.4327 
 428   0.0000       2.417276        65.7774 
 429   0.0000       2.420046        65.8528 
 430   0.0000       2.438138        66.3451 
 431   0.0000       2.445078        66.5340 
 432   0.0000       2.450789        66.6894 
 433   0.0000       2.459460        66.9253 
 434   0.0000       2.463740        67.0418 
 435   0.0000       2.478222        67.4358 
 436   0.0000       2.481804        67.5333 
 437   0.0000       2.490163        67.7608 
 438   0.0000       2.493827        67.8605 
 439   0.0000       2.511927        68.3530 
 440   0.0000       2.521732        68.6198 
 441   0.0000       2.532030        68.9001 
 442   0.0000       2.554467        69.5106 
 443   0.0000       2.566997        69.8515 
 444   0.0000       2.579009        70.1784 
 445   0.0000       2.580405        70.2164 
 446   0.0000       2.584184        70.3192 
 447   0.0000       2.600558        70.7648 
 448   0.0000       2.606460        70.9254 
 449   0.0000       2.617257        71.2192 
 450   0.0000       2.621723        71.3407 
 451   0.0000       2.627108        71.4873 
 452   0.0000       2.631400        71.6040 
 453   0.0000       2.639832        71.8335 
 454   0.0000       2.644528        71.9613 
 455   0.0000       2.658475        72.3408 
 456   0.0000       2.670417        72.6658 
 457   0.0000       2.677056        72.8464 
 458   0.0000       2.678633        72.8893 
 459   0.0000       2.683176        73.0129 
 460   0.0000       2.695572        73.3502 
 461   0.0000       2.701060        73.4996 
 462   0.0000       2.703298        73.5605 
 463   0.0000       2.714202        73.8572 
 464   0.0000       2.714920        73.8767 
 465   0.0000       2.720109        74.0179 
 466   0.0000       2.722101        74.0721 
 467   0.0000       2.726257        74.1852 
 468   0.0000       2.726905        74.2028 
 469   0.0000       2.731526        74.3286 
 470   0.0000       2.743349        74.6503 
 471   0.0000       2.747330        74.7587 
 472   0.0000       2.756644        75.0121 
 473   0.0000       2.761033        75.1315 
 474   0.0000       2.773467        75.4699 
 475   0.0000       2.784445        75.7686 
 476   0.0000       2.791522        75.9612 
 477   0.0000       2.797147        76.1142 
 478   0.0000       2.799399        76.1755 
 479   0.0000       2.802971        76.2727 
 480   0.0000       2.808291        76.4175 
 481   0.0000       2.813231        76.5519 
 482   0.0000       2.820272        76.7435 
 483   0.0000       2.828521        76.9680 
 484   0.0000       2.835930        77.1696 
 485   0.0000       2.842892        77.3590 
 486   0.0000       2.855444        77.7006 
 487   0.0000       2.858778        77.7913 
 488   0.0000       2.870409        78.1078 
 489   0.0000       2.873805        78.2002 
 490   0.0000       2.882088        78.4256 
 491   0.0000       2.898329        78.8675 
 492   0.0000       2.900031        78.9139 
 493   0.0000       2.906691        79.0951 
 494   0.0000       2.914691        79.3128 
 495   0.0000       2.926462        79.6331 
 496   0.0000       2.937592        79.9359 
 497   0.0000       2.945353        80.1471 
 498   0.0000       2.956490        80.4502 
 499   0.0000       2.964939        80.6801 
 500   0.0000       2.969443        80.8026 
 501   0.0000       2.988226        81.3138 
 502   0.0000       2.992415        81.4277 
 503   0.0000       2.996365        81.5352 
 504   0.0000       2.999562        81.6222 
 505   0.0000       3.009443        81.8911 
 506   0.0000       3.013473        82.0008 
 507   0.0000       3.023975        82.2865 
 508   0.0000       3.032219        82.5109 
 509   0.0000       3.035494        82.6000 
 510   0.0000       3.039004        82.6955 
 511   0.0000       3.039902        82.7199 
 512   0.0000       3.054557        83.1187 
 513   0.0000       3.058622        83.2293 
 514   0.0000       3.060297        83.2749 
 515   0.0000       3.071118        83.5694 
 516   0.0000       3.090665        84.1013 
 517   0.0000       3.093880        84.1888 
 518   0.0000       3.110493        84.6408 
 519   0.0000       3.120257        84.9065 
 520   0.0000       3.129784        85.1658 
 521   0.0000       3.135933        85.3331 
 522   0.0000       3.147034        85.6351 
 523   0.0000       3.152682        85.7888 
 524   0.0000       3.154598        85.8410 
 525   0.0000       3.158060        85.9352 
 526   0.0000       3.173573        86.3573 
 527   0.0000       3.179942        86.5306 
 528   0.0000       3.195624        86.9574 
 529   0.0000       3.198058        87.0236 
 530   0.0000       3.215511        87.4985 
 531   0.0000       3.219798        87.6152 
 532   0.0000       3.232577        87.9629 
 533   0.0000       3.262856        88.7868 
 534   0.0000       3.285045        89.3906 
 535   0.0000       3.292913        89.6047 
 536   0.0000       3.315157        90.2100 
 537   0.0000       3.324194        90.4559 
 538   0.0000       3.325403        90.4888 
 539   0.0000       3.334027        90.7235 
 540   0.0000       3.342161        90.9448 
 541   0.0000       3.348665        91.1218 
 542   0.0000       3.364435        91.5509 
 543   0.0000       3.370598        91.7186 
 544   0.0000       3.376670        91.8839 
 545   0.0000       3.393207        92.3339 
 546   0.0000       3.419353        93.0453 
 547   0.0000       3.431789        93.3837 
 548   0.0000       3.442113        93.6647 
 549   0.0000       3.465636        94.3048 
 550   0.0000       3.510414        95.5232 
 551   0.0000       3.525037        95.9211 
 552   0.0000       3.536783        96.2408 
 553   0.0000       3.544743        96.4573 
 554   0.0000       3.548911        96.5708 
 555   0.0000       3.553030        96.6829 
 556   0.0000       3.570244        97.1513 
 557   0.0000       3.571396        97.1826 
 558   0.0000       3.580536        97.4313 
 559   0.0000       3.606419        98.1357 
 560   0.0000       3.610728        98.2529 
 561   0.0000       3.623306        98.5952 
 562   0.0000       3.631359        98.8143 
 563   0.0000       3.635726        98.9331 
 564   0.0000       3.659094        99.5690 
 565   0.0000       3.669026        99.8393 
 566   0.0000       3.685488       100.2872 
 567   0.0000       3.710919       100.9792 
 568   0.0000       3.723886       101.3321 
 569   0.0000       3.746166       101.9384 
 570   0.0000       3.770268       102.5942 
 571   0.0000       3.834797       104.3501 
 572   0.0000       3.854833       104.8953 
 573   0.0000       3.925111       106.8077 
 574   0.0000       3.959910       107.7546 
 575   0.0000       3.968405       107.9858 
 576   0.0000       4.063095       110.5624 
 577   0.0000       4.072948       110.8305 
 578   0.0000       4.101251       111.6007 
 579   0.0000       4.140517       112.6692 
 580   0.0000       4.158601       113.1613 
 581   0.0000       4.258838       115.8889 
[...]
      pz      :     1.106006  p :     3.040211
      px      :     0.839180
      py      :     1.095025
      dz2     :     0.012513  d :     0.109477
      dxz     :     0.030607
      dyz     :     0.013540
      dx2y2   :     0.031512
      dxy     :     0.021304
  1 O s       :     3.475757  s :     3.475757
      pz      :     1.677240  p :     4.658510
      px      :     1.465456
      py      :     1.515814
      dz2     :     0.055904  d :     0.471889
      dxz     :     0.096050
      dyz     :     0.068574
      dx2y2   :     0.129421
      dxy     :     0.121940
  2 C s       :     2.725780  s :     2.725780
      pz      :     0.800943  p :     2.640955
      px      :     0.979812
      py      :     0.860200
      dz2     :     0.027650  d :     0.251750
      dxz     :     0.035459
      dyz     :     0.045159
      dx2y2   :     0.087562
      dxy     :     0.055920
  3 O s       :     3.552984  s :     3.552984
      pz      :     1.545274  p :     4.728174
      px      :     1.600609
      py      :     1.582291
      dz2     :     0.030472  d :     0.254031
      dxz     :     0.048988
      dyz     :     0.037818
      dx2y2   :     0.064169
      dxy     :     0.072583
  4 C s       :     2.767150  s :     2.767150
      pz      :     0.996710  p :     2.957157
      px      :     0.957552
      py      :     1.002895
      dz2     :     0.015364  d :     0.133111
      dxz     :     0.018159
      dyz     :     0.020809
      dx2y2   :     0.045882
      dxy     :     0.032898
  5 N s       :     3.209105  s :     3.209105
      pz      :     1.322695  p :     3.936694
      px      :     1.177281
      py      :     1.436719
      dz2     :     0.065617  d :     0.509797
      dxz     :     0.114785
      dyz     :     0.056400
      dx2y2   :     0.134801
      dxy     :     0.138195
  6 C s       :     2.716856  s :     2.716856
      pz      :     0.845778  p :     2.799838
      px      :     0.996374
      py      :     0.957686
      dz2     :     0.017521  d :     0.185706
      dxz     :     0.033196
      dyz     :     0.022212
      dx2y2   :     0.047772
      dxy     :     0.065004
  7 C s       :     2.791325  s :     2.791325
      pz      :     1.033792  p :     2.986598
      px      :     0.949283
      py      :     1.003523
      dz2     :     0.021603  d :     0.134296
      dxz     :     0.025010
      dyz     :     0.034741
      dx2y2   :     0.018668
      dxy     :     0.034273
  8 C s       :     2.968128  s :     2.968128
      pz      :     1.078821  p :     3.349573
      px      :     1.134368
      py      :     1.136385
      dz2     :     0.012832  d :     0.062581
      dxz     :     0.007456
      dyz     :     0.019620
      dx2y2   :     0.007238
      dxy     :     0.015434
  9 C s       :     2.967229  s :     2.967229
      pz      :     1.092350  p :     3.348175
      px      :     1.147254
      py      :     1.108571
      dz2     :     0.012435  d :     0.062657
      dxz     :     0.009563
      dyz     :     0.016605
      dx2y2   :     0.007667
      dxy     :     0.016387
 10 N s       :     3.161277  s :     3.161277
      pz      :     1.554004  p :     4.016740
      px      :     1.173765
      py      :     1.288972
      dz2     :     0.055732  d :     0.541130
      dxz     :     0.115505
      dyz     :     0.088169
      dx2y2   :     0.135118
      dxy     :     0.146606
 11 C s       :     2.719645  s :     2.719645
      pz      :     0.911535  p :     2.791442
      px      :     0.925327
      py      :     0.954581
      dz2     :     0.023697  d :     0.227853
      dxz     :     0.030398
      dyz     :     0.038865
      dx2y2   :     0.045282
      dxy     :     0.089612
 12 O s       :     3.573743  s :     3.573743
      pz      :     1.622984  p :     4.859573
      px      :     1.767359
      py      :     1.469230
      dz2     :     0.037125  d :     0.239931
      dxz     :     0.023089
      dyz     :     0.063702
      dx2y2   :     0.055752
      dxy     :     0.060262
 13 C s       :     2.730692  s :     2.730692
      pz      :     1.054923  p :     2.811581
      px      :     0.828803
      py      :     0.927855
      dz2     :     0.015454  d :     0.148454
      dxz     :     0.024132
      dyz     :     0.020479
      dx2y2   :     0.046070
      dxy     :     0.042320
 14 N s       :     3.169765  s :     3.169765
      pz      :     1.298708  p :     3.711800
      px      :     1.173348
      py      :     1.239744
      dz2     :     0.070462  d :     0.533798
      dxz     :     0.103481
      dyz     :     0.085437
      dx2y2   :     0.150716
      dxy     :     0.123702
 15 N s       :     2.985764  s :     2.985764
      pz      :     1.284166  p :     3.665302
      px      :     1.186642
      py      :     1.194494
      dz2     :     0.089232  d :     0.992030
      dxz     :     0.243663
      dyz     :     0.127235
      dx2y2   :     0.260923
      dxy     :     0.270977
 16 C s       :     2.874174  s :     2.874174
      pz      :     1.083101  p :     3.101952
      px      :     1.099704
      py      :     0.919146
      dz2     :     0.011211  d :     0.083652
      dxz     :     0.017982
      dyz     :     0.019063
      dx2y2   :     0.015244
      dxy     :     0.020151
 17 C s       :     2.713214  s :     2.713214
      pz      :     0.903804  p :     2.749104
      px      :     0.977791
      py      :     0.867510
      dz2     :     0.018348  d :     0.176129
      dxz     :     0.022465
      dyz     :     0.029944
      dx2y2   :     0.044266
      dxy     :     0.061106
 18 C s       :     2.944694  s :     2.944694
      pz      :     1.158829  p :     3.321209
      px      :     1.006183
      py      :     1.156197
      dz2     :     0.013185  d :     0.063251
      dxz     :     0.013839
      dyz     :     0.009094
      dx2y2   :     0.017537
      dxy     :     0.009596
 19 O s       :     3.483026  s :     3.483026
      pz      :     1.721831  p :     4.583237
      px      :     1.313540
      py      :     1.547867
      dz2     :     0.050246  d :     0.399655
      dxz     :     0.085109
      dyz     :     0.053153
      dx2y2   :     0.102147
      dxy     :     0.108999
 20 N s       :     3.212805  s :     3.212805
      pz      :     1.258531  p :     3.937067
      px      :     1.494247
      py      :     1.184289
      dz2     :     0.067539  d :     0.467592
      dxz     :     0.065570
      dyz     :     0.101987
      dx2y2   :     0.117183
      dxy     :     0.115314
 21 C s       :     2.729817  s :     2.729817
      pz      :     0.837050  p :     2.743927
      px      :     0.976067
      py      :     0.930810
      dz2     :     0.028659  d :     0.241767
      dxz     :     0.028751
      dyz     :     0.042540
      dx2y2   :     0.070670
      dxy     :     0.071147
 22 O s       :     3.562233  s :     3.562233
      pz      :     1.537655  p :     4.786835
      px      :     1.741760
      py      :     1.507421
      dz2     :     0.032467  d :     0.215653
      dxz     :     0.021773
      dyz     :     0.053310
      dx2y2   :     0.053033
      dxy     :     0.055069
 23 C s       :     2.785644  s :     2.785644
      pz      :     0.944416  p :     2.835307
      px      :     0.946145
      py      :     0.944746
      dz2     :     0.018401  d :     0.149712
      dxz     :     0.022367
      dyz     :     0.024171
      dx2y2   :     0.043579
      dxy     :     0.041195
 24 O s       :     3.485689  s :     3.485689
      pz      :     1.746646  p :     4.736338
      px      :     1.347998
      py      :     1.641694
      dz2     :     0.042396  d :     0.281332
      dxz     :     0.042092
      dyz     :     0.042325
      dx2y2   :     0.076132
      dxy     :     0.078387
 25 H s       :     0.785058  s :     0.785058
      pz      :     0.013905  p :     0.040860
      px      :     0.009342
      py      :     0.017613
 26 H s       :     0.784531  s :     0.784531
      pz      :     0.023906  p :     0.040961
      px      :     0.009535
      py      :     0.007520
 27 H s       :     0.780995  s :     0.780995
      pz      :     0.012015  p :     0.040088
      px      :     0.004562
      py      :     0.023512
 28 H s       :     0.782945  s :     0.782945
      pz      :     0.009222  p :     0.046574
      px      :     0.018998
      py      :     0.018354
 29 H s       :     0.791326  s :     0.791326
      pz      :     0.008954  p :     0.045138
      px      :     0.025341
      py      :     0.010843
 30 H s       :     0.797100  s :     0.797100
      pz      :     0.018222  p :     0.043194
      px      :     0.008468
      py      :     0.016503
 31 H s       :     0.781273  s :     0.781273
      pz      :     0.010627  p :     0.046512
      px      :     0.016618
      py      :     0.019266
 32 H s       :     0.794759  s :     0.794759
      pz      :     0.020253  p :     0.043652
      px      :     0.011551
      py      :     0.011848
 33 H s       :     0.796451  s :     0.796451
      pz      :     0.009537  p :     0.044508
      px      :     0.023776
      py      :     0.011195
 34 H s       :     0.621081  s :     0.621081
      pz      :     0.037899  p :     0.091044
      px      :     0.011691
      py      :     0.041454
 35 H s       :     0.763078  s :     0.763078
      pz      :     0.018316  p :     0.041436
      px      :     0.013380
      py      :     0.009741
 36 H s       :     0.762477  s :     0.762477
      pz      :     0.021188  p :     0.041509
      px      :     0.014443
      py      :     0.005878
 37 H s       :     0.752332  s :     0.752332
      pz      :     0.008674  p :     0.041361
      px      :     0.021824
      py      :     0.010862
 38 H s       :     0.773893  s :     0.773893
      pz      :     0.011455  p :     0.044264
      px      :     0.010833
      py      :     0.021976
 39 H s       :     0.771591  s :     0.771591
      pz      :     0.013799  p :     0.043955
      px      :     0.008507
      py      :     0.021649
 40 H s       :     0.776440  s :     0.776440
      pz      :     0.026668  p :     0.044388
      px      :     0.009368
      py      :     0.008352
 41 H s       :     0.566652  s :     0.566652
      pz      :     0.029298  p :     0.134747
      px      :     0.072075
      py      :     0.033374


                      *****************************
                      * MAYER POPULATION ANALYSIS *
                      *****************************

  NA   - Mulliken gross atomic population
  ZA   - Total nuclear charge
  QA   - Mulliken gross atomic charge
  VA   - Mayer's total valence
  BVA  - Mayer's bonded valence
  FA   - Mayer's free valence

  ATOM       NA         ZA         QA         VA         BVA        FA
  0 C      6.3311     6.0000    -0.3311     3.8041     3.8041     0.0000
  1 O      8.1930     8.0000    -0.1930     2.0160     2.0160     0.0000
  2 C      5.8436     6.0000     0.1564     4.0487     4.0487     0.0000
  3 O      8.4999     8.0000    -0.4999     1.9050     1.9050    -0.0000
  4 C      5.9999     6.0000     0.0001     3.5150     3.5150     0.0000
  5 N      7.2100     7.0000    -0.2100     2.8256     2.8256     0.0000
  6 C      5.6827     6.0000     0.3173     3.6180     3.6180     0.0000
  7 C      5.8962     6.0000     0.1038     3.4084     3.4084    -0.0000
  8 C      6.6953     6.0000    -0.6953     3.8570     3.8570    -0.0000
  9 C      6.7172     6.0000    -0.7172     3.8264     3.8264    -0.0000
 10 N      7.2449     7.0000    -0.2449     2.6265     2.6265     0.0000
 11 C      6.2963     6.0000    -0.2963     4.0004     4.0004    -0.0000
 12 O      8.5305     8.0000    -0.5305     1.8824     1.8824    -0.0000
 13 C      5.9005     6.0000     0.0995     3.3549     3.3549     0.0000
 14 N      7.6133     7.0000    -0.6133     3.0824     3.0824    -0.0000
 15 N      6.4334     7.0000     0.5666     3.7383     3.7383    -0.0000
 16 C      6.4800     6.0000    -0.4800     3.8309     3.8309     0.0000
 17 C      5.8760     6.0000     0.1240     3.7326     3.7326    -0.0000
 18 C      6.6282     6.0000    -0.6282     3.7551     3.7551    -0.0000
 19 O      8.0929     8.0000    -0.0929     2.1180     2.1180     0.0000
 20 N      7.2291     7.0000    -0.2291     2.7510     2.7510    -0.0000
 21 C      6.1502     6.0000    -0.1502     4.5073     4.5073     0.0000
 22 O      8.4203     8.0000    -0.4203     2.0226     2.0226     0.0000
 23 C      6.0234     6.0000    -0.0234     3.3373     3.3373     0.0000
 24 O      8.3788     8.0000    -0.3788     1.9448     1.9448    -0.0000
 25 H      0.8348     1.0000     0.1652     0.9514     0.9514    -0.0000
 26 H      0.8344     1.0000     0.1656     0.9517     0.9517     0.0000
 27 H      0.8346     1.0000     0.1654     0.9534     0.9534     0.0000
 28 H      0.8097     1.0000     0.1903     0.9529     0.9529    -0.0000
 29 H      0.8342     1.0000     0.1658     0.9595     0.9595     0.0000
 30 H      0.8389     1.0000     0.1611     0.9585     0.9585    -0.0000
 31 H      0.8080     1.0000     0.1920     0.9557     0.9557    -0.0000
 32 H      0.8231     1.0000     0.1769     0.9555     0.9555    -0.0000
 33 H      0.8312     1.0000     0.1688     0.9570     0.9570    -0.0000
 34 H      0.6892     1.0000     0.3108     0.9150     0.9150     0.0000
 35 H      0.8061     1.0000     0.1939     0.9437     0.9437     0.0000
 36 H      0.8097     1.0000     0.1903     0.9462     0.9462     0.0000
 37 H      0.8009     1.0000     0.1991     0.9478     0.9478     0.0000
 38 H      0.8139     1.0000     0.1861     0.9502     0.9502     0.0000
 39 H      0.8087     1.0000     0.1913     0.9514     0.9514     0.0000
 40 H      0.8067     1.0000     0.1933     0.9447     0.9447    -0.0000
 41 H      0.6494     1.0000     0.3506     0.9003     0.9003     0.0000

  Mayer bond orders larger than 0.100000
B(  0-C ,  1-O ) :   0.8473 B(  0-C , 25-H ) :   0.9620 B(  0-C , 26-H ) :   0.9629 
B(  0-C , 27-H ) :   0.9661 B(  1-O ,  2-C ) :   1.0983 B(  2-C ,  3-O ) :   1.6536 
B(  2-C ,  4-C ) :   1.1762 B(  4-C ,  5-N ) :   1.0568 B(  4-C , 23-C ) :   1.1500 
B(  5-N ,  6-C ) :   1.4852 B(  6-C ,  7-C ) :   0.8184 B(  6-C , 10-N ) :  -0.1134 
B(  6-C , 20-N ) :   1.3599 B(  7-C ,  8-C ) :   0.9002 B(  7-C ,  9-C ) :   0.8392 
B(  7-C , 10-N ) :   0.9620 B(  8-C , 28-H ) :   0.9755 B(  8-C , 29-H ) :   0.9745 
B(  8-C , 30-H ) :   0.9880 B(  9-C , 31-H ) :   0.9688 B(  9-C , 32-H ) :   0.9915 
B(  9-C , 33-H ) :   0.9752 B( 10-N , 11-C ) :   0.9456 B( 10-N , 34-H ) :   0.8316 
B( 11-C , 12-O ) :   1.8824 B( 11-C , 13-C ) :   1.0882 B( 12-O , 13-C ) :  -0.1152 
B( 13-C , 14-N ) :   1.2834 B( 13-C , 17-C ) :   0.1042 B( 13-C , 19-O ) :   0.9234 
B( 14-N , 15-N ) :   1.2865 B( 14-N , 16-C ) :   0.1049 B( 14-N , 17-C ) :   0.2739 
B( 15-N , 16-C ) :   0.8555 B( 15-N , 17-C ) :   1.5328 B( 16-C , 35-H ) :   0.9380 
B( 16-C , 36-H ) :   0.9413 B( 16-C , 37-H ) :   0.9536 B( 17-C , 18-C ) :   0.7971 
B( 17-C , 19-O ) :   1.0211 B( 18-C , 38-H ) :   0.9647 B( 18-C , 39-H ) :   0.9761 
B( 18-C , 40-H ) :   0.9586 B( 20-N , 21-C ) :   1.2241 B( 20-N , 22-O ) :  -0.1032 
B( 21-C , 22-O ) :   2.0988 B( 21-C , 23-C ) :   0.9836 B( 23-C , 24-O ) :   1.1119 
B( 24-O , 41-H ) :   0.7813 

-------
TIMINGS
-------

Total SCF time: 0 days 0 hours 9 min 3 sec 

Total time                  ....     543.721 sec
Sum of individual times     ....     537.828 sec  ( 98.9%)

Fock matrix formation       ....     361.006 sec  ( 66.4%)
  Split-RI-J                ....     106.055 sec  ( 29.4% of F)
  XC integration            ....     194.473 sec  ( 53.9% of F)
    Basis function eval.    ....      24.183 sec  ( 12.4% of XC)
    Density eval.           ....      82.464 sec  ( 42.4% of XC)
    XC-Functional eval.     ....      11.029 sec  (  5.7% of XC)
    XC-Potential eval.      ....      65.969 sec  ( 33.9% of XC)
Diagonalization             ....       4.335 sec  (  0.8%)
Density matrix formation    ....       0.563 sec  (  0.1%)
Population analysis         ....       0.194 sec  (  0.0%)
Initial guess               ....       2.032 sec  (  0.4%)
Orbital Transformation      ....       4.013 sec  (  0.7%)
Orbital Orthonormalization  ....       0.000 sec  (  0.0%)
DIIS solution               ....       2.227 sec  (  0.4%)
SOSCF solution              ....       0.000 sec  (  0.0%)
Grid generation             ....       3.944 sec  (  0.7%)

Maximum memory used throughout the entire SCF-calculation: 140.4 MB


-------------------------------------------------------------------------------
                          DFT DISPERSION CORRECTION                            
                                                                               
                                 DFTD4 V2.5                                    
-------------------------------------------------------------------------------
The R2SCAN3C composite method is recognized
Using three-body term ABC
Active option DFTDOPT                   ...         5   

Starting D4
-------------------------   ----------------
Dispersion correction           -0.018590301
-------------------------   ----------------

------------------   -----------------
gCP correction             0.040706359
------------------   -----------------

-------------------------   --------------------
FINAL SINGLE POINT ENERGY     -1268.798525243413
-------------------------   --------------------


                            ***************************************
                            *     ORCA property calculations      *
                            ***************************************

                                    ---------------------
                                    Active property flags
                                    ---------------------
   (+) Dipole Moment


------------------------------------------------------------------------------
                       ORCA ELECTRIC PROPERTIES CALCULATION
------------------------------------------------------------------------------

Dipole Moment Calculation                       ... on
Quadrupole Moment Calculation                   ... off
Polarizability Calculation                      ... off
GBWName                                         ... /lustre/hpc/kemi/ree/PhD/git/ReactivityQM/calculations/R02deprot/reac01prodE10/conf05/gfn1/orca_calc.gbw
Electron density                                ... /lustre/hpc/kemi/ree/PhD/git/ReactivityQM/calculations/R02deprot/reac01prodE10/conf05/gfn1/orca_calc.scfp
The origin for moment calculation is the CENTER OF MASS  = ( 0.602047,  0.397315 -0.157674)

-------------
DIPOLE MOMENT
-------------
                                X             Y             Z
Electronic contribution:      8.42638       7.91694      -2.53463
Nuclear contribution   :    -11.80090      -8.25727       2.40674
                        -----------------------------------------
Total Dipole Moment    :     -3.37452      -0.34033      -0.12789
                        -----------------------------------------
Magnitude (a.u.)       :      3.39405
Magnitude (Debye)      :      8.62698



--------------------
Rotational spectrum 
--------------------
 
Rotational constants in cm-1:     0.016351     0.003184     0.002721 
Rotational constants in MHz :   490.191441    95.465041    81.588229 

 Dipole components along the rotational axes: 
x,y,z [a.u.] :    -3.368412    -0.076337    -0.409306 
x,y,z [Debye]:    -8.561823    -0.194032    -1.040374 

 

Timings for individual modules:

Sum of individual times         ...      545.355 sec (=   9.089 min)
GTO integral calculation        ...        1.326 sec (=   0.022 min)   0.2 %
SCF iterations                  ...      544.029 sec (=   9.067 min)  99.8 %
                             ****ORCA TERMINATED NORMALLY****
TOTAL RUN TIME: 0 days 0 hours 9 minutes 6 seconds 270 msec
