42
 energy: -83.576214992074 gnorm: 0.000683550008 xtb: 6.5.1 (579679a)
C            6.67839725968102       -1.25366810077002        0.54130510260708
O            5.31057675727848       -0.92464702027535        0.36355857728883
C            5.06985670903769        0.26372949514904       -0.26807825343571
O            6.01578953993835        0.97121792716571       -0.64881187347596
C            3.66841883642392        0.58676973853238       -0.42985772186438
N            2.73894828178272       -0.30702925779528        0.04284555023950
C            1.46935251263412        0.01679313685164       -0.10897826566948
C            0.44571351713488       -1.01456062761424        0.38112785451957
C            0.97981490952728       -1.71344845870720        1.64029899035317
C            0.27019083092941       -2.04050099722804       -0.76104026077015
N           -0.79553177796650       -0.30998617069854        0.69276087246004
C           -2.00880646645896       -1.07683969750902        0.82790283088822
O           -1.98113770289043       -2.27045472596052        1.27794032652979
C           -3.13136735341859       -0.35043765753201        0.50029897727154
N           -3.19554809110984        0.96415702032024        0.01489883035999
N           -4.49337840596661        1.17726079088785       -0.15221983643930
C           -4.94677134769636        2.45807413258543       -0.63891414025010
C           -5.25789061988231        0.15727663117059        0.17755467187547
C           -6.73708683089161        0.06684438554577        0.10786281107717
O           -4.48723421522832       -0.88171306231580        0.60759063136007
N            0.98698655007468        1.11392376428019       -0.68479919302279
C            1.84053618037857        2.06128719143362       -1.18067367111160
O            1.41283972571860        3.10838236409765       -1.71865539811603
C            3.25880033071721        1.76784870220953       -1.03954721193548
O            4.14788358788599        2.68873468700223       -1.52310688075975
H            7.18223191779421       -0.50364368778352        1.15994983992305
H            7.19362586522970       -1.31413315944175       -0.42286126394869
H            6.71483000422693       -2.22285344823173        1.03785839328366
H            0.29853572651189       -2.50114513366788        1.96085360398681
H            1.95752451365299       -2.15086539483690        1.43573913337592
H            1.08364800544786       -0.98847360692551        2.44925693393983
H           -0.37400933321284       -2.86294479028586       -0.45066570167131
H           -0.16885004640964       -1.55630970088140       -1.63428024480195
H            1.24495894482009       -2.44391413862355       -1.03738226563024
H           -0.92466725685453        0.46566941201970        0.03758343615805
H           -5.52455411307862        2.96269872438671        0.13482377849283
H           -5.57459125246851        2.31705259748644       -1.51718587063002
H           -4.07436928891346        3.05505107939884       -0.89608291137719
H           -7.20067790605907        0.95837034381238        0.53096286718811
H           -7.06804339378863       -0.80557910951491        0.66797614114537
H           -7.08528422622793       -0.03137048891016       -0.92335241714696
H            5.06033712169658        2.36337631120027       -1.37025377227361
