33
 energy: -58.558988613426 gnorm: 0.000880718825 xtb: 6.5.1 (579679a)
C            4.91015821224444        1.10483684287041        0.26043774710618
O            3.76629688859474        0.33843773087074       -0.09743985592046
C            2.57569494936684        0.81898661106389        0.30588561228377
O            2.50159216782531        1.85915423018406        0.93452205297068
C            1.40354699143714       -0.01552060505694       -0.08131648059321
C            1.48769947700510       -1.11919969918159       -0.93447143992617
O            2.69532895637749       -1.62963933354561       -1.42428045490161
C            0.30636530503645       -1.72400775772165       -1.43689844140419
O            0.29740774013501       -2.66046730374231       -2.26189593258616
N           -0.88647863722838       -1.12984563800664       -1.03285049942088
C           -0.92292833110976       -0.38914920446087        0.22932152226207
C           -1.03830397680321       -1.38858448347494        1.40657233384542
C           -2.12810288041500        0.60960614174936        0.19030135589636
C           -1.94184925309423        1.54633539339422       -1.01416779436201
C           -3.48841439212581       -0.08518361969367        0.09197051328199
N           -2.11842120795611        1.43029243235617        1.40357274619146
N            0.26152915530971        0.41839103717824        0.43799349793336
H            5.02319414406453        1.13942846960468        1.34796982012734
H            5.77437726800012        0.61535369422974       -0.18609483713392
H            4.82361916661604        2.12764915784865       -0.11881997822388
H            2.44852588985449       -2.35751535188065       -2.01851379798810
H           -1.69256203305161       -1.71813776462537       -1.18816327854093
H           -1.14932034058995       -0.84531754723175        2.34281787493066
H           -1.89013054791567       -2.05199630650701        1.27195193334074
H           -0.13219655973906       -1.99217739849647        1.45720654368505
H           -1.97252871353103        0.97829475714850       -1.94413979548196
H           -0.97744748970069        2.05219111850906       -0.94245655882744
H           -2.73263620610191        2.29630435664071       -1.02750204851560
H           -3.55691878311391       -0.68411146240997       -0.81518888735420
H           -4.27947537111038        0.66524082298735        0.06729629071755
H           -3.66268529142276       -0.73161183334729        0.95082734160988
H           -1.14669185242007        1.59717678455392        1.66540316199725
H           -2.55824444443929        0.92478572819601        2.16014773300247
