      -----------------------------------------------------------      
     |                   =====================                   |     
     |                           x T B                           |     
     |                   =====================                   |     
     |                         S. Grimme                         |     
     |          Mulliken Center for Theoretical Chemistry        |     
     |                    University of Bonn                     |     
      -----------------------------------------------------------      

   * xtb version 6.5.1 (579679a) compiled by 'ehlert@majestix' on 2022-07-11

   xtb is free software: you can redistribute it and/or modify it under
   the terms of the GNU Lesser General Public License as published by
   the Free Software Foundation, either version 3 of the License, or
   (at your option) any later version.
   
   xtb is distributed in the hope that it will be useful,
   but WITHOUT ANY WARRANTY; without even the implied warranty of
   MERCHANTABILITY or FITNESS FOR A PARTICULAR PURPOSE.  See the
   GNU Lesser General Public License for more details.
   
   Cite this work as:
   * C. Bannwarth, E. Caldeweyher, S. Ehlert, A. Hansen, P. Pracht,
     J. Seibert, S. Spicher, S. Grimme, WIREs Comput. Mol. Sci., 2020, 11,
     e01493. DOI: 10.1002/wcms.1493
   
   for GFN2-xTB:
   * C. Bannwarth, S. Ehlert and S. Grimme., J. Chem. Theory Comput., 2019,
     15, 1652-1671. DOI: 10.1021/acs.jctc.8b01176
   for GFN1-xTB:
   * S. Grimme, C. Bannwarth, P. Shushkov, J. Chem. Theory Comput., 2017,
     13, 1989-2009. DOI: 10.1021/acs.jctc.7b00118
   for GFN0-xTB:
   * P. Pracht, E. Caldeweyher, S. Ehlert, S. Grimme, ChemRxiv, 2019, preprint.
     DOI: 10.26434/chemrxiv.8326202.v1
   for GFN-FF:
   * S. Spicher and S. Grimme, Angew. Chem. Int. Ed., 2020, 59, 15665-15673.
     DOI: 10.1002/anie.202004239
   
   for ALPB and GBSA implicit solvation:
   * S. Ehlert, M. Stahn, S. Spicher, S. Grimme, J. Chem. Theory Comput.,
     2021, 17, 4250-4261. DOI: 10.1021/acs.jctc.1c00471
   
   for DFT-D4:
   * E. Caldeweyher, C. Bannwarth and S. Grimme, J. Chem. Phys., 2017,
     147, 034112. DOI: 10.1063/1.4993215
   * E. Caldeweyher, S. Ehlert, A. Hansen, H. Neugebauer, S. Spicher,
     C. Bannwarth and S. Grimme, J. Chem. Phys., 2019, 150, 154122.
     DOI: 10.1063/1.5090222
   * E. Caldeweyher, J.-M. Mewes, S. Ehlert and S. Grimme, Phys. Chem. Chem. Phys.
     2020, 22, 8499-8512. DOI: 10.1039/D0CP00502A
   
   for sTDA-xTB:
   * S. Grimme and C. Bannwarth, J. Chem. Phys., 2016, 145, 054103.
     DOI: 10.1063/1.4959605
   
   in the mass-spec context:
   * V. Asgeirsson, C. Bauer and S. Grimme, Chem. Sci., 2017, 8, 4879.
     DOI: 10.1039/c7sc00601b
   * J. Koopman and S. Grimme, ACS Omega 2019, 4, 12, 15120-15133.
     DOI: 10.1021/acsomega.9b02011
   
   for metadynamics refer to:
   * S. Grimme, J. Chem. Theory Comput., 2019, 155, 2847-2862
     DOI: 10.1021/acs.jctc.9b00143
   
   for SPH calculations refer to:
   * S. Spicher and S. Grimme, J. Chem. Theory Comput., 2021, 17, 1701-1714
     DOI: 10.1021/acs.jctc.0c01306
   
   with help from (in alphabetical order)
   P. Atkinson, C. Bannwarth, F. Bohle, G. Brandenburg, E. Caldeweyher
   M. Checinski, S. Dohm, S. Ehlert, S. Ehrlich, I. Gerasimov, C. Hölzer
   A. Katbashev, J. Koopman, C. Lavigne, S. Lehtola, F. März, M. Müller,
   F. Musil, H. Neugebauer, J. Pisarek, C. Plett, P. Pracht, F. Pultar,
   J. Seibert, P. Shushkov, S. Spicher, M. Stahn, M. Steiner, T. Strunk,
   J. Stückrath, T. Rose, and J. Unsleber
   
 * started run on 2023/06/20 at 15:15:07.055     

           -------------------------------------------------
          |                Calculation Setup                |
           -------------------------------------------------

          program call               : /lustre/hpc/kemi/ree/PhD/git/ReactivityQM/dep/xtb-6.5.1/bin/xtb --gfn 1 /lustre/hpc/kemi/ree/PhD/git/ReactivityQM/calculations/R03/reac02prodE01/conf12/R03_reac02prodE01_conf12_gfn1.xyz --opt --vfukui --chrg -1 --uhf 0 --alpb DMSO
          hostname                   : node068
          coordinate file            : /lustre/hpc/kemi/ree/PhD/git/ReactivityQM/calculations/R03/reac02prodE01/conf12/R03_reac02prodE01_conf12_gfn1.xyz
          omp threads                :                     1

   ID    Z sym.   atoms
    1    6 C      1, 3, 5, 7-10, 12, 13, 15, 18, 19, 22, 23, 25
    2    8 O      2, 4, 14, 20, 24, 26
    3    7 N      6, 11, 16, 17, 21
    4    1 H      27-46

           -------------------------------------------------
          |                 G F N 1 - x T B                 |
           -------------------------------------------------

        Reference                      10.1021/acs.jctc.7b00118
      * Hamiltonian:
        H0-scaling (s, p, d)           1.850000    2.250000    2.000000
        zeta-weighting                 0.000000
      * Dispersion:
        s8                             2.400000
        a1                             0.630000
        a2                             5.000000
        s9                             0.000000
      * Repulsion:
        kExp                           1.500000
        rExp                           1.000000
      * Coulomb:
        alpha                          2.000000
        third order                    atomic
        anisotropic                    false
      * Halogen bond correction:
        rad-scale                      1.300000
        damping                        0.440000

      * Solvation model:               ALPB
        Solvent                        DMSO
        Parameter file                 internal GFN1-xTB/ALPB
        Dielectric constant                4.6680E+01
        Reference state                gsolv [1 M gas/solution]
        Free energy shift                  7.6243E-03 Eh       4.7843E+00 kcal/mol
        Temperature                        2.9815E+02 K
        Density                            1.1000E+00 kg/L
        Solvent mass                       7.8130E+01 g/mol
        Interaction kernel             P16
        Born radius scaling (c1)           1.7672E+00
        Born radii integrator          GBOBC
        Born offset                        0.0000E+00 a0       0.0000E+00 AA
        H-bond correction              true
        Ion screening                  false
        Surface tension                    1.0000E-05 Eh       1.5569E+01 dyn/cm
        Grid points                               230 per atom

          ...................................................
          :                      SETUP                      :
          :.................................................:
          :  # basis functions                 144          :
          :  # atomic orbitals                 144          :
          :  # shells                           92          :
          :  # electrons                       142          :
          :  # halogen bonds                     0          :
          :  max. iterations                   250          :
          :  Hamiltonian                  GFN1-xTB          :
          :  restarted?                      false          :
          :  GBSA solvation                   true          :
          :  PC potential                    false          :
          :  electronic temp.          300.0000000     K    :
          :  accuracy                    1.0000000          :
          :  -> integral cutoff          0.2500000E+02      :
          :  -> integral neglect         0.1000000E-07      :
          :  -> SCF convergence          0.1000000E-05 Eh   :
          :  -> wf. convergence          0.2000000E-04 e    :
          :  Broyden damping             0.4000000          :
          ...................................................

 iter      E             dE          RMSdq      gap      omega  full diag
   1    -87.4798531 -0.874799E+02  0.842E+00    2.77       0.0  T
   2    -87.7751310 -0.295278E+00  0.503E+00    1.48       1.0  T
   3    -87.7587313  0.163997E-01  0.154E+00    0.16       1.0  T
   4    -87.7936629 -0.349316E-01  0.191E-01    0.57       1.0  T
   5    -87.7946578 -0.994905E-03  0.544E-02    0.46       1.0  T
   6    -87.7947298 -0.720270E-04  0.170E-02    0.44       1.0  T
   7    -87.7947377 -0.783190E-05  0.605E-03    0.43       2.4  T
   8    -87.7947384 -0.766154E-06  0.262E-03    0.42       5.6  T
   9    -87.7947385 -0.451561E-07  0.110E-03    0.42      13.4  T
  10    -87.7947385 -0.770520E-08  0.243E-04    0.42      60.7  T
  11    -87.7947385 -0.128813E-08  0.538E-05    0.42     274.2  T
  12    -87.7947385 -0.498659E-10  0.226E-05    0.42     651.3  T

   *** convergence criteria satisfied after 12 iterations ***

         #    Occupation            Energy/Eh            Energy/eV
      -------------------------------------------------------------
         1        2.0000           -0.8409485             -22.8834
       ...           ...                  ...                  ...
        65        2.0000           -0.4357346             -11.8569
        66        2.0000           -0.4173347             -11.3563
        67        2.0000           -0.4072922             -11.0830
        68        2.0000           -0.4043397             -11.0026
        69        2.0000           -0.3716124             -10.1121
        70        1.9999           -0.3394304              -9.2364
        71        1.9995           -0.3376015              -9.1866 (HOMO)
        72        0.0006           -0.3220500              -8.7634 (LUMO)
        73                         -0.2719626              -7.4005
        74                         -0.2387275              -6.4961
        75                         -0.2373779              -6.4594
        76                         -0.2104827              -5.7275
       ...                                ...                  ...
       144                          0.6921198              18.8335
      -------------------------------------------------------------
                  HL-Gap            0.0155515 Eh            0.4232 eV
             Fermi-level           -0.3297611 Eh           -8.9733 eV

 SCC (total)                   0 d,  0 h,  0 min,  0.192 sec
 SCC setup                      ...        0 min,  0.002 sec (  1.077%)
 Dispersion                     ...        0 min,  0.000 sec (  0.179%)
 classical contributions        ...        0 min,  0.000 sec (  0.060%)
 integral evaluation            ...        0 min,  0.042 sec ( 22.129%)
 iterations                     ...        0 min,  0.075 sec ( 39.078%)
 molecular gradient             ...        0 min,  0.070 sec ( 36.674%)
 printout                       ...        0 min,  0.002 sec (  0.791%)

         :::::::::::::::::::::::::::::::::::::::::::::::::::::
         ::                     SUMMARY                     ::
         :::::::::::::::::::::::::::::::::::::::::::::::::::::
         :: total energy             -87.024509424615 Eh    ::
         :: total w/o Gsasa/hb       -87.003195348221 Eh    ::
         :: gradient norm              0.128173795784 Eh/a0 ::
         :: HOMO-LUMO gap              0.423178486237 eV    ::
         ::.................................................::
         :: SCC energy               -87.794738471151 Eh    ::
         :: -> electrostatic           0.487119739781 Eh    ::
         :: -> Gsolv                  -0.114523822585 Eh    ::
         ::    -> Gelec               -0.093209746192 Eh    ::
         ::    -> Gsasa               -0.024588189421 Eh    ::
         ::    -> Ghb                 -0.004350165977 Eh    ::
         ::    -> Gshift               0.007624279005 Eh    ::
         :: repulsion energy           0.799945065439 Eh    ::
         :: dispersion energy         -0.029716018902 Eh    ::
         :: halogen bond corr.         0.000000000000 Eh    ::
         :: add. restraining           0.000000000000 Eh    ::
         :: total charge              -1.000000000000 e     ::
         :::::::::::::::::::::::::::::::::::::::::::::::::::::

      ----------------------------------------------------------- 
     |                   =====================                   |
     |                        A N C O P T                        |
     |                   =====================                   |
     |               Approximate Normal Coordinate               |
     |                Rational Function Optimizer                |
      ----------------------------------------------------------- 

          ...................................................
          :                      SETUP                      :
          :.................................................:
          :   optimization level            normal          :
          :   max. optcycles                   200          :
          :   ANC micro-cycles                  20          :
          :   degrees of freedom               132          :
          :.................................................:
          :   RF solver                   davidson          :
          :   write xtbopt.log                true          :
          :   linear?                        false          :
          :   energy convergence         0.5000000E-05 Eh   :
          :   grad. convergence          0.1000000E-02 Eh/α :
          :   maximium RF displ.         1.0000000          :
          :   Hlow (freq-cutoff)         0.1000000E-01      :
          :   Hmax (freq-cutoff)         5.0000000          :
          :   S6 in model hess.         20.0000000          :
          ...................................................

generating ANC from model Hessian ...
Using Lindh-Hessian (1995)
 Shifting diagonal of input Hessian by   9.846554774597661E-003
 Lowest  eigenvalues of input Hessian
    0.000000    0.000000    0.000000    0.000000    0.000000    0.000000
    0.010000    0.010151    0.010732    0.010769    0.011173    0.011865
    0.012359    0.013873    0.014397    0.015109    0.015246    0.015470
 Highest eigenvalues
    1.930021    1.949395    2.068043    2.155444    2.258649    2.353383
 

........................................................................
.............................. CYCLE    1 ..............................
........................................................................
   1    -87.7947385 -0.877947E+02  0.903E-06    0.42       0.0  T
   2    -87.7947385 -0.639488E-12  0.522E-06    0.42    2823.3  T
   3    -87.7947385 -0.213163E-12  0.274E-06    0.42    5388.5  T
     SCC iter.                  ...        0 min,  0.020 sec
     gradient                   ...        0 min,  0.069 sec
 * total energy  :   -87.0245094 Eh     change       -0.5229595E-11 Eh
   gradient norm :     0.1281738 Eh/α   predicted     0.0000000E+00 (-100.00%)
   displ. norm   :     0.3405912 α      lambda       -0.2102237E-01
   maximum displ.:     0.1383538 α      in ANC's #20, #33, #16, ...

........................................................................
.............................. CYCLE    2 ..............................
........................................................................
   1    -87.8145612 -0.878146E+02  0.940E-02    0.65       0.0  T
   2    -87.8149185 -0.357267E-03  0.422E-02    0.69       1.0  T
   3    -87.8149707 -0.522342E-04  0.168E-02    0.70       1.0  T
   4    -87.8149713 -0.661851E-06  0.697E-03    0.70       2.1  T
   5    -87.8149715 -0.198345E-06  0.166E-03    0.70       8.9  T
   6    -87.8149716 -0.908719E-07  0.367E-04    0.70      40.2  T
   7    -87.8149716 -0.314817E-08  0.123E-04    0.70     119.8  T
   8    -87.8149716 -0.234365E-09  0.311E-05    0.70     474.1  T
     SCC iter.                  ...        0 min,  0.051 sec
     gradient                   ...        0 min,  0.067 sec
 * total energy  :   -87.0391934 Eh     change       -0.1468400E-01 Eh
   gradient norm :     0.0645941 Eh/α   predicted    -0.1174723E-01 ( -20.00%)
   displ. norm   :     0.3360800 α      lambda       -0.8509185E-02
   maximum displ.:     0.1459400 α      in ANC's #20, #33, #22, ...

........................................................................
.............................. CYCLE    3 ..............................
........................................................................
   1    -87.8295050 -0.878295E+02  0.824E-02    0.82       0.0  T
   2    -87.8298372 -0.332182E-03  0.354E-02    0.89       1.0  T
   3    -87.8298743 -0.371260E-04  0.134E-02    0.90       1.1  T
   4    -87.8298746 -0.319704E-06  0.698E-03    0.91       2.1  T
   5    -87.8298748 -0.141801E-06  0.135E-03    0.91      10.9  T
   6    -87.8298749 -0.686220E-07  0.240E-04    0.91      61.5  T
   7    -87.8298749 -0.227020E-08  0.836E-05    0.91     176.4  T
   8    -87.8298749 -0.101537E-09  0.244E-05    0.91     603.2  T
     SCC iter.                  ...        0 min,  0.051 sec
     gradient                   ...        0 min,  0.067 sec
 * total energy  :   -87.0444288 Eh     change       -0.5235334E-02 Eh
   gradient norm :     0.0213714 Eh/α   predicted    -0.4735150E-02 (  -9.55%)
   displ. norm   :     0.2352733 α      lambda       -0.1588787E-02
   maximum displ.:     0.0947049 α      in ANC's #20, #7, #33, ...

........................................................................
.............................. CYCLE    4 ..............................
........................................................................
   1    -87.8334342 -0.878334E+02  0.274E-02    0.92       0.0  T
   2    -87.8334720 -0.377956E-04  0.127E-02    0.95       1.2  T
   3    -87.8334747 -0.276918E-05  0.600E-03    0.95       2.5  T
   4    -87.8334748 -0.309708E-07  0.286E-03    0.95       5.2  T
   5    -87.8334748 -0.349806E-07  0.304E-04    0.95      48.6  T
   6    -87.8334748 -0.210824E-08  0.101E-04    0.95     146.0  T
   7    -87.8334748 -0.174822E-09  0.308E-05    0.95     479.3  T
     SCC iter.                  ...        0 min,  0.046 sec
     gradient                   ...        0 min,  0.068 sec
 * total energy  :   -87.0455162 Eh     change       -0.1087432E-02 Eh
   gradient norm :     0.0111416 Eh/α   predicted    -0.8385089E-03 ( -22.89%)
   displ. norm   :     0.2217161 α      lambda       -0.6872379E-03
   maximum displ.:     0.0916493 α      in ANC's #5, #10, #2, ...

........................................................................
.............................. CYCLE    5 ..............................
........................................................................
   1    -87.8353703 -0.878354E+02  0.143E-02    0.95       0.0  T
   2    -87.8353788 -0.852662E-05  0.769E-03    0.97       1.9  T
   3    -87.8353797 -0.892256E-06  0.406E-03    0.97       3.6  T
   4    -87.8353797 -0.558829E-08  0.152E-03    0.97       9.7  T
   5    -87.8353797 -0.229414E-07  0.251E-04    0.97      58.8  T
   6    -87.8353797 -0.217625E-08  0.618E-05    0.97     238.4  T
   7    -87.8353797 -0.976570E-10  0.210E-05    0.97     702.8  T
     SCC iter.                  ...        0 min,  0.026 sec
     gradient                   ...        0 min,  0.058 sec
 * total energy  :   -87.0459787 Eh     change       -0.4624940E-03 Eh
   gradient norm :     0.0074642 Eh/α   predicted    -0.3605484E-03 ( -22.04%)
   displ. norm   :     0.1979668 α      lambda       -0.2950528E-03
   maximum displ.:     0.1014261 α      in ANC's #5, #2, #3, ...

........................................................................
.............................. CYCLE    6 ..............................
........................................................................
   1    -87.8362287 -0.878362E+02  0.780E-03    0.97       0.0  T
   2    -87.8362310 -0.233328E-05  0.420E-03    0.97       3.5  T
   3    -87.8362313 -0.341859E-06  0.224E-03    0.97       6.6  T
   4    -87.8362313 -0.740495E-08  0.702E-04    0.97      21.0  T
   5    -87.8362313 -0.583796E-08  0.117E-04    0.97     125.8  T
   6    -87.8362313 -0.394635E-09  0.324E-05    0.97     454.8  T
     SCC iter.                  ...        0 min,  0.035 sec
     gradient                   ...        0 min,  0.064 sec
 * total energy  :   -87.0461919 Eh     change       -0.2132375E-03 Eh
   gradient norm :     0.0057491 Eh/α   predicted    -0.1533084E-03 ( -28.10%)
   displ. norm   :     0.2232917 α      lambda       -0.2194078E-03
   maximum displ.:     0.1208660 α      in ANC's #5, #3, #2, ...

........................................................................
.............................. CYCLE    7 ..............................
........................................................................
   1    -87.8366239 -0.878366E+02  0.734E-03    0.97       0.0  T
   2    -87.8366263 -0.245634E-05  0.325E-03    0.97       4.5  T
   3    -87.8366265 -0.166344E-06  0.170E-03    0.97       8.7  T
   4    -87.8366265 -0.391229E-08  0.682E-04    0.96      21.6  T
   5    -87.8366265 -0.406352E-08  0.141E-04    0.96     104.3  T
   6    -87.8366265 -0.635012E-09  0.328E-05    0.96     449.6  T
     SCC iter.                  ...        0 min,  0.036 sec
     gradient                   ...        0 min,  0.067 sec
 * total energy  :   -87.0463522 Eh     change       -0.1602363E-03 Eh
   gradient norm :     0.0045695 Eh/α   predicted    -0.1151740E-03 ( -28.12%)
   displ. norm   :     0.2151842 α      lambda       -0.1580982E-03
   maximum displ.:     0.1138621 α      in ANC's #5, #3, #2, ...

........................................................................
.............................. CYCLE    8 ..............................
........................................................................
   1    -87.8367093 -0.878367E+02  0.597E-03    0.97       0.0  T
   2    -87.8367108 -0.154106E-05  0.260E-03    0.96       5.7  T
   3    -87.8367110 -0.121462E-06  0.125E-03    0.96      11.8  T
   4    -87.8367110 -0.278420E-08  0.533E-04    0.96      27.7  T
   5    -87.8367110 -0.144024E-08  0.984E-05    0.96     149.9  T
   6    -87.8367110 -0.318067E-09  0.287E-05    0.96     514.3  T
     SCC iter.                  ...        0 min,  0.036 sec
     gradient                   ...        0 min,  0.064 sec
 * total energy  :   -87.0464703 Eh     change       -0.1181859E-03 Eh
   gradient norm :     0.0043852 Eh/α   predicted    -0.8271085E-04 ( -30.02%)
   displ. norm   :     0.2062363 α      lambda       -0.1200675E-03
   maximum displ.:     0.1059075 α      in ANC's #5, #3, #2, ...

........................................................................
.............................. CYCLE    9 ..............................
........................................................................
   1    -87.8366344 -0.878366E+02  0.488E-03    0.96       0.0  T
   2    -87.8366353 -0.877683E-06  0.246E-03    0.95       6.0  T
   3    -87.8366354 -0.161466E-06  0.115E-03    0.95      12.9  T
   4    -87.8366354 -0.198725E-08  0.395E-04    0.95      37.3  T
   5    -87.8366354 -0.140506E-08  0.854E-05    0.95     172.6  T
   6    -87.8366354 -0.207919E-09  0.236E-05    0.95     625.4  T
     SCC iter.                  ...        0 min,  0.036 sec
     gradient                   ...        0 min,  0.073 sec
 * total energy  :   -87.0465587 Eh     change       -0.8832301E-04 Eh
   gradient norm :     0.0041835 Eh/α   predicted    -0.6258819E-04 ( -29.14%)
   displ. norm   :     0.1897289 α      lambda       -0.8648889E-04
   maximum displ.:     0.1010801 α      in ANC's #3, #5, #2, ...

........................................................................
.............................. CYCLE   10 ..............................
........................................................................
   1    -87.8365136 -0.878365E+02  0.438E-03    0.95       0.0  T
   2    -87.8365145 -0.853119E-06  0.223E-03    0.95       6.6  T
   3    -87.8365146 -0.115181E-06  0.116E-03    0.95      12.7  T
   4    -87.8365146 -0.258454E-08  0.415E-04    0.95      35.5  T
   5    -87.8365146 -0.191831E-08  0.719E-05    0.95     204.9  T
   6    -87.8365146 -0.116358E-09  0.222E-05    0.95     664.4  T
     SCC iter.                  ...        0 min,  0.041 sec
     gradient                   ...        0 min,  0.073 sec
 * total energy  :   -87.0466216 Eh     change       -0.6291529E-04 Eh
   gradient norm :     0.0035226 Eh/α   predicted    -0.4480230E-04 ( -28.79%)
   displ. norm   :     0.1677817 α      lambda       -0.6444981E-04
   maximum displ.:     0.0910703 α      in ANC's #3, #2, #5, ...

........................................................................
.............................. CYCLE   11 ..............................
........................................................................
   1    -87.8365237 -0.878365E+02  0.417E-03    0.95       0.0  T
   2    -87.8365247 -0.954009E-06  0.198E-03    0.95       7.4  T
   3    -87.8365247 -0.628908E-07  0.105E-03    0.95      14.0  T
   4    -87.8365247 -0.134736E-08  0.429E-04    0.95      34.4  T
   5    -87.8365247 -0.180493E-08  0.930E-05    0.95     158.6  T
   6    -87.8365247 -0.243148E-09  0.220E-05    0.95     670.2  T
     SCC iter.                  ...        0 min,  0.040 sec
     gradient                   ...        0 min,  0.073 sec
 * total energy  :   -87.0466673 Eh     change       -0.4572241E-04 Eh
   gradient norm :     0.0028571 Eh/α   predicted    -0.3313522E-04 ( -27.53%)
   displ. norm   :     0.1266427 α      lambda       -0.4671470E-04
   maximum displ.:     0.0671316 α      in ANC's #2, #3, #1, ...

........................................................................
.............................. CYCLE   12 ..............................
........................................................................
   1    -87.8367684 -0.878368E+02  0.361E-03    0.95       0.0  T
   2    -87.8367691 -0.732260E-06  0.167E-03    0.95       8.8  T
   3    -87.8367692 -0.523435E-07  0.775E-04    0.95      19.0  T
   4    -87.8367692 -0.128989E-08  0.362E-04    0.95      40.7  T
   5    -87.8367692 -0.545768E-09  0.634E-05    0.95     232.5  T
   6    -87.8367692 -0.113914E-09  0.185E-05    0.95     798.6  T
     SCC iter.                  ...        0 min,  0.040 sec
     gradient                   ...        0 min,  0.071 sec
 * total energy  :   -87.0467017 Eh     change       -0.3440804E-04 Eh
   gradient norm :     0.0026240 Eh/α   predicted    -0.2373527E-04 ( -31.02%)
   displ. norm   :     0.1283124 α      lambda       -0.4464758E-04
   maximum displ.:     0.0669448 α      in ANC's #2, #3, #1, ...

........................................................................
.............................. CYCLE   13 ..............................
........................................................................
   1    -87.8369271 -0.878369E+02  0.338E-03    0.95       0.0  T
   2    -87.8369276 -0.525376E-06  0.161E-03    0.95       9.2  T
   3    -87.8369277 -0.736423E-07  0.640E-04    0.95      23.0  T
   4    -87.8369277 -0.143314E-08  0.303E-04    0.95      48.6  T
   5    -87.8369277 -0.552220E-09  0.743E-05    0.95     198.6  T
   6    -87.8369277 -0.136126E-09  0.146E-05    0.95    1013.2  T
     SCC iter.                  ...        0 min,  0.040 sec
     gradient                   ...        0 min,  0.073 sec
 * total energy  :   -87.0467338 Eh     change       -0.3213482E-04 Eh
   gradient norm :     0.0027084 Eh/α   predicted    -0.2269218E-04 ( -29.38%)
   displ. norm   :     0.1187872 α      lambda       -0.3479149E-04
   maximum displ.:     0.0606472 α      in ANC's #2, #1, #3, ...

........................................................................
.............................. CYCLE   14 ..............................
........................................................................
   1    -87.8369036 -0.878369E+02  0.290E-03    0.96       0.0  T
   2    -87.8369039 -0.337562E-06  0.133E-03    0.96      11.0  T
   3    -87.8369040 -0.492960E-07  0.658E-04    0.96      22.4  T
   4    -87.8369040 -0.212695E-08  0.273E-04    0.96      54.1  T
   5    -87.8369040 -0.455515E-09  0.440E-05    0.96     334.9  T
   6    -87.8369040 -0.477058E-10  0.123E-05    0.96    1199.3  T
     SCC iter.                  ...        0 min,  0.030 sec
     gradient                   ...        0 min,  0.061 sec
 * total energy  :   -87.0467591 Eh     change       -0.2521436E-04 Eh
   gradient norm :     0.0024698 Eh/α   predicted    -0.1764351E-04 ( -30.03%)
   displ. norm   :     0.1085507 α      lambda       -0.2746015E-04
   maximum displ.:     0.0557616 α      in ANC's #2, #1, #3, ...

........................................................................
.............................. CYCLE   15 ..............................
........................................................................
   1    -87.8368708 -0.878369E+02  0.290E-03    0.96       0.0  T
   2    -87.8368712 -0.394947E-06  0.131E-03    0.96      11.3  T
   3    -87.8368712 -0.240323E-07  0.737E-04    0.96      20.0  T
   4    -87.8368712 -0.552077E-09  0.282E-04    0.96      52.3  T
   5    -87.8368712 -0.950422E-09  0.531E-05    0.96     277.7  T
   6    -87.8368712 -0.103910E-09  0.123E-05    0.96    1194.5  T
     SCC iter.                  ...        0 min,  0.035 sec
     gradient                   ...        0 min,  0.062 sec
 * total energy  :   -87.0467795 Eh     change       -0.2042688E-04 Eh
   gradient norm :     0.0019465 Eh/α   predicted    -0.1389268E-04 ( -31.99%)
   displ. norm   :     0.1625593 α      lambda       -0.2408161E-04
   maximum displ.:     0.0866931 α      in ANC's #1, #2, #5, ...

........................................................................
.............................. CYCLE   16 ..............................
........................................................................
   1    -87.8368028 -0.878368E+02  0.452E-03    0.96       0.0  T
   2    -87.8368038 -0.974534E-06  0.220E-03    0.96       6.7  T
   3    -87.8368039 -0.720784E-07  0.114E-03    0.96      13.0  T
   4    -87.8368039 -0.861462E-09  0.399E-04    0.96      36.9  T
   5    -87.8368039 -0.776851E-09  0.556E-05    0.96     265.1  T
   6    -87.8368039 -0.102261E-09  0.168E-05    0.96     878.0  T
     SCC iter.                  ...        0 min,  0.036 sec
     gradient                   ...        0 min,  0.063 sec
 * total energy  :   -87.0468022 Eh     change       -0.2269533E-04 Eh
   gradient norm :     0.0022399 Eh/α   predicted    -0.1218496E-04 ( -46.31%)
   displ. norm   :     0.0625029 α      lambda       -0.1477025E-04
   maximum displ.:     0.0360788 α      in ANC's #1, #2, #10, ...

........................................................................
.............................. CYCLE   17 ..............................
........................................................................
   1    -87.8370379 -0.878370E+02  0.157E-03    0.96       0.0  T
   2    -87.8370380 -0.852240E-07  0.883E-04    0.96      16.7  T
   3    -87.8370380 -0.178928E-07  0.422E-04    0.96      34.9  T
   4    -87.8370380 -0.798650E-11  0.950E-05    0.96     155.3  T
   5    -87.8370380 -0.195172E-09  0.209E-05    0.96     705.1  T
     SCC iter.                  ...        0 min,  0.031 sec
     gradient                   ...        0 min,  0.065 sec
 * total energy  :   -87.0468152 Eh     change       -0.1302928E-04 Eh
   gradient norm :     0.0019864 Eh/α   predicted    -0.7415649E-05 ( -43.08%)
   displ. norm   :     0.2684881 α      lambda       -0.3941082E-04
   maximum displ.:     0.1536533 α      in ANC's #1, #2, #10, ...

........................................................................
.............................. CYCLE   18 ..............................
........................................................................
   1    -87.8368150 -0.878368E+02  0.571E-03    0.96       0.0  T
   2    -87.8368163 -0.128336E-05  0.291E-03    0.96       5.1  T
   3    -87.8368165 -0.252645E-06  0.121E-03    0.96      12.2  T
   4    -87.8368165 -0.602128E-09  0.416E-04    0.96      35.5  T
   5    -87.8368165 -0.224495E-08  0.896E-05    0.96     164.6  T
   6    -87.8368165 -0.164334E-09  0.279E-05    0.96     528.5  T
     SCC iter.                  ...        0 min,  0.035 sec
     gradient                   ...        0 min,  0.065 sec
 * total energy  :   -87.0468481 Eh     change       -0.3291734E-04 Eh
   gradient norm :     0.0026698 Eh/α   predicted    -0.2033760E-04 ( -38.22%)
   displ. norm   :     0.0619488 α      lambda       -0.1261377E-04
   maximum displ.:     0.0384362 α      in ANC's #1, #5, #2, ...

........................................................................
.............................. CYCLE   19 ..............................
........................................................................
   1    -87.8373418 -0.878373E+02  0.197E-03    0.96       0.0  T
   2    -87.8373419 -0.114570E-06  0.809E-04    0.96      18.2  T
   3    -87.8373419 -0.127862E-07  0.420E-04    0.96      35.1  T
   4    -87.8373419 -0.375053E-09  0.113E-04    0.96     130.2  T
   5    -87.8373419 -0.825224E-10  0.165E-05    0.96     895.0  T
     SCC iter.                  ...        0 min,  0.020 sec
     gradient                   ...        0 min,  0.067 sec
 * total energy  :   -87.0468583 Eh     change       -0.1016683E-04 Eh
   gradient norm :     0.0021643 Eh/α   predicted    -0.6332230E-05 ( -37.72%)
   displ. norm   :     0.1412518 α      lambda       -0.2454880E-04
   maximum displ.:     0.0886148 α      in ANC's #1, #2, #5, ...

........................................................................
.............................. CYCLE   20 ..............................
........................................................................
   1    -87.8373297 -0.878373E+02  0.339E-03    0.95       0.0  T
   2    -87.8373301 -0.423568E-06  0.167E-03    0.96       8.8  T
   3    -87.8373302 -0.459614E-07  0.866E-04    0.96      17.0  T
   4    -87.8373302 -0.129079E-08  0.289E-04    0.96      51.1  T
   5    -87.8373302 -0.776723E-09  0.577E-05    0.96     255.5  T
   6    -87.8373302 -0.116003E-09  0.147E-05    0.96    1003.3  T
     SCC iter.                  ...        0 min,  0.040 sec
     gradient                   ...        0 min,  0.074 sec
 * total energy  :   -87.0468748 Eh     change       -0.1654466E-04 Eh
   gradient norm :     0.0011329 Eh/α   predicted    -0.1252020E-04 ( -24.32%)
   displ. norm   :     0.1396526 α      lambda       -0.8970349E-05
   maximum displ.:     0.0904516 α      in ANC's #1, #2, #10, ...
 * RMSD in coord.:     0.3624756 α      energy gain  -0.2236542E-01 Eh

generating ANC from model Hessian ...
Using Lindh-Hessian (1995)
 Shifting diagonal of input Hessian by   9.841776563684537E-003
 Lowest  eigenvalues of input Hessian
    0.000000    0.000000    0.000000    0.000000    0.000000    0.000000
    0.010000    0.010098    0.010585    0.010742    0.011141    0.011722
    0.012029    0.013387    0.014212    0.014454    0.015022    0.015176
 Highest eigenvalues
    1.971669    2.005069    2.108314    2.202185    2.333875    2.411276
 

........................................................................
.............................. CYCLE   21 ..............................
........................................................................
   1    -87.8370681 -0.878371E+02  0.290E-03    0.95       0.0  T
   2    -87.8370684 -0.281609E-06  0.145E-03    0.96      10.1  T
   3    -87.8370685 -0.449459E-07  0.656E-04    0.96      22.5  T
   4    -87.8370685 -0.191051E-09  0.190E-04    0.96      77.4  T
   5    -87.8370685 -0.495248E-09  0.481E-05    0.96     306.8  T
     SCC iter.                  ...        0 min,  0.033 sec
     gradient                   ...        0 min,  0.073 sec
 * total energy  :   -87.0468819 Eh     change       -0.7038410E-05 Eh
   gradient norm :     0.0014802 Eh/α   predicted     0.0000000E+00 (-100.00%)
   displ. norm   :     0.0184098 α      lambda       -0.4828833E-05
   maximum displ.:     0.0101712 α      in ANC's #1, #8, #6, ...

........................................................................
.............................. CYCLE   22 ..............................
........................................................................
   1    -87.8372580 -0.878373E+02  0.175E-03    0.96       0.0  T
   2    -87.8372581 -0.849317E-07  0.804E-04    0.96      18.3  T
   3    -87.8372581 -0.101630E-07  0.404E-04    0.96      36.5  T
   4    -87.8372581 -0.376957E-09  0.102E-04    0.96     144.0  T
   5    -87.8372581 -0.620588E-10  0.196E-05    0.96     754.0  T
     SCC iter.                  ...        0 min,  0.033 sec
     gradient                   ...        0 min,  0.072 sec
 * total energy  :   -87.0468865 Eh     change       -0.4579003E-05 Eh
   gradient norm :     0.0004808 Eh/α   predicted    -0.2450963E-05 ( -46.47%)
   displ. norm   :     0.0268974 α      lambda       -0.2882763E-05
   maximum displ.:     0.0165890 α      in ANC's #1, #8, #18, ...

   *** GEOMETRY OPTIMIZATION CONVERGED AFTER 22 ITERATIONS ***

------------------------------------------------------------------------
 total energy gain   :        -0.0223770 Eh      -14.0418 kcal/mol
 total RMSD          :         0.3629283 a0        0.1921 Å
 total power (kW/mol):        -2.6704950 (step)  -19.0699 (real)
------------------------------------------------------------------------

 ANCopt (total)                0 d,  0 h,  0 min,  3.081 sec
 optimizer setup                ...        0 min,  0.001 sec (  0.035%)
 model hessian                  ...        0 min,  0.068 sec (  2.216%)
 ANC generation                 ...        0 min,  0.007 sec (  0.225%)
 coordinate transformation      ...        0 min,  0.001 sec (  0.019%)
 single point calculation       ...        0 min,  2.995 sec ( 97.217%)
 optimization log               ...        0 min,  0.005 sec (  0.167%)
 hessian update                 ...        0 min,  0.001 sec (  0.017%)
 rational function              ...        0 min,  0.002 sec (  0.065%)

================
 final structure:
================
46
 xtb: 6.5.1 (579679a)
C           -6.61766868322557       -2.21345798425436        0.21273258938408
O           -5.60328752846008       -1.26504352199913       -0.14220900425667
C           -4.42468228479161       -1.39968826217296        0.48970460265813
O           -4.22388383323328       -2.26573138086961        1.30813347403031
C           -3.41911082580161       -0.38259455739071        0.08190947270910
N           -2.21332061917374       -0.53684164666114        0.70018231131089
C           -1.22644344047629        0.27811445190391        0.48634362638718
C            0.06614436820156       -0.01420817068980        1.26149880115350
C            0.01823853134001        0.84049900615449        2.53942874656169
C            0.05547772720700       -1.50850261547863        1.64542449912466
N            1.20653141692290        0.29491713447771        0.40238730634226
C            2.61013942570500        0.31174113470695        1.07502122748225
C            3.02380571241135        1.81966629256090        1.11551773456056
O            2.72122309987041       -0.31737229770398        2.20576028607544
C            3.49440720156106       -0.35154525677947       -0.03010603332106
N            3.19844041269006       -1.37984649818686       -0.76149278245550
N            4.33173776985653       -1.70160428125930       -1.48442621135685
C            5.23505449280758       -0.84910108700025       -1.13508706900294
C            6.63183242491131       -0.75511385947047       -1.62577188791773
O            4.77827943846466        0.02991075331254       -0.22067808691964
N           -1.36723140043700        1.35120647874355       -0.35788887729741
C           -0.30926624828209        2.34208328301695       -0.57154744849031
C           -2.52379013117789        1.56728821563183       -1.09419828943245
O           -2.60905872237778        2.49520016016084       -1.89249181573675
C           -3.60910496120162        0.62688823329942       -0.82491138456299
O           -4.73222245000597        0.86917330656040       -1.52283094554404
H           -6.88276612059147       -2.09835791307482        1.26604773138422
H           -7.47738928668281       -2.00288660912660       -0.41821528433026
H           -6.25681846872614       -3.22943119407788        0.03742368969655
H           -0.89971098519321        0.61813561058740        3.08360684263962
H            0.03048141679695        1.90382845979907        2.30666262661289
H            0.87071720262454        0.60895292594830        3.17687095377934
H           -0.78817406162456       -1.72716634035224        2.29912852048557
H           -0.02757896013530       -2.12406201820279        0.74971045577559
H            0.98074383843890       -1.75704599096871        2.16339221864975
H            1.23400815168344       -0.42233694262684       -0.32423710471931
H            4.05772427233199        1.89140350047806        1.45008017553080
H            2.92654102474569        2.27481327846853        0.13170475796882
H            2.38812579372632        2.34652509700026        1.82386515045051
H            7.32992163530427       -0.80696977504756       -0.79071992290409
H            6.78712346319936        0.19501991895918       -2.13649245316260
H            6.83189709210014       -1.57039004504167       -2.31654721844314
H            0.21371596478177        2.53901798690196        0.35827917784480
H            0.39962062229223        1.97319940504760       -1.31225741569371
H           -0.76868496472826        3.26192655664968       -0.93253147921608
H           -5.44173952365218        0.23978705806860       -1.31479026383044
 
 Bond Distances (Angstroems)
 ---------------------------
C1-O2=1.4333         C1-H27=1.0922        C1-H28=1.0870        C1-H29=1.0923        O2-C1=1.4333         O2-C3=1.3441         
C3-O2=1.3441         C3-O4=1.2084         C3-C5=1.4873         O4-C3=1.2084         C5-C3=1.4873         C5-N6=1.3638         
C5-C25=1.3702        N6-C5=1.3638         N6-C7=1.2976         C7-N6=1.2976         C7-C8=1.5353         C7-N21=1.3726        
C8-C7=1.5353         C8-C9=1.5382         C8-C10=1.5429        C8-N11=1.4609        C9-C8=1.5382         C9-H30=1.0900        
C9-H31=1.0886        C9-H32=1.0893        C10-C8=1.5429        C10-H33=1.0894       C10-H34=1.0900       C10-H35=1.0891       
N11-C8=1.4609        N11-C12=1.5565       N11-H36=1.0214       C12-N11=1.5565       C12-C13=1.5642       C12-O14=1.2987       
C12-C15=1.5631       C13-C12=1.5642       C13-H37=1.0891       C13-H38=1.0884       C13-H39=1.0879       O14-C12=1.2987       
C15-C12=1.5631       C15-N16=1.2961       C15-O20=1.3528       N16-C15=1.2961       N16-N17=1.3822       N17-N16=1.3822       
N17-C18=1.2903       C18-N17=1.2903       C18-C19=1.4834       C18-O20=1.3481       C19-C18=1.4834       C19-H40=1.0896       
C19-H41=1.0898       C19-H42=1.0871       O20-C15=1.3528       O20-C18=1.3481       N21-C7=1.3726        N21-C22=1.4652       
N21-C23=1.3880       C22-N21=1.4652       C22-H43=1.0848       C22-H44=1.0896       C22-H45=1.0897       C23-N21=1.3880       
C23-O24=1.2270       C23-C25=1.4611       O24-C23=1.2270       C25-C5=1.3702        C25-C23=1.4611       C25-O26=1.3443       
O26-C25=1.3443       O26-H46=0.9710       H27-C1=1.0922        H28-C1=1.0870        H29-C1=1.0923        H30-C9=1.0900        
H31-C9=1.0886        H32-C9=1.0893        H33-C10=1.0894       H34-C10=1.0900       H35-C10=1.0891       H36-N11=1.0214       
H37-C13=1.0891       H38-C13=1.0884       H39-C13=1.0879       H40-C19=1.0896       H41-C19=1.0898       H42-C19=1.0871       
H43-C22=1.0848       H44-C22=1.0896       H45-C22=1.0897       H46-O26=0.9710       
 C  H  Rav=1.0891 sigma=0.0017  Rmin=1.0848  Rmax=1.0923    18
 C  C  Rav=1.5051 sigma=0.0589  Rmin=1.3702  Rmax=1.5642     9
 N  H  Rav=1.0214 sigma=0.0000  Rmin=1.0214  Rmax=1.0214     1
 N  C  Rav=1.3879 sigma=0.0861  Rmin=1.2903  Rmax=1.5565     9
 N  N  Rav=1.3822 sigma=0.0000  Rmin=1.3822  Rmax=1.3822     1
 O  H  Rav=0.9710 sigma=0.0000  Rmin=0.9710  Rmax=0.9710     1
 O  C  Rav=1.3196 sigma=0.0684  Rmin=1.2084  Rmax=1.4333     8
 
 selected bond angles (degree)
 --------------------
H27-C1-O2=109.93               H28-C1-O2=106.73               H28-C1-H27=110.33              H29-C1-O2=109.99               
H29-C1-H27=109.45              H29-C1-H28=110.38              C3-O2-C1=115.97                O4-C3-O2=122.41                
C5-C3-O2=113.29                C5-C3-O4=124.30                N6-C5-C3=113.34                C25-C5-C3=126.27               
C25-C5-N6=120.39               C7-N6-C5=121.78                C8-C7-N6=115.95                N21-C7-N6=120.95               
N21-C7-C8=123.08               C9-C8-C7=106.71                C10-C8-C7=107.71               C10-C8-C9=109.34               
N11-C8-C7=108.66               N11-C8-C9=113.29               N11-C8-C10=110.90              H30-C9-C8=109.13               
H31-C9-C8=111.39               H31-C9-H30=108.39              H32-C9-C8=110.10               H32-C9-H30=108.88              
H32-C9-H31=108.90              H33-C10-C8=110.43              H34-C10-C8=110.06              H34-C10-H33=108.71             
H35-C10-C8=109.48              H35-C10-H33=109.07             H35-C10-H34=109.07             
 
 selected dihedral angles (degree)
 ---------------------------------
C3-O2-C1-H27= 63.34           C3-O2-C1-H28=183.00           C3-O2-C1-H29=302.76           O4-C3-O2-C1=  0.05            
C5-C3-O2-C1=180.27            N6-C5-C3-O2=181.40            N6-C5-C3-O4=  1.63            C25-C5-C3-O2=  0.80           
C25-C5-C3-O4=181.03           C7-N6-C5-C3=181.49            C7-N6-C5-C25=  2.04           C8-C7-N6-C5=179.52            
N21-C7-N6-C5=  1.28           C9-C8-C7-N6=265.83            C9-C8-C7-N21= 84.03           C10-C8-C7-N6= 23.14           
C10-C8-C7-N21=201.34          N11-C8-C7-N6=143.35           N11-C8-C7-N21=321.55          H30-C9-C8-C7= 55.52           
H30-C9-C8-C10=299.29          H30-C9-C8-N11=175.05          H31-C9-C8-C7=295.89           H31-C9-C8-C10=179.65          
H31-C9-C8-N11= 55.42          H32-C9-C8-C7=174.96           H32-C9-C8-C10= 58.73          H32-C9-C8-N11=294.50          
H33-C10-C8-C7=297.85          H33-C10-C8-C9= 53.44          H33-C10-C8-N11=179.06         H34-C10-C8-C7= 57.87          
H34-C10-C8-C9=173.46          H34-C10-C8-N11=299.09         H35-C10-C8-C7=177.74          H35-C10-C8-C9=293.33          
H35-C10-C8-N11= 58.96         
           -------------------------------------------------
          |                Final Singlepoint                |
           -------------------------------------------------

          ...................................................
          :                      SETUP                      :
          :.................................................:
          :  # basis functions                 144          :
          :  # atomic orbitals                 144          :
          :  # shells                           92          :
          :  # electrons                       142          :
          :  # halogen bonds                     0          :
          :  max. iterations                   250          :
          :  Hamiltonian                  GFN1-xTB          :
          :  restarted?                      false          :
          :  GBSA solvation                   true          :
          :  PC potential                    false          :
          :  electronic temp.          300.0000000     K    :
          :  accuracy                    1.0000000          :
          :  -> integral cutoff          0.2500000E+02      :
          :  -> integral neglect         0.1000000E-07      :
          :  -> SCF convergence          0.1000000E-05 Eh   :
          :  -> wf. convergence          0.2000000E-04 e    :
          :  Broyden damping             0.4000000          :
          ...................................................

 iter      E             dE          RMSdq      gap      omega  full diag
   1    -87.8372581 -0.878373E+02  0.569E-06    0.96       0.0  T
   2    -87.8372581 -0.397904E-12  0.243E-06    0.96    6062.5  T
   3    -87.8372581 -0.270006E-12  0.119E-06    0.96   12372.0  T

   *** convergence criteria satisfied after 3 iterations ***

         #    Occupation            Energy/Eh            Energy/eV
      -------------------------------------------------------------
         1        2.0000           -0.8387592             -22.8238
       ...           ...                  ...                  ...
        65        2.0000           -0.4290065             -11.6739
        66        2.0000           -0.4171084             -11.3501
        67        2.0000           -0.4131733             -11.2430
        68        2.0000           -0.4125577             -11.2263
        69        2.0000           -0.3792868             -10.3209
        70        2.0000           -0.3511457              -9.5552
        71        2.0000           -0.3479137              -9.4672 (HOMO)
        72                         -0.3127870              -8.5114 (LUMO)
        73                         -0.2647838              -7.2051
        74                         -0.2311880              -6.2909
        75                         -0.2282551              -6.2111
        76                         -0.2132164              -5.8019
       ...                                ...                  ...
       144                          0.7361005              20.0303
      -------------------------------------------------------------
                  HL-Gap            0.0351268 Eh            0.9558 eV
             Fermi-level           -0.3303348 Eh           -8.9889 eV

 SCC (total)                   0 d,  0 h,  0 min,  0.127 sec
 SCC setup                      ...        0 min,  0.002 sec (  1.483%)
 Dispersion                     ...        0 min,  0.000 sec (  0.257%)
 classical contributions        ...        0 min,  0.000 sec (  0.085%)
 integral evaluation            ...        0 min,  0.030 sec ( 24.049%)
 iterations                     ...        0 min,  0.020 sec ( 15.966%)
 molecular gradient             ...        0 min,  0.072 sec ( 57.003%)
 printout                       ...        0 min,  0.001 sec (  1.137%)

         :::::::::::::::::::::::::::::::::::::::::::::::::::::
         ::                     SUMMARY                     ::
         :::::::::::::::::::::::::::::::::::::::::::::::::::::
         :: total energy             -87.046886457171 Eh    ::
         :: total w/o Gsasa/hb       -87.024975660706 Eh    ::
         :: gradient norm              0.000481175186 Eh/a0 ::
         :: HOMO-LUMO gap              0.955847591783 eV    ::
         ::.................................................::
         :: SCC energy               -87.837258067006 Eh    ::
         :: -> electrostatic           0.481029650843 Eh    ::
         :: -> Gsolv                  -0.116128864084 Eh    ::
         ::    -> Gelec               -0.094218067619 Eh    ::
         ::    -> Gsasa               -0.024709142692 Eh    ::
         ::    -> Ghb                 -0.004825932778 Eh    ::
         ::    -> Gshift               0.007624279005 Eh    ::
         :: repulsion energy           0.820161442211 Eh    ::
         :: dispersion energy         -0.029789832375 Eh    ::
         :: halogen bond corr.         0.000000000000 Eh    ::
         :: add. restraining           0.000000000000 Eh    ::
         :: total charge              -0.999999999377 e     ::
         :::::::::::::::::::::::::::::::::::::::::::::::::::::

           -------------------------------------------------
          |                Property Printout                |
           -------------------------------------------------

    * Orbital Energies and Occupations

         #    Occupation            Energy/Eh            Energy/eV
      -------------------------------------------------------------
         1        2.0000           -0.8387592             -22.8238
       ...           ...                  ...                  ...
        59        2.0000           -0.4634685             -12.6116
        60        2.0000           -0.4617599             -12.5651
        61        2.0000           -0.4562814             -12.4160
        62        2.0000           -0.4485124             -12.2046
        63        2.0000           -0.4427699             -12.0484
        64        2.0000           -0.4389550             -11.9446
        65        2.0000           -0.4290065             -11.6739
        66        2.0000           -0.4171084             -11.3501
        67        2.0000           -0.4131733             -11.2430
        68        2.0000           -0.4125577             -11.2263
        69        2.0000           -0.3792868             -10.3209
        70        2.0000           -0.3511457              -9.5552
        71        2.0000           -0.3479137              -9.4672 (HOMO)
        72                         -0.3127870              -8.5114 (LUMO)
        73                         -0.2647838              -7.2051
        74                         -0.2311880              -6.2909
        75                         -0.2282551              -6.2111
        76                         -0.2132164              -5.8019
        77                         -0.1457096              -3.9650
        78                         -0.1354912              -3.6869
        79                         -0.1297662              -3.5311
        80                         -0.1229655              -3.3461
        81                         -0.1059849              -2.8840
        82                         -0.0910431              -2.4774
       ...                                ...                  ...
       144                          0.7361005              20.0303
      -------------------------------------------------------------
                  HL-Gap            0.0351268 Eh            0.9558 eV
             Fermi-level           -0.3303348 Eh           -8.9889 eV

  Mulliken/CM5 charges         n(s)   n(p)   n(d)
     1C     0.16487  0.04356   0.981  2.854  0.000
     2O    -0.43179 -0.53021   1.693  4.739  0.000
     3C     0.57332  0.63900   0.974  2.452  0.000
     4O    -0.55530 -0.60012   1.724  4.831  0.000
     5C     0.06254  0.13994   1.044  2.893  0.000
     6N    -0.38012 -0.56894   1.522  3.858  0.000
     7C     0.27061  0.42156   1.038  2.691  0.000
     8C     0.17171  0.21101   1.060  2.768  0.000
     9C    -0.09044 -0.23121   1.015  3.075  0.000
    10C    -0.09126 -0.22959   1.016  3.075  0.000
    11N    -0.48409 -0.81679   1.505  3.979  0.000
    12C     0.38922  0.45201   1.009  2.601  0.000
    13C    -0.12551 -0.26348   1.024  3.101  0.000
    14O    -0.79345 -0.84575   1.747  5.046  0.000
    15C     0.33753  0.45924   1.055  2.608  0.000
    16N    -0.29890 -0.41199   1.574  3.725  0.000
    17N    -0.30692 -0.41586   1.575  3.732  0.000
    18C     0.36888  0.47857   0.997  2.634  0.000
    19C    -0.11078 -0.24822   1.009  3.102  0.000
    20O    -0.37361 -0.42895   1.701  4.673  0.000
    21N    -0.20578 -0.45261   1.456  3.750  0.000
    22C     0.06078 -0.02580   0.989  2.950  0.000
    23C     0.43692  0.54005   0.985  2.578  0.000
    24O    -0.59552 -0.63916   1.729  4.866  0.000
    25C     0.21906  0.25329   1.027  2.754  0.000
    26O    -0.51347 -0.70659   1.690  4.824  0.000
    27H     0.05377  0.11530   0.946  0.000  0.000
    28H     0.05527  0.11567   0.945  0.000  0.000
    29H     0.05430  0.11646   0.946  0.000  0.000
    30H     0.01842  0.07401   0.982  0.000  0.000
    31H     0.02286  0.08009   0.977  0.000  0.000
    32H     0.05551  0.11728   0.944  0.000  0.000
    33H     0.01729  0.07638   0.983  0.000  0.000
    34H     0.01711  0.07548   0.983  0.000  0.000
    35H     0.04620  0.10895   0.954  0.000  0.000
    36H     0.18441  0.38936   0.816  0.000  0.000
    37H     0.02173  0.07952   0.978  0.000  0.000
    38H     0.00569  0.06326   0.994  0.000  0.000
    39H     0.01827  0.07529   0.982  0.000  0.000
    40H     0.06180  0.11627   0.938  0.000  0.000
    41H     0.06168  0.11604   0.938  0.000  0.000
    42H     0.05378  0.10957   0.946  0.000  0.000
    43H     0.04688  0.11657   0.953  0.000  0.000
    44H     0.04945  0.11625   0.951  0.000  0.000
    45H     0.06099  0.13146   0.939  0.000  0.000
    46H     0.39608  0.58383   0.604  0.000  0.000

Wiberg/Mayer (AO) data.
largest (>0.10) Wiberg bond orders for each atom

 ---------------------------------------------------------------------------
     #   Z sym  total        # sym  WBO       # sym  WBO       # sym  WBO
 ---------------------------------------------------------------------------
     1   6 C    3.866 --    28 H    0.986    29 H    0.980    27 H    0.980
                             2 O    0.889
     2   8 O    2.198 --     3 C    1.080     1 C    0.889     4 O    0.127
     3   6 C    3.842 --     4 O    1.669     2 O    1.080     5 C    1.009
     4   8 O    1.929 --     3 C    1.669     2 O    0.127
     5   6 C    3.966 --    25 C    1.486     6 N    1.196     3 C    1.009
     6   7 N    3.026 --     7 C    1.552     5 C    1.196
     7   6 C    3.907 --     6 N    1.552    21 N    1.173     8 C    0.965
     8   6 C    3.963 --    10 C    0.985    11 N    0.983     9 C    0.977
                             7 C    0.965
     9   6 C    3.993 --    30 H    0.987    31 H    0.980     8 C    0.977
                            32 H    0.972
    10   6 C    3.994 --    34 H    0.986    33 H    0.985     8 C    0.985
                            35 H    0.975
    11   7 N    2.997 --     8 C    0.983    36 H    0.942    12 C    0.830
    12   6 C    3.934 --    14 O    1.218    13 C    0.943    15 C    0.887
                            11 N    0.830
    13   6 C    3.992 --    38 H    0.990    37 H    0.985    39 H    0.984
                            12 C    0.943
    14   8 O    1.575 --    12 C    1.218
    15   6 C    3.810 --    16 N    1.651    20 O    1.049    12 C    0.887
    16   7 N    2.981 --    15 C    1.651    17 N    1.147
    17   7 N    2.976 --    18 C    1.657    16 N    1.147
    18   6 C    3.886 --    17 N    1.657    20 O    1.061    19 C    1.024
    19   6 C    3.993 --    18 C    1.024    42 H    0.985    40 H    0.971
                            41 H    0.969
    20   8 O    2.296 --    18 C    1.061    15 C    1.049
    21   7 N    3.514 --     7 C    1.173    23 C    1.131    22 C    0.929
                            24 O    0.137
    22   6 C    3.924 --    43 H    0.977    45 H    0.977    44 H    0.975
                            21 N    0.929
    23   6 C    3.918 --    24 O    1.560    21 N    1.131    25 C    1.077
    24   8 O    1.876 --    23 C    1.560    21 N    0.137
    25   6 C    3.917 --     5 C    1.486    26 O    1.090    23 C    1.077
    26   8 O    2.071 --    25 C    1.090    46 H    0.808
    27   1 H    1.007 --     1 C    0.980
    28   1 H    1.010 --     1 C    0.986
    29   1 H    1.008 --     1 C    0.980
    30   1 H    1.008 --     9 C    0.987
    31   1 H    1.009 --     9 C    0.980
    32   1 H    1.028 --     9 C    0.972
    33   1 H    1.018 --    10 C    0.985
    34   1 H    1.011 --    10 C    0.986
    35   1 H    1.033 --    10 C    0.975
    36   1 H    0.992 --    11 N    0.942
    37   1 H    1.016 --    13 C    0.985
    38   1 H    1.014 --    13 C    0.990
    39   1 H    1.016 --    13 C    0.984
    40   1 H    1.001 --    19 C    0.971
    41   1 H    1.002 --    19 C    0.969
    42   1 H    1.002 --    19 C    0.985
    43   1 H    1.028 --    22 C    0.977
    44   1 H    1.024 --    22 C    0.975
    45   1 H    1.012 --    22 C    0.977
    46   1 H    0.859 --    26 O    0.808
 ---------------------------------------------------------------------------

Topologies differ in total number of bonds
Writing topology from bond orders to xtbtopo.mol

 dipole moment from electron density (au)
     X       Y       Z   
  -3.1010   0.7612  -1.9935  total (Debye):    9.568

           -------------------------------------------------
          |                Geometry Summary                 |
           -------------------------------------------------

      molecular mass/u    :      366.3497991
   center of mass at/Å    :       -0.2425973      -0.0791762       0.0755261
  moments of inertia/u·Å² :        0.1210941E+04   0.5426414E+04   0.5680760E+04
rotational constants/cm⁻¹ :        0.1392111E-01   0.3106588E-02   0.2967496E-02

 * 38 selected distances

     #   Z          #   Z                                           value/Å
     1   6 C        2   8 O                                       1.4333328
     2   8 O        3   6 C                                       1.3440813
     3   6 C        4   8 O                                       1.2083778
     5   6 C        6   7 N                                       1.3638122
     6   7 N        7   6 C                                       1.2976160
     8   6 C        9   6 C                                       1.5381563 (max)
     8   6 C       11   7 N                                       1.4608607
    15   6 C       16   7 N                                       1.2961199
    17   7 N       18   6 C                                       1.2902639
    18   6 C       19   6 C                                       1.4834400
    15   6 C       20   8 O                                       1.3528321
    18   6 C       20   8 O                                       1.3481281
     7   6 C       21   7 N                                       1.3726167
    21   7 N       22   6 C                                       1.4651886
    21   7 N       23   6 C                                       1.3879738
    23   6 C       24   8 O                                       1.2270143
     5   6 C       25   6 C                                       1.3702108
    25   6 C       26   8 O                                       1.3443166
     1   6 C       27   1 H                                       1.0922443
     1   6 C       28   1 H                                       1.0869937
     1   6 C       29   1 H                                       1.0923131
     9   6 C       30   1 H                                       1.0900490
     9   6 C       31   1 H                                       1.0885769
     9   6 C       32   1 H                                       1.0893421
    10   6 C       33   1 H                                       1.0894454
    10   6 C       34   1 H                                       1.0900072
    10   6 C       35   1 H                                       1.0891198
    11   7 N       36   1 H                                       1.0213675
    13   6 C       37   1 H                                       1.0890666
    13   6 C       38   1 H                                       1.0883508
    13   6 C       39   1 H                                       1.0878536
    19   6 C       40   1 H                                       1.0896465
    19   6 C       41   1 H                                       1.0898189
    19   6 C       42   1 H                                       1.0871393
    22   6 C       43   1 H                                       1.0848371
    22   6 C       44   1 H                                       1.0896088
    22   6 C       45   1 H                                       1.0897187
    26   8 O       46   1 H                                       0.9709905 (min)

 * 6 distinct bonds (by element types)

   Z      Z             #   av. dist./Å        max./Å        min./Å
   1 H    6 C          18     1.0891184     1.0923131     1.0848371
   6 C    6 C           3     1.4639357     1.5381563     1.3702108
   1 H    7 N           1     1.0213675     1.0213675     1.0213675
   6 C    7 N           8     1.3668065     1.4651886     1.2902639
   1 H    8 O           1     0.9709905     0.9709905     0.9709905
   6 C    8 O           7     1.3225833     1.4333328     1.2083778


optimized geometry written to: xtbopt.xyz


           -------------------------------------------------
          | TOTAL ENERGY              -87.046886457171 Eh   |
          | GRADIENT NORM               0.000481175186 Eh/α |
          | HOMO-LUMO GAP               0.955847591783 eV   |
           -------------------------------------------------

------------------------------------------------------------------------
 * finished run on 2023/06/20 at 15:15:10.552     
------------------------------------------------------------------------
 total:
 * wall-time:     0 d,  0 h,  0 min,  3.496 sec
 *  cpu-time:     0 d,  0 h,  0 min,  3.428 sec
 * ratio c/w:     0.980 speedup
 SCF:
 * wall-time:     0 d,  0 h,  0 min,  0.192 sec
 *  cpu-time:     0 d,  0 h,  0 min,  0.179 sec
 * ratio c/w:     0.932 speedup
 ANC optimizer:
 * wall-time:     0 d,  0 h,  0 min,  3.213 sec
 *  cpu-time:     0 d,  0 h,  0 min,  3.207 sec
 * ratio c/w:     0.998 speedup

