38
 energy: -79.621477382422 gnorm: 0.000520803474 xtb: 6.5.1 (579679a)
C            6.06186708152579        1.83577257995745        1.49524997011152
O            5.08173035788144        1.52142217849529        0.51709221686076
C            4.02477335274281        0.78873180283265        0.95285118286928
O            3.95160349294019        0.43883461422770        2.12585990242295
C            3.03622616861477        0.48027219207482       -0.06838170024621
N            1.97979695673523       -0.26719883011345        0.41936817672350
C            1.01992590727335       -0.63022159195073       -0.34819361952469
C           -0.11411632657911       -1.47189531406028        0.21659951701952
C           -0.27378631675997       -2.78518808337518       -0.55861345508593
C            0.17748674101258       -1.77328775423237        1.68843061022857
N           -1.37643007081213       -0.70683803616958        0.18996692439660
C           -2.13752689357089       -0.47064940416391       -0.89128501149354
O           -1.86367389308205       -0.75551105020063       -2.04689230945216
C           -3.39821723721074        0.22250928999683       -0.51025305475830
N           -3.74066732984328        0.58988547893337        0.68793212199047
N           -4.96466706418793        1.18100061466150        0.58316125334984
C           -5.29037115529468        1.13517418150228       -0.67260594138829
C           -6.52943213006320        1.64101088373532       -1.30278736151819
O           -4.34172914516946        0.54412552375131       -1.41381921537812
N            0.99405768077872       -0.29632429102544       -1.68459979695664
C            1.96374340875558        0.44955204084095       -2.30003297458075
O            1.86233792655651        0.72229541887597       -3.49477000209705
C            3.11796626433561        0.88900539824823       -1.42510829313148
O            4.03119475488359        1.56123834690962       -1.93942084259262
H            5.61755631548909        2.39416654404563        2.32539828716667
H            6.81940086296021        2.44604164634292        1.00487822569314
H            6.52114596888563        0.92445293827817        1.89121554735462
H            0.63168003064512       -3.37937078471775       -0.44286396743371
H           -0.44149446247594       -2.60640178780032       -1.61839030770205
H           -1.11751623073677       -3.34671169910496       -0.16077555259974
H           -0.62941200520729       -2.36456325886605        2.11652498113982
H            1.10929903649005       -2.33121645357822        1.76807797150471
H            0.28304310167266       -0.84594486619169        2.25059512977054
H           -1.76065966817407       -0.44348505776582        1.08498081340514
H           -7.18488563874152        2.05389600872500       -0.54048645674504
H           -6.28960502772130        2.41276081850948       -2.03407042824560
H           -7.03914063736798        0.83042427645781       -1.82287795768950
H            0.20849582281404       -0.58776251407533       -2.25186758338553
