42
 energy: -82.989698126458 gnorm: 0.000579115677 xtb: 6.5.1 (579679a)
C            6.23332771304212        0.04380464379774       -0.55541620748962
O            4.81942629541509       -0.10054197416831       -0.37933099404710
C            4.42276691830609       -0.98944294545590        0.51742922219258
O            5.19360722891391       -1.66678784960266        1.17372483592587
C            2.94835939484842       -1.09020525224536        0.65558590578910
N            2.17825958602642       -0.30211370748813       -0.11851492678065
C            0.87209539649435       -0.38597828846755        0.00405033951744
C            0.04494027308266        0.48671866866726       -0.91691125170590
C            0.58954596269756        1.92055438557419       -0.89627782761769
C            0.12577590409054       -0.11432701074796       -2.32999278228104
N           -1.33815936130034        0.46699994739008       -0.44135842999820
C           -2.33717592929401        1.09580943249806       -1.06233932538707
O           -2.23756841371479        1.78326296950712       -2.06546474232001
C           -3.72775287581946        0.87341375379659       -0.41567490595606
C           -4.61429534084165        0.08267089257951       -1.37781440715951
N           -4.33018708013708        2.17684791681399       -0.14723397989814
N           -4.58321534037966        2.28613121413014        1.06112523621087
C           -4.19628172865688        1.11857026565201        1.74019473249443
C           -4.36079594758964        0.90976490316927        3.04365865471894
O           -3.64489614525065        0.25191387223434        0.84851875879134
N            0.23655173977074       -1.21851124057441        0.84364869454822
C            0.96136319511815       -2.00864033930216        1.60845349261616
O            0.35026440661245       -2.85376852551582        2.43829602318198
C            2.38117039164232       -1.98232582858293        1.55893067729435
O            3.08008772340181       -2.79665832564947        2.35684574909099
H            6.66536700156887       -0.90217191111571       -0.88872060420331
H            6.37542036457418        0.81411696907182       -1.31026074802452
H            6.69720810864834        0.34167746373247        0.38736398413634
H            0.47890593705194        2.34493978767330        0.10062972556120
H            1.64651828779943        1.90349252465417       -1.15803091054280
H            0.05291507636645        2.54080434199760       -1.61199428022867
H           -0.40704601294756        0.51356225038786       -3.04154796909185
H            1.17080340098573       -0.18514610231067       -2.62718935614051
H           -0.31333263960994       -1.11056666781939       -2.33255292412790
H           -1.53658561116744       -0.12965663458965        0.35139922032446
H           -5.62285766404686        0.02154967917908       -0.97496713133785
H           -4.21121079424221       -0.92055477989941       -1.49299954595453
H           -4.63112705099936        0.58559602816023       -2.34271767685322
H           -0.60918946462555       -2.78828081329557        2.34945083868719
H           -4.05802074689497       -0.01168911735908        3.51167694826536
H           -4.81009574632554        1.66976823819620        3.66014780885430
H            4.04511658737544       -2.67460283468025        2.20771907895089
