16
 energy: -34.171460296068 gnorm: 0.000748775823 xtb: 6.5.1 (579679a)
C           -1.42874136743785       -0.94196845733217       -1.03589604993999
C           -0.58459093030209        0.12241057848863       -0.32348728411877
C           -1.46895374896230        1.18428352485895        0.34325971527897
N            0.31065571431942        0.77304333011467       -1.29730839960789
N            1.51751973861236        0.56945727150916       -0.93433594582445
C            1.56810679465980       -0.16174505132698        0.19393525321376
C            2.68371941801872       -0.57762597088756        0.88792151412633
O            2.82272750852829       -1.23792966482508        1.90357004315706
Cl           4.22638418065016        0.02320466012939        0.05980719311164
O            0.27228927033204       -0.48147989246160        0.63147997380698
H           -2.04954724734962       -0.47128205387799       -1.79499490512798
H           -0.77076328379485       -1.66737257140881       -1.51166951562359
H           -2.06463807271456       -1.45569148565759       -0.31751892575677
H           -2.12218524198743        0.71904062640090        1.07887367361293
H           -2.07300224641531        1.68420418770540       -0.41069878897753
H           -0.83898148615592        1.91945096857222        0.84137844866989
