42
 energy: -82.986322950772 gnorm: 0.000295473311 xtb: 6.5.1 (579679a)
C           -1.84973279498560       -2.77642298378015        2.89430889255184
O           -1.66725817018053       -1.77626422534047        1.88704697774916
C           -2.75900268507008       -1.38701657827808        1.23859928425576
O           -3.87087969437508       -1.84864077137475        1.48413570060531
C           -2.53554650534640       -0.35660906587680        0.22618573934139
C           -3.60080598589607        0.05767590832503       -0.52793592671438
O           -4.83171692909674       -0.37795314931297       -0.35749937541714
C           -2.92703243580671        2.17457478202111       -1.12287386866199
C           -3.84713460817298        3.33170743722418       -1.27198927477263
O           -3.47292878768532        0.95612846600865       -1.54678002057180
N           -1.75247154223353        2.27449048459335       -0.68111661332106
C           -0.90082940122585        1.18946254982299       -0.46800306754472
C            0.55897079268080        1.53206064206973       -0.69662715973436
C            0.75153302086160        1.98215977445582       -2.15156659534729
C            0.96989912921739        2.64493209301873        0.27911927788214
N            1.33383431123727        0.32348340746360       -0.43772201596567
C            2.67337728593746        0.25733188380250       -0.51013630522847
O            3.41588014404591        1.17232703806954       -0.82870761119880
C            3.16241614488317       -1.10143402894083       -0.15115379663099
N            2.43017667354627       -2.12942721066126        0.15581905872864
N            3.28637156801606       -3.15998486049832        0.40968297058846
C            4.48634225363583       -2.69346582296182        0.24208786396204
C            5.76798292626426       -3.41421521173434        0.40704013397383
O            4.47434601754583       -1.40037385284606       -0.11374962398066
N           -1.21591201444738        0.04758240222058        0.00417939083617
H           -2.58300760558849       -2.43818796576641        3.62965967889881
H           -0.88052340666219       -2.92404413523527        3.36654698933191
H           -2.19687664066284       -3.70685507990531        2.43901260582689
H           -4.82800362638697       -1.04060363032432        0.39852026849510
H           -4.13300519258453        3.43649376683563       -2.31860249892666
H           -4.75529585326053        3.15060470577576       -0.69752098767492
H           -3.36335312983563        4.24139116396745       -0.92676685265815
H            0.10599358731756        2.83577350763897       -2.35136656755684
H            0.48963423653271        1.17092129479464       -2.82943298323729
H            1.78705300103734        2.27121636105942       -2.32187770921520
H            0.31673383865150        3.50402885114035        0.13678368993376
H            1.99995211282531        2.94424108274371        0.09367498490933
H            0.87755416100132        2.29384061429976        1.30575551472330
H            0.80804455442619       -0.49372631256377       -0.14451657298998
H            6.34379704388824       -3.36907117051797       -0.51695753110313
H            5.57309282650139       -4.45175094316624        0.66634459586015
H            6.35832837945220       -2.94638021826467        1.19494633999232
