33
 energy: -58.554587975763 gnorm: 0.000387494827 xtb: 6.5.1 (579679a)
C            4.91671590611252        0.04760979999096       -0.95214069189414
O            3.74589291695734       -0.21439287113737       -0.18000292686545
C            2.58905872478576        0.28114533980443       -0.67493728240562
O            2.57941008406880        0.90879330517737       -1.71554883838222
C            1.38027557969681       -0.02277177127504        0.14007965354661
C            1.41721586460845       -0.42473399280848        1.48236547103240
O            2.59144574701923       -0.66797720600382        2.20817996788822
C            0.20878180089483       -0.44215377807178        2.24150880244050
O            0.09825478210585       -0.67617363294576        3.45781359956506
N           -0.93045365178170       -0.05575699856486        1.52507198472497
C           -0.97608115598565       -0.25719080102205        0.07974006516964
C           -1.20574190523350       -1.75834175307282       -0.22832120118241
C           -2.10532879831057        0.65583113828956       -0.50417791837712
C           -2.09258662993677        0.61820392715650       -2.03798663993003
C           -3.50415046337588        0.29032268808278        0.00291474827500
N           -1.82344433206490        2.03321223845499       -0.09056924714207
N            0.25992767531830        0.15903004609206       -0.54850813011450
H            4.80764942337007       -0.36428326123374       -1.95924412942150
H            5.09165778962101        1.12476688178957       -1.02389138264171
H            5.74933957960271       -0.43239322880071       -0.44205583852180
H            3.31159913868860       -0.91460584702145        1.61491694103641
H           -1.78615394881865       -0.30505521500257        2.00092666766606
H           -1.24292786236953       -1.91884720925597       -1.30391186829142
H           -2.13186795068324       -2.11065371877695        0.22127580633252
H           -0.37845344991760       -2.33876586072493        0.18017748233135
H           -1.07812010819891        0.77513705124715       -2.40811177938468
H           -2.73607724274304        1.40787217338462       -2.42770076011377
H           -2.45772523563013       -0.33924351173671       -2.40830229395027
H           -4.22207058896835        1.02574944350994       -0.36260877429879
H           -3.80670601741133       -0.69235256850753       -0.35596196343632
H           -3.54430216732053        0.29208619363670        1.09153351828597
H           -1.86081148188413        2.07128384076333        0.92357766964649
H           -0.86422002221662        2.24465115858043       -0.36171671158895
