42
 energy: -83.668578990325 gnorm: 0.000206750131 xtb: 6.5.1 (579679a)
C            6.81197740344867        1.66586153528803        0.70443815132546
O            5.54484291125887        1.76317470038806        0.07451990193926
C            4.66776304454737        0.76004261252637        0.35128063566068
O            4.98799399368833       -0.14754577416011        1.11292611496767
C            3.38516968234301        0.87044326266896       -0.32163456515025
N            2.53056349493951       -0.17784729907683       -0.02098342561492
C            1.36371255093979       -0.24074333409552       -0.54691572677592
C            0.46122468675740       -1.43707487314902       -0.30071711020663
C            0.77585536266089       -2.04474208654971        1.07461122751714
C            0.75602834148338       -2.44922533904896       -1.42293741751161
N           -0.92419183914917       -0.97702174537640       -0.37949417402572
C           -1.98431450240761       -1.87971664339541       -0.14396417873666
O           -1.83238554997361       -3.11726276985548       -0.22129733774824
C           -3.21629071926714       -1.24702501825420        0.12381493841636
N           -4.38650931963573       -1.83555564662518        0.33477061828727
N           -5.32099020693381       -0.96199492914119        0.55452697638620
C           -4.70738275631657        0.37468793740793        0.48576571940713
C           -5.35859540989685        1.18726496793245       -0.64617975726644
C           -4.87486107932412        1.08891602804904        1.83697855130045
O           -3.33114963623819        0.15737672089503        0.20695116373359
N            0.91888367033537        0.71120344598554       -1.44084329246227
C            1.65225661058553        1.79923701390821       -1.82537484575359
O            1.18131607286760        2.60343911087799       -2.63023902638212
C            3.03110723653490        1.91443577785113       -1.21480220640119
O            3.74355270614869        2.88722244156667       -1.53508571441134
H            7.32703223209055        0.74764184220818        0.40355115928473
H            7.39373359116210        2.53171359122415        0.39030581229558
H            6.70727734581809        1.66793551139338        1.79424855457819
H            1.84288397672181       -2.25610170392969        1.14343363498167
H            0.50665750579151       -1.34188700286369        1.86259255407068
H            0.21850993192256       -2.96942552200389        1.21594481771699
H            1.82483648866540       -2.66111044168504       -1.44571368199449
H            0.21695876628763       -3.38034480439094       -1.26000537710411
H            0.45838324222589       -2.03133371433799       -2.38426443581726
H           -1.07504363489600       -0.08486285012749        0.07703112541679
H           -5.23431868197464        0.65653645571284       -1.58894775513913
H           -6.42097840648066        1.30945473221877       -0.44517601998443
H           -4.89151043181516        2.16755864747559       -0.72486730512017
H           -4.39263692170785        0.50139545535362        2.61660322748259
H           -4.42046720500958        2.07748597040935        1.80304047938446
H           -5.93337711319527        1.18633503387248        2.06924360097332
H           -0.00351643500464        0.61145570285021       -1.83982461151817
