      -----------------------------------------------------------      
     |                   =====================                   |     
     |                           x T B                           |     
     |                   =====================                   |     
     |                         S. Grimme                         |     
     |          Mulliken Center for Theoretical Chemistry        |     
     |                    University of Bonn                     |     
      -----------------------------------------------------------      

   * xtb version 6.5.1 (579679a) compiled by 'ehlert@majestix' on 2022-07-11

   xtb is free software: you can redistribute it and/or modify it under
   the terms of the GNU Lesser General Public License as published by
   the Free Software Foundation, either version 3 of the License, or
   (at your option) any later version.
   
   xtb is distributed in the hope that it will be useful,
   but WITHOUT ANY WARRANTY; without even the implied warranty of
   MERCHANTABILITY or FITNESS FOR A PARTICULAR PURPOSE.  See the
   GNU Lesser General Public License for more details.
   
   Cite this work as:
   * C. Bannwarth, E. Caldeweyher, S. Ehlert, A. Hansen, P. Pracht,
     J. Seibert, S. Spicher, S. Grimme, WIREs Comput. Mol. Sci., 2020, 11,
     e01493. DOI: 10.1002/wcms.1493
   
   for GFN2-xTB:
   * C. Bannwarth, S. Ehlert and S. Grimme., J. Chem. Theory Comput., 2019,
     15, 1652-1671. DOI: 10.1021/acs.jctc.8b01176
   for GFN1-xTB:
   * S. Grimme, C. Bannwarth, P. Shushkov, J. Chem. Theory Comput., 2017,
     13, 1989-2009. DOI: 10.1021/acs.jctc.7b00118
   for GFN0-xTB:
   * P. Pracht, E. Caldeweyher, S. Ehlert, S. Grimme, ChemRxiv, 2019, preprint.
     DOI: 10.26434/chemrxiv.8326202.v1
   for GFN-FF:
   * S. Spicher and S. Grimme, Angew. Chem. Int. Ed., 2020, 59, 15665-15673.
     DOI: 10.1002/anie.202004239
   
   for ALPB and GBSA implicit solvation:
   * S. Ehlert, M. Stahn, S. Spicher, S. Grimme, J. Chem. Theory Comput.,
     2021, 17, 4250-4261. DOI: 10.1021/acs.jctc.1c00471
   
   for DFT-D4:
   * E. Caldeweyher, C. Bannwarth and S. Grimme, J. Chem. Phys., 2017,
     147, 034112. DOI: 10.1063/1.4993215
   * E. Caldeweyher, S. Ehlert, A. Hansen, H. Neugebauer, S. Spicher,
     C. Bannwarth and S. Grimme, J. Chem. Phys., 2019, 150, 154122.
     DOI: 10.1063/1.5090222
   * E. Caldeweyher, J.-M. Mewes, S. Ehlert and S. Grimme, Phys. Chem. Chem. Phys.
     2020, 22, 8499-8512. DOI: 10.1039/D0CP00502A
   
   for sTDA-xTB:
   * S. Grimme and C. Bannwarth, J. Chem. Phys., 2016, 145, 054103.
     DOI: 10.1063/1.4959605
   
   in the mass-spec context:
   * V. Asgeirsson, C. Bauer and S. Grimme, Chem. Sci., 2017, 8, 4879.
     DOI: 10.1039/c7sc00601b
   * J. Koopman and S. Grimme, ACS Omega 2019, 4, 12, 15120-15133.
     DOI: 10.1021/acsomega.9b02011
   
   for metadynamics refer to:
   * S. Grimme, J. Chem. Theory Comput., 2019, 155, 2847-2862
     DOI: 10.1021/acs.jctc.9b00143
   
   for SPH calculations refer to:
   * S. Spicher and S. Grimme, J. Chem. Theory Comput., 2021, 17, 1701-1714
     DOI: 10.1021/acs.jctc.0c01306
   
   with help from (in alphabetical order)
   P. Atkinson, C. Bannwarth, F. Bohle, G. Brandenburg, E. Caldeweyher
   M. Checinski, S. Dohm, S. Ehlert, S. Ehrlich, I. Gerasimov, C. Hölzer
   A. Katbashev, J. Koopman, C. Lavigne, S. Lehtola, F. März, M. Müller,
   F. Musil, H. Neugebauer, J. Pisarek, C. Plett, P. Pracht, F. Pultar,
   J. Seibert, P. Shushkov, S. Spicher, M. Stahn, M. Steiner, T. Strunk,
   J. Stückrath, T. Rose, and J. Unsleber
   
 * started run on 2023/06/21 at 17:14:22.631     

           -------------------------------------------------
          |                Calculation Setup                |
           -------------------------------------------------

          program call               : /lustre/hpc/kemi/ree/PhD/git/ReactivityQM/dep/xtb-6.5.1/bin/xtb --gfn 1 /lustre/hpc/kemi/ree/PhD/git/ReactivityQM/calculations/R02oxygendeprot/reac01prodE13/conf02/R02oxygendeprot_reac01prodE13_conf02_gfn1.xyz --opt --vfukui --chrg -2 --uhf 0 --alpb DMSO
          hostname                   : node070
          coordinate file            : /lustre/hpc/kemi/ree/PhD/git/ReactivityQM/calculations/R02oxygendeprot/reac01prodE13/conf02/R02oxygendeprot_reac01prodE13_conf02_gfn1.xyz
          omp threads                :                     1

   ID    Z sym.   atoms
    1    6 C      1, 3, 5, 6, 8, 10, 12-15, 17, 19, 22, 23
    2    8 O      2, 4, 7, 9, 18, 24
    3    7 N      11, 16, 20, 21, 25
    4    1 H      26-42

           -------------------------------------------------
          |                 G F N 1 - x T B                 |
           -------------------------------------------------

        Reference                      10.1021/acs.jctc.7b00118
      * Hamiltonian:
        H0-scaling (s, p, d)           1.850000    2.250000    2.000000
        zeta-weighting                 0.000000
      * Dispersion:
        s8                             2.400000
        a1                             0.630000
        a2                             5.000000
        s9                             0.000000
      * Repulsion:
        kExp                           1.500000
        rExp                           1.000000
      * Coulomb:
        alpha                          2.000000
        third order                    atomic
        anisotropic                    false
      * Halogen bond correction:
        rad-scale                      1.300000
        damping                        0.440000

      * Solvation model:               ALPB
        Solvent                        DMSO
        Parameter file                 internal GFN1-xTB/ALPB
        Dielectric constant                4.6680E+01
        Reference state                gsolv [1 M gas/solution]
        Free energy shift                  7.6243E-03 Eh       4.7843E+00 kcal/mol
        Temperature                        2.9815E+02 K
        Density                            1.1000E+00 kg/L
        Solvent mass                       7.8130E+01 g/mol
        Interaction kernel             P16
        Born radius scaling (c1)           1.7672E+00
        Born radii integrator          GBOBC
        Born offset                        0.0000E+00 a0       0.0000E+00 AA
        H-bond correction              true
        Ion screening                  false
        Surface tension                    1.0000E-05 Eh       1.5569E+01 dyn/cm
        Grid points                               230 per atom

          ...................................................
          :                      SETUP                      :
          :.................................................:
          :  # basis functions                 134          :
          :  # atomic orbitals                 134          :
          :  # shells                           84          :
          :  # electrons                       136          :
          :  # halogen bonds                     0          :
          :  max. iterations                   250          :
          :  Hamiltonian                  GFN1-xTB          :
          :  restarted?                      false          :
          :  GBSA solvation                   true          :
          :  PC potential                    false          :
          :  electronic temp.          300.0000000     K    :
          :  accuracy                    1.0000000          :
          :  -> integral cutoff          0.2500000E+02      :
          :  -> integral neglect         0.1000000E-07      :
          :  -> SCF convergence          0.1000000E-05 Eh   :
          :  -> wf. convergence          0.2000000E-04 e    :
          :  Broyden damping             0.4000000          :
          ...................................................

 iter      E             dE          RMSdq      gap      omega  full diag
   1    -83.9169140 -0.839169E+02  0.878E+00    0.80       0.0  T
   2    -84.0362930 -0.119379E+00  0.542E+00    1.08       1.0  T
   3    -83.9597189  0.765740E-01  0.307E+00    1.60       1.0  T
   4    -84.1949547 -0.235236E+00  0.116E+00    1.54       1.0  T
   5    -84.2362187 -0.412640E-01  0.708E-01    0.23       1.0  T
   6    -84.0787201  0.157499E+00  0.136E+00    0.98       1.0  T
   7    -84.2905119 -0.211792E+00  0.603E-02    0.03       1.0  T
   8    -84.2879873  0.252453E-02  0.135E-01    0.02       1.0  T
   9    -84.2484703  0.395170E-01  0.564E-01    0.16       1.0  T
  10    -84.2887302 -0.402599E-01  0.121E-01    0.05       1.0  T
  11    -84.2900000 -0.126978E-02  0.676E-02    0.02       1.0  T
  12    -84.2902956 -0.295619E-03  0.508E-02    0.04       1.0  T
  13    -84.2899686  0.327015E-03  0.700E-02    0.02       1.0  T
  14    -84.2905730 -0.604389E-03  0.232E-02    0.03       1.0  T
  15    -84.2906323 -0.593191E-04  0.101E-02    0.03       1.5  T
  16    -84.2906464 -0.141457E-04  0.217E-04    0.03      71.2  T
  17    -84.2906464  0.197102E-07  0.434E-04    0.03      35.6  T
  18    -84.2906464 -0.254078E-07  0.773E-05    0.03     199.6  T
  19    -84.2906464  0.240226E-08  0.152E-04    0.03     101.2  T

   *** convergence criteria satisfied after 19 iterations ***

         #    Occupation            Energy/Eh            Energy/eV
      -------------------------------------------------------------
         1        2.0000           -0.7939802             -21.6053
       ...           ...                  ...                  ...
        62        2.0000           -0.3889219             -10.5831
        63        2.0000           -0.3852565             -10.4834
        64        2.0000           -0.3821710             -10.3994
        65        2.0000           -0.3779596             -10.2848
        66        2.0000           -0.3354161              -9.1271
        67        2.0000           -0.3258973              -8.8681
        68        1.2977           -0.2512998              -6.8382 (HOMO)
        69        0.7023           -0.2501330              -6.8065 (LUMO)
        70                         -0.2021305              -5.5002
        71                         -0.2014245              -5.4810
        72                         -0.1575370              -4.2868
        73                         -0.1339368              -3.6446
       ...                                ...                  ...
       134                          0.7428819              20.2148
      -------------------------------------------------------------
                  HL-Gap            0.0011667 Eh            0.0317 eV
             Fermi-level           -0.2507164 Eh           -6.8223 eV

 SCC (total)                   0 d,  0 h,  0 min,  0.190 sec
 SCC setup                      ...        0 min,  0.002 sec (  0.948%)
 Dispersion                     ...        0 min,  0.000 sec (  0.145%)
 classical contributions        ...        0 min,  0.000 sec (  0.051%)
 integral evaluation            ...        0 min,  0.026 sec ( 13.423%)
 iterations                     ...        0 min,  0.101 sec ( 53.005%)
 molecular gradient             ...        0 min,  0.060 sec ( 31.723%)
 printout                       ...        0 min,  0.001 sec (  0.692%)

         :::::::::::::::::::::::::::::::::::::::::::::::::::::
         ::                     SUMMARY                     ::
         :::::::::::::::::::::::::::::::::::::::::::::::::::::
         :: total energy             -83.566699025552 Eh    ::
         :: total w/o Gsasa/hb       -83.547558980003 Eh    ::
         :: gradient norm              0.139589733163 Eh/a0 ::
         :: HOMO-LUMO gap              0.031748719600 eV    ::
         ::.................................................::
         :: SCC energy               -84.290646440690 Eh    ::
         :: -> electrostatic           0.689768304194 Eh    ::
         :: -> Gsolv                  -0.290651363281 Eh    ::
         ::    -> Gelec               -0.271511317732 Eh    ::
         ::    -> Gsasa               -0.024787623560 Eh    ::
         ::    -> Ghb                 -0.001976700994 Eh    ::
         ::    -> Gshift               0.007624279005 Eh    ::
         :: repulsion energy           0.749648680374 Eh    ::
         :: dispersion energy         -0.025701265236 Eh    ::
         :: halogen bond corr.         0.000000000000 Eh    ::
         :: add. restraining           0.000000000000 Eh    ::
         :: total charge              -2.000000000000 e     ::
         :::::::::::::::::::::::::::::::::::::::::::::::::::::

      ----------------------------------------------------------- 
     |                   =====================                   |
     |                        A N C O P T                        |
     |                   =====================                   |
     |               Approximate Normal Coordinate               |
     |                Rational Function Optimizer                |
      ----------------------------------------------------------- 

          ...................................................
          :                      SETUP                      :
          :.................................................:
          :   optimization level            normal          :
          :   max. optcycles                   200          :
          :   ANC micro-cycles                  20          :
          :   degrees of freedom               120          :
          :.................................................:
          :   RF solver                   davidson          :
          :   write xtbopt.log                true          :
          :   linear?                        false          :
          :   energy convergence         0.5000000E-05 Eh   :
          :   grad. convergence          0.1000000E-02 Eh/α :
          :   maximium RF displ.         1.0000000          :
          :   Hlow (freq-cutoff)         0.1000000E-01      :
          :   Hmax (freq-cutoff)         5.0000000          :
          :   S6 in model hess.         20.0000000          :
          ...................................................

generating ANC from model Hessian ...
Using Lindh-Hessian (1995)
 Shifting diagonal of input Hessian by   9.829083055400258E-003
 Lowest  eigenvalues of input Hessian
    0.000000    0.000000    0.000000    0.000000    0.000000    0.000000
    0.010000    0.010036    0.010579    0.011060    0.011694    0.011789
    0.012448    0.013319    0.014008    0.014317    0.014705    0.016119
 Highest eigenvalues
    1.936263    2.083295    2.130790    2.173823    2.263650    2.295792
 

........................................................................
.............................. CYCLE    1 ..............................
........................................................................
   1    -84.2906464 -0.842906E+02  0.266E-05    0.03       0.0  T
   2    -84.2906464  0.370461E-07  0.520E-04    0.03      29.7  T
   3    -84.2906464 -0.371433E-07  0.320E-07    0.03   48293.5  T
   4    -84.2906464  0.184741E-12  0.937E-07    0.03   16472.5  T
     SCC iter.                  ...        0 min,  0.022 sec
     gradient                   ...        0 min,  0.060 sec
 * total energy  :   -83.5666990 Eh     change       -0.3211696E-08 Eh
   gradient norm :     0.1395922 Eh/α   predicted     0.0000000E+00 (-100.00%)
   displ. norm   :     0.2689864 α      lambda       -0.1684547E-01
   maximum displ.:     0.0925944 α      in ANC's #6, #31, #22, ...

........................................................................
.............................. CYCLE    2 ..............................
........................................................................
   1    -84.2922270 -0.842922E+02  0.215E-01    0.01       0.0  T
   2    -84.2331446  0.590824E-01  0.747E-01    0.47       1.0  T
   3    -84.2864792 -0.533346E-01  0.286E-01    0.07       1.0  T
   4    -84.2117220  0.747572E-01  0.788E-01    0.07       1.0  T
   5    -84.2844775 -0.727554E-01  0.308E-01    0.08       1.0  T
   6    -84.2971263 -0.126488E-01  0.388E-02    0.04       1.0  T
   7    -84.2972225 -0.961636E-04  0.268E-02    0.03       1.0  T
   8    -84.2973109 -0.884043E-04  0.845E-03    0.03       1.8  T
   9    -84.2973204 -0.954945E-05  0.113E-03    0.03      13.6  T
  10    -84.2973203  0.757665E-07  0.135E-03    0.03      11.5  T
  11    -84.2973206 -0.245413E-06  0.460E-05    0.03     335.2  T
  12    -84.2973206  0.693232E-08  0.227E-04    0.03      67.9  T
  13    -84.2973206 -0.661494E-08  0.607E-05    0.03     254.3  T
     SCC iter.                  ...        0 min,  0.070 sec
     gradient                   ...        0 min,  0.060 sec
 * total energy  :   -83.5790109 Eh     change       -0.1231189E-01 Eh
   gradient norm :     0.0686667 Eh/α   predicted    -0.9039220E-02 ( -26.58%)
   displ. norm   :     0.3074427 α      lambda       -0.7877298E-02
   maximum displ.:     0.1507056 α      in ANC's #6, #22, #5, ...

........................................................................
.............................. CYCLE    3 ..............................
........................................................................
   1    -84.3007518 -0.843008E+02  0.217E-01    0.01       0.0  T
   2    -84.2407595  0.599923E-01  0.761E-01    0.50       1.0  T
   3    -84.2872945 -0.465349E-01  0.378E-01    0.09       1.0  T
   4    -84.2002539  0.870406E-01  0.880E-01    0.09       1.0  T
   5    -84.2942225 -0.939686E-01  0.299E-01    0.07       1.0  T
   6    -84.3060600 -0.118375E-01  0.339E-02    0.04       1.0  T
   7    -84.3062016 -0.141608E-03  0.495E-03    0.03       3.1  T
   8    -84.3062035 -0.187281E-05  0.284E-03    0.03       5.4  T
   9    -84.3062042 -0.657858E-06  0.174E-03    0.03       8.9  T
  10    -84.3062044 -0.253492E-06  0.107E-03    0.03      14.5  T
  11    -84.3062045 -0.124125E-06  0.469E-04    0.03      32.9  T
  12    -84.3062046 -0.290057E-07  0.808E-05    0.03     191.0  T
  13    -84.3062046 -0.868241E-09  0.123E-05    0.03    1259.6  T
     SCC iter.                  ...        0 min,  0.068 sec
     gradient                   ...        0 min,  0.060 sec
 * total energy  :   -83.5835679 Eh     change       -0.4556935E-02 Eh
   gradient norm :     0.0172769 Eh/α   predicted    -0.4311972E-02 (  -5.38%)
   displ. norm   :     0.2524309 α      lambda       -0.1128478E-02
   maximum displ.:     0.1774358 α      in ANC's #6, #5, #22, ...

........................................................................
.............................. CYCLE    4 ..............................
........................................................................
   1    -84.3074511 -0.843075E+02  0.385E-02    0.03       0.0  T
   2    -84.2836185  0.238326E-01  0.425E-01    0.10       1.0  T
   3    -84.3074325 -0.238140E-01  0.354E-02    0.03       1.0  T
   4    -84.3075229 -0.904415E-04  0.239E-02    0.04       1.0  T
   5    -84.3075852 -0.623019E-04  0.789E-03    0.03       2.0  T
   6    -84.3075891 -0.386583E-05  0.603E-03    0.03       2.6  T
   7    -84.3075939 -0.482488E-05  0.441E-04    0.03      35.0  T
   8    -84.3075939 -0.236966E-07  0.606E-05    0.03     254.5  T
   9    -84.3075939 -0.116955E-09  0.352E-05    0.03     438.5  T
     SCC iter.                  ...        0 min,  0.047 sec
     gradient                   ...        0 min,  0.060 sec
 * total energy  :   -83.5844819 Eh     change       -0.9140746E-03 Eh
   gradient norm :     0.0122338 Eh/α   predicted    -0.6002138E-03 ( -34.34%)
   displ. norm   :     0.4639969 α      lambda       -0.1440278E-02
   maximum displ.:     0.3228135 α      in ANC's #6, #5, #4, ...

........................................................................
.............................. CYCLE    5 ..............................
........................................................................
   1    -84.3082431 -0.843082E+02  0.284E-02    0.03       0.0  T
   2    -84.3068476  0.139553E-02  0.106E-01    0.05       1.0  T
   3    -84.3049539  0.189365E-02  0.156E-01    0.02       1.0  T
   4    -84.3082118 -0.325790E-02  0.246E-02    0.04       1.0  T
   5    -84.3082644 -0.525807E-04  0.128E-02    0.04       1.2  T
   6    -84.3082847 -0.202597E-04  0.486E-04    0.03      31.8  T
   7    -84.3082847  0.207365E-09  0.333E-04    0.03      46.3  T
   8    -84.3082847 -0.129509E-07  0.123E-04    0.03     125.6  T
   9    -84.3082847 -0.160948E-08  0.429E-05    0.03     359.8  T
     SCC iter.                  ...        0 min,  0.047 sec
     gradient                   ...        0 min,  0.058 sec
 * total energy  :   -83.5855677 Eh     change       -0.1085803E-02 Eh
   gradient norm :     0.0108014 Eh/α   predicted    -0.8751842E-03 ( -19.40%)
   displ. norm   :     0.4474132 α      lambda       -0.9156763E-03
   maximum displ.:     0.3104942 α      in ANC's #6, #5, #4, ...

........................................................................
.............................. CYCLE    6 ..............................
........................................................................
   1    -84.3089204 -0.843089E+02  0.193E-02    0.04       0.0  T
   2    -84.3025934  0.632700E-02  0.216E-01    0.02       1.0  T
   3    -84.3089112 -0.631781E-02  0.190E-02    0.04       1.0  T
   4    -84.3089256 -0.144021E-04  0.139E-02    0.04       1.1  T
   5    -84.3089386 -0.130108E-04  0.894E-03    0.04       1.7  T
   6    -84.3089487 -0.100372E-04  0.306E-04    0.04      50.5  T
   7    -84.3089487 -0.805774E-08  0.152E-04    0.04     101.4  T
   8    -84.3089487 -0.264481E-08  0.221E-05    0.04     696.9  T
     SCC iter.                  ...        0 min,  0.043 sec
     gradient                   ...        0 min,  0.060 sec
 * total energy  :   -83.5863082 Eh     change       -0.7405177E-03 Eh
   gradient norm :     0.0127942 Eh/α   predicted    -0.5494886E-03 ( -25.80%)
   displ. norm   :     0.4715262 α      lambda       -0.8413979E-03
   maximum displ.:     0.3205233 α      in ANC's #6, #5, #4, ...

........................................................................
.............................. CYCLE    7 ..............................
........................................................................
   1    -84.3103982 -0.843104E+02  0.230E-02    0.04       0.0  T
   2    -84.2908608  0.195375E-01  0.381E-01    0.03       1.0  T
   3    -84.3104376 -0.195769E-01  0.127E-02    0.04       1.2  T
   4    -84.3104501 -0.124464E-04  0.702E-03    0.04       2.2  T
   5    -84.3104519 -0.179105E-05  0.552E-03    0.04       2.8  T
   6    -84.3104557 -0.384629E-05  0.361E-04    0.04      42.8  T
   7    -84.3104557 -0.121725E-07  0.104E-04    0.04     148.7  T
   8    -84.3104557 -0.117087E-08  0.254E-05    0.04     607.5  T
     SCC iter.                  ...        0 min,  0.039 sec
     gradient                   ...        0 min,  0.060 sec
 * total energy  :   -83.5869973 Eh     change       -0.6890703E-03 Eh
   gradient norm :     0.0115801 Eh/α   predicted    -0.5142368E-03 ( -25.37%)
   displ. norm   :     0.5040439 α      lambda       -0.7455957E-03
   maximum displ.:     0.3399062 α      in ANC's #6, #5, #4, ...

........................................................................
.............................. CYCLE    8 ..............................
........................................................................
   1    -84.3118211 -0.843118E+02  0.154E-02    0.04       0.0  T
   2    -84.3114388  0.382301E-03  0.546E-02    0.05       1.0  T
   3    -84.3110686  0.370111E-03  0.764E-02    0.04       1.0  T
   4    -84.3118394 -0.770780E-03  0.277E-03    0.04       5.6  T
   5    -84.3118395 -0.848392E-07  0.178E-03    0.04       8.7  T
   6    -84.3118393  0.206721E-06  0.168E-03    0.04       9.2  T
   7    -84.3118397 -0.369264E-06  0.511E-05    0.04     302.0  T
   8    -84.3118397  0.835740E-10  0.388E-05    0.04     397.2  T
     SCC iter.                  ...        0 min,  0.043 sec
     gradient                   ...        0 min,  0.060 sec
 * total energy  :   -83.5875691 Eh     change       -0.5717858E-03 Eh
   gradient norm :     0.0090623 Eh/α   predicted    -0.4675245E-03 ( -18.23%)
   displ. norm   :     0.4534357 α      lambda       -0.4663040E-03
   maximum displ.:     0.3047788 α      in ANC's #6, #4, #5, ...

........................................................................
.............................. CYCLE    9 ..............................
........................................................................
   1    -84.3126121 -0.843126E+02  0.181E-02    0.05       0.0  T
   2    -84.3074075  0.520457E-02  0.197E-01    0.07       1.0  T
   3    -84.3126384 -0.523088E-02  0.114E-02    0.05       1.4  T
   4    -84.3126434 -0.503678E-05  0.636E-03    0.05       2.4  T
   5    -84.3126474 -0.393954E-05  0.209E-03    0.05       7.4  T
   6    -84.3126473  0.821582E-07  0.130E-03    0.05      11.9  T
   7    -84.3126475 -0.213216E-06  0.134E-04    0.05     115.3  T
   8    -84.3126475 -0.186770E-08  0.484E-05    0.05     318.7  T
     SCC iter.                  ...        0 min,  0.042 sec
     gradient                   ...        0 min,  0.059 sec
 * total energy  :   -83.5879055 Eh     change       -0.3363821E-03 Eh
   gradient norm :     0.0071065 Eh/α   predicted    -0.2810899E-03 ( -16.44%)
   displ. norm   :     0.3314152 α      lambda       -0.2497055E-03
   maximum displ.:     0.2168787 α      in ANC's #6, #4, #5, ...

........................................................................
.............................. CYCLE   10 ..............................
........................................................................
   1    -84.3136443 -0.843136E+02  0.205E-02    0.05       0.0  T
   2    -84.3026910  0.109533E-01  0.287E-01    0.08       1.0  T
   3    -84.3136850 -0.109940E-01  0.111E-02    0.05       1.4  T
   4    -84.3136942 -0.918485E-05  0.654E-03    0.05       2.4  T
   5    -84.3136986 -0.446098E-05  0.166E-03    0.05       9.3  T
   6    -84.3136987 -0.268717E-07  0.453E-04    0.05      34.1  T
   7    -84.3136987 -0.224032E-07  0.556E-05    0.05     277.4  T
   8    -84.3136987  0.111342E-09  0.468E-05    0.05     329.9  T
     SCC iter.                  ...        0 min,  0.042 sec
     gradient                   ...        0 min,  0.059 sec
 * total energy  :   -83.5880925 Eh     change       -0.1870083E-03 Eh
   gradient norm :     0.0057004 Eh/α   predicted    -0.1385701E-03 ( -25.90%)
   displ. norm   :     0.2972562 α      lambda       -0.2118506E-03
   maximum displ.:     0.1798278 α      in ANC's #4, #6, #1, ...

........................................................................
.............................. CYCLE   11 ..............................
........................................................................
   1    -84.3141140 -0.843141E+02  0.301E-02    0.05       0.0  T
   2    -84.2919190  0.221950E-01  0.411E-01    0.11       1.0  T
   3    -84.3141864 -0.222674E-01  0.197E-02    0.06       1.0  T
   4    -84.3142328 -0.463839E-04  0.669E-03    0.05       2.3  T
   5    -84.3142369 -0.414457E-05  0.281E-03    0.05       5.5  T
   6    -84.3142376 -0.681284E-06  0.120E-03    0.05      12.9  T
   7    -84.3142378 -0.176410E-06  0.276E-04    0.05      55.8  T
   8    -84.3142378 -0.388357E-08  0.213E-04    0.05      72.3  T
   9    -84.3142378 -0.384695E-08  0.125E-04    0.05     123.4  T
  10    -84.3142378 -0.211109E-08  0.400E-06    0.05    3857.3  T
     SCC iter.                  ...        0 min,  0.053 sec
     gradient                   ...        0 min,  0.059 sec
 * total energy  :   -83.5882625 Eh     change       -0.1699821E-03 Eh
   gradient norm :     0.0054371 Eh/α   predicted    -0.1152901E-03 ( -32.18%)
   displ. norm   :     0.3381971 α      lambda       -0.2540624E-03
   maximum displ.:     0.2207807 α      in ANC's #4, #6, #1, ...

........................................................................
.............................. CYCLE   12 ..............................
........................................................................
   1    -84.3143894 -0.843144E+02  0.454E-02    0.06       0.0  T
   2    -84.2789398  0.354496E-01  0.524E-01    0.15       1.0  T
   3    -84.3144422 -0.355024E-01  0.417E-02    0.06       1.0  T
   4    -84.3146612 -0.218968E-03  0.104E-02    0.06       1.5  T
   5    -84.3146478  0.133955E-04  0.142E-02    0.06       1.1  T
   6    -84.3146699 -0.221434E-04  0.596E-03    0.06       2.6  T
   7    -84.3146742 -0.429061E-05  0.176E-03    0.06       8.8  T
   8    -84.3146746 -0.324847E-06  0.805E-04    0.06      19.2  T
   9    -84.3146746 -0.839609E-07  0.118E-04    0.06     130.8  T
  10    -84.3146746 -0.809180E-09  0.875E-05    0.06     176.4  T
     SCC iter.                  ...        0 min,  0.052 sec
     gradient                   ...        0 min,  0.058 sec
 * total energy  :   -83.5884629 Eh     change       -0.2004697E-03 Eh
   gradient norm :     0.0068825 Eh/α   predicted    -0.1415891E-03 ( -29.37%)
   displ. norm   :     0.3886081 α      lambda       -0.2705022E-03
   maximum displ.:     0.2596402 α      in ANC's #4, #1, #6, ...

........................................................................
.............................. CYCLE   13 ..............................
........................................................................
   1    -84.3115337 -0.843115E+02  0.939E-02    0.06       0.0  T
   2    -84.2581066  0.534271E-01  0.664E-01    0.27       1.0  T
   3    -84.3099030 -0.517964E-01  0.146E-01    0.08       1.0  T
   4    -84.3117292 -0.182622E-02  0.868E-02    0.06       1.0  T
   5    -84.3124985 -0.769244E-03  0.428E-02    0.07       1.0  T
   6    -84.3127310 -0.232517E-03  0.736E-03    0.07       2.1  T
   7    -84.3127332 -0.222521E-05  0.596E-03    0.07       2.6  T
   8    -84.3127376 -0.443521E-05  0.137E-03    0.07      11.3  T
   9    -84.3127379 -0.228932E-06  0.374E-04    0.07      41.3  T
  10    -84.3127379 -0.763760E-08  0.285E-04    0.07      54.1  T
  11    -84.3127379 -0.105060E-07  0.528E-05    0.07     292.1  T
  12    -84.3127379 -0.276586E-09  0.262E-05    0.07     589.5  T
     SCC iter.                  ...        0 min,  0.061 sec
     gradient                   ...        0 min,  0.058 sec
 * total energy  :   -83.5886732 Eh     change       -0.2102344E-03 Eh
   gradient norm :     0.0090232 Eh/α   predicted    -0.1556774E-03 ( -25.95%)
   displ. norm   :     0.4779573 α      lambda       -0.3600385E-03
   maximum displ.:     0.2936903 α      in ANC's #4, #1, #5, ...

........................................................................
.............................. CYCLE   14 ..............................
........................................................................
   1    -84.3137307 -0.843137E+02  0.156E-02    0.08       0.0  T
   2    -84.3131170  0.613751E-03  0.696E-02    0.07       1.0  T
   3    -84.3132211 -0.104085E-03  0.635E-02    0.08       1.0  T
   4    -84.3137450 -0.523929E-03  0.561E-03    0.08       2.8  T
   5    -84.3137456 -0.572413E-06  0.367E-03    0.08       4.2  T
   6    -84.3137467 -0.111206E-05  0.133E-03    0.08      11.6  T
   7    -84.3137469 -0.215108E-06  0.420E-04    0.08      36.8  T
   8    -84.3137469 -0.198617E-07  0.146E-04    0.08     105.7  T
   9    -84.3137469 -0.222616E-08  0.561E-05    0.08     275.0  T
     SCC iter.                  ...        0 min,  0.045 sec
     gradient                   ...        0 min,  0.058 sec
 * total energy  :   -83.5888947 Eh     change       -0.2214845E-03 Eh
   gradient norm :     0.0111129 Eh/α   predicted    -0.2211499E-03 (  -0.15%)
   displ. norm   :     0.3853731 α      lambda       -0.3199083E-03
   maximum displ.:     0.2465440 α      in ANC's #4, #1, #5, ...

........................................................................
.............................. CYCLE   15 ..............................
........................................................................
   1    -84.3093639 -0.843094E+02  0.818E-02    0.08       0.0  T
   2    -84.2608692  0.484946E-01  0.630E-01    0.24       1.0  T
   3    -84.3088558 -0.479866E-01  0.104E-01    0.09       1.0  T
   4    -84.3091301 -0.274263E-03  0.922E-02    0.08       1.0  T
   5    -84.3099837 -0.853622E-03  0.460E-02    0.09       1.0  T
   6    -84.3102382 -0.254508E-03  0.125E-02    0.08       1.2  T
   7    -84.3102584 -0.201521E-04  0.193E-03    0.08       8.0  T
   8    -84.3102587 -0.264957E-06  0.126E-03    0.08      12.2  T
   9    -84.3102589 -0.205426E-06  0.156E-04    0.08      98.7  T
  10    -84.3102589 -0.279852E-08  0.525E-05    0.08     294.1  T
     SCC iter.                  ...        0 min,  0.050 sec
     gradient                   ...        0 min,  0.058 sec
 * total energy  :   -83.5890919 Eh     change       -0.1972331E-03 Eh
   gradient norm :     0.0105869 Eh/α   predicted    -0.1837110E-03 (  -6.86%)
   displ. norm   :     0.2264384 α      lambda       -0.3630241E-03
   maximum displ.:     0.1188800 α      in ANC's #1, #6, #5, ...

........................................................................
.............................. CYCLE   16 ..............................
........................................................................
   1    -84.3098432 -0.843098E+02  0.194E-01    0.10       0.0  T
   2    -84.1272405  0.182603E+00  0.124E+00    0.45       1.0  T
   3    -84.2969414 -0.169701E+00  0.371E-01    0.08       1.0  T
   4    -84.3150197 -0.180783E-01  0.130E-02    0.09       1.2  T
   5    -84.3148539  0.165833E-03  0.392E-02    0.09       1.0  T
   6    -84.3150201 -0.166176E-03  0.139E-02    0.09       1.1  T
   7    -84.3150418 -0.217444E-04  0.331E-03    0.09       4.7  T
   8    -84.3150424 -0.550414E-06  0.265E-03    0.09       5.8  T
   9    -84.3150433 -0.928278E-06  0.978E-05    0.09     157.8  T
  10    -84.3150433  0.596444E-09  0.112E-04    0.09     137.5  T
     SCC iter.                  ...        0 min,  0.051 sec
     gradient                   ...        0 min,  0.060 sec
 * total energy  :   -83.5892878 Eh     change       -0.1959495E-03 Eh
   gradient norm :     0.0104275 Eh/α   predicted    -0.1908190E-03 (  -2.62%)
   displ. norm   :     0.3524716 α      lambda       -0.4388727E-03
   maximum displ.:     0.1949666 α      in ANC's #1, #4, #2, ...

........................................................................
.............................. CYCLE   17 ..............................
........................................................................
   1    -84.3119479 -0.843119E+02  0.353E-02    0.09       0.0  T
   2    -84.2919110  0.200369E-01  0.398E-01    0.14       1.0  T
   3    -84.3114487 -0.195377E-01  0.731E-02    0.10       1.0  T
   4    -84.3120842 -0.635479E-03  0.161E-02    0.09       1.0  T
   5    -84.3120976 -0.134163E-04  0.979E-03    0.09       1.6  T
   6    -84.3121086 -0.109287E-04  0.307E-04    0.09      50.2  T
   7    -84.3121086  0.171967E-08  0.264E-04    0.09      58.5  T
   8    -84.3121086 -0.505700E-08  0.163E-04    0.09      94.4  T
   9    -84.3121086 -0.161982E-08  0.118E-04    0.09     130.6  T
     SCC iter.                  ...        0 min,  0.048 sec
     gradient                   ...        0 min,  0.062 sec
 * total energy  :   -83.5894645 Eh     change       -0.1766403E-03 Eh
   gradient norm :     0.0134938 Eh/α   predicted    -0.2467002E-03 (  39.66%)
   displ. norm   :     0.2050436 α      lambda       -0.2704003E-03
   maximum displ.:     0.1237821 α      in ANC's #1, #4, #11, ...

........................................................................
.............................. CYCLE   18 ..............................
........................................................................
   1    -84.3073324 -0.843073E+02  0.183E-01    0.12       0.0  T
   2    -84.1261349  0.181198E+00  0.123E+00    0.41       1.0  T
   3    -84.3026727 -0.176538E+00  0.266E-01    0.09       1.0  T
   4    -84.3117248 -0.905208E-02  0.261E-02    0.10       1.0  T
   5    -84.3117901 -0.652371E-04  0.171E-02    0.10       1.0  T
   6    -84.3118137 -0.235922E-04  0.938E-03    0.10       1.6  T
   7    -84.3118212 -0.750927E-05  0.446E-03    0.10       3.5  T
   8    -84.3118232 -0.202680E-05  0.215E-03    0.10       7.2  T
   9    -84.3118238 -0.581375E-06  0.403E-04    0.10      38.3  T
  10    -84.3118238 -0.212407E-07  0.245E-05    0.10     630.9  T
  11    -84.3118238  0.182163E-08  0.121E-04    0.10     127.9  T
     SCC iter.                  ...        0 min,  0.058 sec
     gradient                   ...        0 min,  0.061 sec
 * total energy  :   -83.5896180 Eh     change       -0.1535070E-03 Eh
   gradient norm :     0.0103196 Eh/α   predicted    -0.1408877E-03 (  -8.22%)
   displ. norm   :     0.1556475 α      lambda       -0.2545718E-03
   maximum displ.:     0.1066150 α      in ANC's #1, #2, #11, ...

........................................................................
.............................. CYCLE   19 ..............................
........................................................................
   1    -84.3132216 -0.843132E+02  0.962E-02    0.11       0.0  T
   2    -84.1658691  0.147352E+00  0.108E+00    0.21       1.0  T
   3    -84.3142117 -0.148343E+00  0.426E-02    0.10       1.0  T
   4    -84.3144331 -0.221471E-03  0.403E-03    0.10       3.8  T
   5    -84.3144249  0.817634E-05  0.868E-03    0.10       1.8  T
   6    -84.3144337 -0.872726E-05  0.646E-04    0.10      23.9  T
   7    -84.3144337 -0.121209E-07  0.293E-04    0.10      52.7  T
   8    -84.3144337 -0.770932E-08  0.156E-04    0.10      99.0  T
   9    -84.3144337 -0.275236E-08  0.460E-05    0.10     335.3  T
     SCC iter.                  ...        0 min,  0.048 sec
     gradient                   ...        0 min,  0.061 sec
 * total energy  :   -83.5897548 Eh     change       -0.1368300E-03 Eh
   gradient norm :     0.0067625 Eh/α   predicted    -0.1303740E-03 (  -4.72%)
   displ. norm   :     0.3483282 α      lambda       -0.2352082E-03
   maximum displ.:     0.2289220 α      in ANC's #1, #4, #2, ...

........................................................................
.............................. CYCLE   20 ..............................
........................................................................
   1    -84.3127540 -0.843128E+02  0.376E-02    0.12       0.0  T
   2    -84.2749120  0.378419E-01  0.541E-01    0.11       1.0  T
   3    -84.3128835 -0.379714E-01  0.171E-02    0.11       1.0  T
   4    -84.3129120 -0.284840E-04  0.968E-03    0.11       1.6  T
   5    -84.3129215 -0.948294E-05  0.389E-03    0.11       4.0  T
   6    -84.3129229 -0.147653E-05  0.584E-04    0.11      26.4  T
   7    -84.3129230 -0.395613E-07  0.116E-04    0.11     133.2  T
   8    -84.3129230  0.651184E-09  0.110E-04    0.11     140.2  T
     SCC iter.                  ...        0 min,  0.042 sec
     gradient                   ...        0 min,  0.060 sec
 * total energy  :   -83.5899377 Eh     change       -0.1829157E-03 Eh
   gradient norm :     0.0055878 Eh/α   predicted    -0.1318759E-03 ( -27.90%)
   displ. norm   :     0.4263074 α      lambda       -0.2717892E-03
   maximum displ.:     0.2923300 α      in ANC's #1, #4, #2, ...
 * RMSD in coord.:     0.7923963 α      energy gain  -0.2323871E-01 Eh

generating ANC from model Hessian ...
Using Lindh-Hessian (1995)
 Shifting diagonal of input Hessian by   9.798207897620027E-003
 Lowest  eigenvalues of input Hessian
    0.000000    0.000000    0.000000    0.000000    0.000000    0.000000
    0.010000    0.010084    0.010580    0.011027    0.011592    0.011915
    0.012214    0.013122    0.013884    0.014251    0.014437    0.016045
 Highest eigenvalues
    1.974894    2.108066    2.130392    2.155426    2.233200    2.270733
 

........................................................................
.............................. CYCLE   21 ..............................
........................................................................
   1    -84.3113828 -0.843114E+02  0.508E-02    0.13       0.0  T
   2    -84.2506275  0.607553E-01  0.688E-01    0.13       1.0  T
   3    -84.3116746 -0.610471E-01  0.136E-02    0.12       1.1  T
   4    -84.3116826 -0.799254E-05  0.117E-02    0.12       1.3  T
   5    -84.3116966 -0.139862E-04  0.470E-03    0.12       3.3  T
   6    -84.3116989 -0.230449E-05  0.540E-04    0.12      28.6  T
   7    -84.3116989 -0.124134E-07  0.178E-04    0.12      86.5  T
   8    -84.3116989 -0.599357E-09  0.134E-04    0.12     114.9  T
     SCC iter.                  ...        0 min,  0.042 sec
     gradient                   ...        0 min,  0.061 sec
 * total energy  :   -83.5901274 Eh     change       -0.1896791E-03 Eh
   gradient norm :     0.0082651 Eh/α   predicted     0.0000000E+00 (-100.00%)
   displ. norm   :     0.0842478 α      lambda       -0.2026306E-03
   maximum displ.:     0.0379594 α      in ANC's #7, #5, #3, ...

........................................................................
.............................. CYCLE   22 ..............................
........................................................................
   1    -84.3139920 -0.843140E+02  0.123E-02    0.12       0.0  T
   2    -84.3115547  0.243732E-02  0.139E-01    0.13       1.0  T
   3    -84.3140042 -0.244949E-02  0.713E-03    0.12       2.2  T
   4    -84.3140025  0.169803E-05  0.745E-03    0.12       2.1  T
   5    -84.3140087 -0.621739E-05  0.545E-04    0.12      28.3  T
   6    -84.3140086  0.676073E-07  0.795E-04    0.12      19.4  T
   7    -84.3140087 -0.836084E-07  0.760E-05    0.12     203.2  T
   8    -84.3140087 -0.678511E-09  0.241E-05    0.12     641.5  T
     SCC iter.                  ...        0 min,  0.045 sec
     gradient                   ...        0 min,  0.060 sec
 * total energy  :   -83.5902843 Eh     change       -0.1569302E-03 Eh
   gradient norm :     0.0035144 Eh/α   predicted    -0.1021866E-03 ( -34.88%)
   displ. norm   :     0.2064226 α      lambda       -0.2497236E-03
   maximum displ.:     0.0955695 α      in ANC's #7, #3, #5, ...

........................................................................
.............................. CYCLE   23 ..............................
........................................................................
   1    -84.3158860 -0.843159E+02  0.103E-02    0.12       0.0  T
   2    -84.3155215  0.364479E-03  0.546E-02    0.13       1.0  T
   3    -84.3158841 -0.362523E-03  0.845E-03    0.12       1.8  T
   4    -84.3158726  0.114719E-04  0.132E-02    0.12       1.2  T
   5    -84.3158901 -0.174998E-04  0.459E-03    0.12       3.4  T
   6    -84.3158924 -0.233924E-05  0.115E-03    0.12      13.4  T
   7    -84.3158926 -0.178172E-06  0.562E-05    0.12     274.7  T
   8    -84.3158926 -0.244356E-09  0.182E-05    0.12     850.0  T
     SCC iter.                  ...        0 min,  0.045 sec
     gradient                   ...        0 min,  0.059 sec
 * total energy  :   -83.5904743 Eh     change       -0.1899240E-03 Eh
   gradient norm :     0.0034959 Eh/α   predicted    -0.1301877E-03 ( -31.45%)
   displ. norm   :     0.3760891 α      lambda       -0.3113849E-03
   maximum displ.:     0.1744525 α      in ANC's #7, #3, #5, ...

........................................................................
.............................. CYCLE   24 ..............................
........................................................................
   1    -84.3152560 -0.843153E+02  0.415E-02    0.13       0.0  T
   2    -84.2785206  0.367355E-01  0.534E-01    0.13       1.0  T
   3    -84.3152965 -0.367759E-01  0.348E-02    0.13       1.0  T
   4    -84.3154250 -0.128509E-03  0.135E-02    0.13       1.1  T
   5    -84.3154366 -0.116477E-04  0.870E-03    0.13       1.8  T
   6    -84.3154456 -0.894407E-05  0.319E-04    0.13      48.3  T
   7    -84.3154456 -0.488868E-09  0.163E-04    0.13      94.8  T
   8    -84.3154456 -0.208699E-08  0.795E-05    0.13     194.0  T
     SCC iter.                  ...        0 min,  0.045 sec
     gradient                   ...        0 min,  0.061 sec
 * total energy  :   -83.5907386 Eh     change       -0.2643367E-03 Eh
   gradient norm :     0.0070244 Eh/α   predicted    -0.1778956E-03 ( -32.70%)
   displ. norm   :     0.5941135 α      lambda       -0.4415791E-03
   maximum displ.:     0.2745465 α      in ANC's #7, #3, #5, ...

........................................................................
.............................. CYCLE   25 ..............................
........................................................................
   1    -84.3084361 -0.843084E+02  0.133E-01    0.15       0.0  T
   2    -84.1495831  0.158853E+00  0.114E+00    0.28       1.0  T
   3    -84.3105339 -0.160951E+00  0.196E-02    0.13       1.0  T
   4    -84.3105654 -0.314649E-04  0.668E-03    0.13       2.3  T
   5    -84.3105514  0.139588E-04  0.110E-02    0.13       1.4  T
   6    -84.3105571 -0.565219E-05  0.824E-03    0.13       1.9  T
   7    -84.3105659 -0.879391E-05  0.187E-04    0.13      82.5  T
   8    -84.3105659 -0.121781E-08  0.848E-05    0.13     181.9  T
   9    -84.3105659 -0.310507E-09  0.337E-05    0.13     457.9  T
     SCC iter.                  ...        0 min,  0.049 sec
     gradient                   ...        0 min,  0.058 sec
 * total energy  :   -83.5908700 Eh     change       -0.1314199E-03 Eh
   gradient norm :     0.0171244 Eh/α   predicted    -0.2987265E-03 ( 127.31%)
   displ. norm   :     0.1220722 α      lambda       -0.4412456E-03
   maximum displ.:     0.0544768 α      in ANC's #10, #7, #11, ...

........................................................................
.............................. CYCLE   26 ..............................
........................................................................
   1    -84.3136429 -0.843136E+02  0.129E-02    0.13       0.0  T
   2    -84.3133766  0.266250E-03  0.463E-02    0.14       1.0  T
   3    -84.3134913 -0.114677E-03  0.357E-02    0.13       1.0  T
   4    -84.3136469 -0.155578E-03  0.436E-03    0.13       3.5  T
   5    -84.3136472 -0.310008E-06  0.916E-04    0.13      16.8  T
   6    -84.3136472 -0.217137E-07  0.715E-04    0.13      21.6  T
   7    -84.3136473 -0.650815E-07  0.111E-04    0.13     139.0  T
   8    -84.3136473 -0.127932E-08  0.348E-05    0.13     443.9  T
     SCC iter.                  ...        0 min,  0.043 sec
     gradient                   ...        0 min,  0.060 sec
 * total energy  :   -83.5911337 Eh     change       -0.2636486E-03 Eh
   gradient norm :     0.0077690 Eh/α   predicted    -0.2239175E-03 ( -15.07%)
   displ. norm   :     0.2673423 α      lambda       -0.3163193E-03
   maximum displ.:     0.1099607 α      in ANC's #2, #3, #1, ...

........................................................................
.............................. CYCLE   27 ..............................
........................................................................
   1    -84.3130011 -0.843130E+02  0.977E-02    0.15       0.0  T
   2    -84.1805969  0.132404E+00  0.103E+00    0.22       1.0  T
   3    -84.3141723 -0.133575E+00  0.196E-02    0.14       1.0  T
   4    -84.3142031 -0.308426E-04  0.974E-03    0.14       1.6  T
   5    -84.3142136 -0.104480E-04  0.233E-03    0.14       6.6  T
   6    -84.3142134  0.123082E-06  0.224E-03    0.14       6.9  T
   7    -84.3142140 -0.580179E-06  0.144E-04    0.14     107.2  T
   8    -84.3142140 -0.191865E-08  0.710E-05    0.14     217.2  T
     SCC iter.                  ...        0 min,  0.043 sec
     gradient                   ...        0 min,  0.060 sec
 * total energy  :   -83.5913951 Eh     change       -0.2614389E-03 Eh
   gradient norm :     0.0057422 Eh/α   predicted    -0.1694643E-03 ( -35.18%)
   displ. norm   :     0.5454390 α      lambda       -0.4910646E-03
   maximum displ.:     0.2308014 α      in ANC's #3, #2, #1, ...

........................................................................
.............................. CYCLE   28 ..............................
........................................................................
   1    -84.3089711 -0.843090E+02  0.180E-01    0.16       0.0  T
   2    -84.1316632  0.177308E+00  0.123E+00    0.38       1.0  T
   3    -84.3111939 -0.179531E+00  0.123E-01    0.14       1.0  T
   4    -84.3130513 -0.185740E-02  0.906E-03    0.15       1.7  T
   5    -84.3130225  0.287883E-04  0.184E-02    0.14       1.0  T
   6    -84.3130620 -0.395046E-04  0.166E-03    0.15       9.3  T
   7    -84.3130621 -0.115147E-06  0.533E-04    0.15      28.9  T
   8    -84.3130621 -0.334314E-07  0.791E-05    0.15     195.1  T
   9    -84.3130621  0.244781E-08  0.143E-04    0.15     107.8  T
     SCC iter.                  ...        0 min,  0.049 sec
     gradient                   ...        0 min,  0.059 sec
 * total energy  :   -83.5917600 Eh     change       -0.3648499E-03 Eh
   gradient norm :     0.0096668 Eh/α   predicted    -0.3185904E-03 ( -12.68%)
   displ. norm   :     0.4082665 α      lambda       -0.3343201E-03
   maximum displ.:     0.1981822 α      in ANC's #2, #1, #3, ...

........................................................................
.............................. CYCLE   29 ..............................
........................................................................
   1    -84.3115805 -0.843116E+02  0.121E-01    0.17       0.0  T
   2    -84.1636897  0.147891E+00  0.110E+00    0.26       1.0  T
   3    -84.3132912 -0.149602E+00  0.353E-02    0.15       1.0  T
   4    -84.3134278 -0.136577E-03  0.810E-03    0.15       1.9  T
   5    -84.3134282 -0.422616E-06  0.718E-03    0.15       2.1  T
   6    -84.3134337 -0.543064E-05  0.150E-03    0.15      10.3  T
   7    -84.3134337 -0.145130E-07  0.110E-03    0.15      14.1  T
   8    -84.3134338 -0.144125E-06  0.112E-04    0.15     138.1  T
   9    -84.3134338 -0.349573E-09  0.986E-05    0.15     156.4  T
     SCC iter.                  ...        0 min,  0.047 sec
     gradient                   ...        0 min,  0.038 sec
 * total energy  :   -83.5920099 Eh     change       -0.2499180E-03 Eh
   gradient norm :     0.0102777 Eh/α   predicted    -0.1950210E-03 ( -21.97%)
   displ. norm   :     0.3658086 α      lambda       -0.3471987E-03
   maximum displ.:     0.2048334 α      in ANC's #2, #1, #3, ...

........................................................................
.............................. CYCLE   30 ..............................
........................................................................
   1    -84.3149975 -0.843150E+02  0.650E-02    0.17       0.0  T
   2    -84.2437317  0.712658E-01  0.754E-01    0.17       1.0  T
   3    -84.3155245 -0.717928E-01  0.497E-03    0.16       3.1  T
   4    -84.3155226  0.188087E-05  0.561E-03    0.16       2.8  T
   5    -84.3155255 -0.293261E-05  0.137E-03    0.16      11.3  T
   6    -84.3155256 -0.113572E-06  0.679E-04    0.16      22.7  T
   7    -84.3155257 -0.526127E-07  0.961E-05    0.16     160.6  T
   8    -84.3155257 -0.234905E-09  0.639E-05    0.16     241.6  T
     SCC iter.                  ...        0 min,  0.043 sec
     gradient                   ...        0 min,  0.060 sec
 * total energy  :   -83.5922733 Eh     change       -0.2633811E-03 Eh
   gradient norm :     0.0077521 Eh/α   predicted    -0.1968282E-03 ( -25.27%)
   displ. norm   :     0.6791924 α      lambda       -0.4748117E-03
   maximum displ.:     0.3543921 α      in ANC's #2, #1, #3, ...

........................................................................
.............................. CYCLE   31 ..............................
........................................................................
   1    -84.3109610 -0.843110E+02  0.104E-01    0.18       0.0  T
   2    -84.1928467  0.118114E+00  0.981E-01    0.23       1.0  T
   3    -84.3122564 -0.119410E+00  0.905E-03    0.17       1.7  T
   4    -84.3122556  0.826201E-06  0.784E-03    0.17       2.0  T
   5    -84.3122598 -0.417813E-05  0.336E-03    0.17       4.6  T
   6    -84.3122607 -0.860199E-06  0.103E-03    0.17      15.0  T
   7    -84.3122607 -0.750962E-07  0.123E-04    0.17     125.1  T
   8    -84.3122607 -0.336613E-09  0.509E-05    0.17     303.4  T
     SCC iter.                  ...        0 min,  0.043 sec
     gradient                   ...        0 min,  0.060 sec
 * total energy  :   -83.5925635 Eh     change       -0.2902386E-03 Eh
   gradient norm :     0.0124350 Eh/α   predicted    -0.3469200E-03 (  19.53%)
   displ. norm   :     0.3156932 α      lambda       -0.4948980E-03
   maximum displ.:     0.1976483 α      in ANC's #2, #1, #3, ...

........................................................................
.............................. CYCLE   32 ..............................
........................................................................
   1    -84.3156697 -0.843157E+02  0.301E-02    0.18       0.0  T
   2    -84.3091521  0.651762E-02  0.234E-01    0.21       1.0  T
   3    -84.3157556 -0.660357E-02  0.141E-02    0.18       1.1  T
   4    -84.3157481  0.754695E-05  0.146E-02    0.18       1.1  T
   5    -84.3157693 -0.212576E-04  0.238E-03    0.18       6.5  T
   6    -84.3157699 -0.590190E-06  0.536E-04    0.18      28.8  T
   7    -84.3157699 -0.193548E-08  0.513E-04    0.18      30.1  T
   8    -84.3157700 -0.320620E-07  0.110E-04    0.18     140.6  T
   9    -84.3157700 -0.120515E-08  0.420E-05    0.18     367.0  T
     SCC iter.                  ...        0 min,  0.048 sec
     gradient                   ...        0 min,  0.059 sec
 * total energy  :   -83.5929073 Eh     change       -0.3438046E-03 Eh
   gradient norm :     0.0067657 Eh/α   predicted    -0.2721099E-03 ( -20.85%)
   displ. norm   :     0.5689258 α      lambda       -0.3556630E-03
   maximum displ.:     0.3369978 α      in ANC's #2, #1, #3, ...

........................................................................
.............................. CYCLE   33 ..............................
........................................................................
   1    -84.3144100 -0.843144E+02  0.323E-02    0.20       0.0  T
   2    -84.3037916  0.106185E-01  0.294E-01    0.18       1.0  T
   3    -84.3144822 -0.106907E-01  0.184E-02    0.20       1.0  T
   4    -84.3145122 -0.299240E-04  0.838E-03    0.20       1.8  T
   5    -84.3145156 -0.339523E-05  0.547E-03    0.19       2.8  T
   6    -84.3145189 -0.328733E-05  0.629E-04    0.19      24.5  T
   7    -84.3145189 -0.179686E-07  0.343E-04    0.19      44.9  T
   8    -84.3145189 -0.131159E-07  0.579E-05    0.19     266.4  T
   9    -84.3145189 -0.247695E-09  0.184E-05    0.19     838.9  T
     SCC iter.                  ...        0 min,  0.047 sec
     gradient                   ...        0 min,  0.060 sec
 * total energy  :   -83.5931987 Eh     change       -0.2914259E-03 Eh
   gradient norm :     0.0082638 Eh/α   predicted    -0.2353911E-03 ( -19.23%)
   displ. norm   :     0.5640530 α      lambda       -0.4318588E-03
   maximum displ.:     0.3477702 α      in ANC's #2, #1, #3, ...

........................................................................
.............................. CYCLE   34 ..............................
........................................................................
   1    -84.3160909 -0.843161E+02  0.178E-02    0.21       0.0  T
   2    -84.3150215  0.106945E-02  0.939E-02    0.20       1.0  T
   3    -84.3160335 -0.101201E-02  0.266E-02    0.21       1.0  T
   4    -84.3161035 -0.699739E-04  0.958E-03    0.21       1.6  T
   5    -84.3161080 -0.452839E-05  0.599E-03    0.21       2.6  T
   6    -84.3161119 -0.386601E-05  0.610E-04    0.21      25.3  T
   7    -84.3161119 -0.243713E-07  0.273E-04    0.21      56.6  T
   8    -84.3161119 -0.798236E-08  0.307E-05    0.21     502.8  T
   9    -84.3161119  0.269722E-10  0.198E-05    0.21     779.6  T
     SCC iter.                  ...        0 min,  0.047 sec
     gradient                   ...        0 min,  0.060 sec
 * total energy  :   -83.5935238 Eh     change       -0.3250911E-03 Eh
   gradient norm :     0.0067314 Eh/α   predicted    -0.2846333E-03 ( -12.45%)
   displ. norm   :     0.6429999 α      lambda       -0.3322007E-03
   maximum displ.:     0.3907538 α      in ANC's #2, #1, #3, ...

........................................................................
.............................. CYCLE   35 ..............................
........................................................................
   1    -84.3134112 -0.843134E+02  0.306E-02    0.24       0.0  T
   2    -84.3078459  0.556535E-02  0.216E-01    0.22       1.0  T
   3    -84.3134644 -0.561854E-02  0.183E-02    0.24       1.0  T
   4    -84.3134988 -0.343866E-04  0.501E-03    0.23       3.1  T
   5    -84.3134987  0.130942E-06  0.337E-03    0.23       4.6  T
   6    -84.3134996 -0.922408E-06  0.645E-04    0.23      23.9  T
   7    -84.3134996 -0.396771E-07  0.154E-04    0.23     100.1  T
   8    -84.3134996 -0.224675E-08  0.350E-05    0.23     441.0  T
     SCC iter.                  ...        0 min,  0.042 sec
     gradient                   ...        0 min,  0.061 sec
 * total energy  :   -83.5937292 Eh     change       -0.2054156E-03 Eh
   gradient norm :     0.0099467 Eh/α   predicted    -0.2347721E-03 (  14.29%)
   displ. norm   :     0.3826249 α      lambda       -0.4490334E-03
   maximum displ.:     0.2298795 α      in ANC's #2, #1, #4, ...

........................................................................
.............................. CYCLE   36 ..............................
........................................................................
   1    -84.3182204 -0.843182E+02  0.309E-02    0.25       0.0  T
   2    -84.3141399  0.408048E-02  0.189E-01    0.28       1.0  T
   3    -84.3183070 -0.416714E-02  0.163E-02    0.25       1.0  T
   4    -84.3183307 -0.237231E-04  0.404E-03    0.25       3.8  T
   5    -84.3183303  0.477759E-06  0.262E-03    0.25       5.9  T
   6    -84.3183310 -0.700293E-06  0.378E-04    0.25      40.9  T
   7    -84.3183310 -0.127900E-07  0.924E-05    0.25     166.9  T
   8    -84.3183310 -0.318323E-10  0.521E-05    0.25     296.1  T
     SCC iter.                  ...        0 min,  0.042 sec
     gradient                   ...        0 min,  0.061 sec
 * total energy  :   -83.5939381 Eh     change       -0.2088858E-03 Eh
   gradient norm :     0.0098167 Eh/α   predicted    -0.2573881E-03 (  23.22%)
   displ. norm   :     0.3899172 α      lambda       -0.2218006E-03
   maximum displ.:     0.2451271 α      in ANC's #2, #1, #3, ...

........................................................................
.............................. CYCLE   37 ..............................
........................................................................
   1    -84.3167373 -0.843167E+02  0.117E-02    0.27       0.0  T
   2    -84.3167202  0.170637E-04  0.146E-02    0.27       1.1  T
   3    -84.3166446  0.755608E-04  0.289E-02    0.27       1.0  T
   4    -84.3167420 -0.973480E-04  0.303E-03    0.27       5.1  T
   5    -84.3167422 -0.241695E-06  0.106E-03    0.27      14.6  T
   6    -84.3167423 -0.328244E-07  0.277E-04    0.27      55.7  T
   7    -84.3167423 -0.714017E-08  0.999E-05    0.27     154.5  T
   8    -84.3167423 -0.985466E-09  0.343E-05    0.27     450.3  T
     SCC iter.                  ...        0 min,  0.042 sec
     gradient                   ...        0 min,  0.061 sec
 * total energy  :   -83.5940874 Eh     change       -0.1492594E-03 Eh
   gradient norm :     0.0075673 Eh/α   predicted    -0.1277651E-03 ( -14.40%)
   displ. norm   :     0.3916273 α      lambda       -0.2052504E-03
   maximum displ.:     0.2517486 α      in ANC's #2, #1, #3, ...

........................................................................
.............................. CYCLE   38 ..............................
........................................................................
   1    -84.3132892 -0.843133E+02  0.309E-02    0.28       0.0  T
   2    -84.3104798  0.280937E-02  0.158E-01    0.31       1.0  T
   3    -84.3133840 -0.290418E-02  0.584E-03    0.29       2.6  T
   4    -84.3133847 -0.760275E-06  0.343E-03    0.29       4.5  T
   5    -84.3133850 -0.205366E-06  0.177E-03    0.29       8.7  T
   6    -84.3133852 -0.260631E-06  0.258E-04    0.29      59.7  T
   7    -84.3133852  0.248400E-08  0.219E-04    0.29      70.4  T
   8    -84.3133852 -0.470315E-08  0.813E-05    0.29     189.9  T
   9    -84.3133852 -0.753758E-09  0.603E-06    0.29    2560.4  T
     SCC iter.                  ...        0 min,  0.048 sec
     gradient                   ...        0 min,  0.063 sec
 * total energy  :   -83.5941941 Eh     change       -0.1067241E-03 Eh
   gradient norm :     0.0066671 Eh/α   predicted    -0.1183663E-03 (  10.91%)
   displ. norm   :     0.1925629 α      lambda       -0.1744194E-03
   maximum displ.:     0.1112503 α      in ANC's #2, #4, #5, ...

........................................................................
.............................. CYCLE   39 ..............................
........................................................................
   1    -84.3163395 -0.843163E+02  0.579E-02    0.29       0.0  T
   2    -84.3071133  0.922618E-02  0.290E-01    0.35       1.0  T
   3    -84.3167075 -0.959422E-02  0.169E-02    0.29       1.0  T
   4    -84.3167359 -0.284474E-04  0.336E-03    0.29       4.6  T
   5    -84.3167365 -0.530074E-06  0.188E-03    0.29       8.2  T
   6    -84.3167368 -0.304607E-06  0.254E-04    0.29      60.7  T
   7    -84.3167368 -0.518639E-08  0.445E-05    0.29     347.0  T
   8    -84.3167368 -0.507470E-10  0.157E-05    0.29     984.5  T
     SCC iter.                  ...        0 min,  0.044 sec
     gradient                   ...        0 min,  0.063 sec
 * total energy  :   -83.5942743 Eh     change       -0.8022416E-04 Eh
   gradient norm :     0.0064568 Eh/α   predicted    -0.9044336E-04 (  12.74%)
   displ. norm   :     0.2763910 α      lambda       -0.9357245E-04
   maximum displ.:     0.1802282 α      in ANC's #2, #1, #4, ...

........................................................................
.............................. CYCLE   40 ..............................
........................................................................
   1    -84.3159041 -0.843159E+02  0.238E-02    0.30       0.0  T
   2    -84.3138791  0.202503E-02  0.135E-01    0.33       1.0  T
   3    -84.3159639 -0.208479E-02  0.116E-02    0.31       1.3  T
   4    -84.3159762 -0.122842E-04  0.416E-03    0.31       3.7  T
   5    -84.3159770 -0.883259E-06  0.205E-03    0.31       7.5  T
   6    -84.3159774 -0.346642E-06  0.560E-04    0.31      27.6  T
   7    -84.3159774 -0.311989E-07  0.765E-05    0.31     201.8  T
   8    -84.3159774 -0.353197E-09  0.159E-05    0.31     968.9  T
     SCC iter.                  ...        0 min,  0.042 sec
     gradient                   ...        0 min,  0.062 sec
 * total energy  :   -83.5943452 Eh     change       -0.7091320E-04 Eh
   gradient norm :     0.0045281 Eh/α   predicted    -0.5036222E-04 ( -28.98%)
   displ. norm   :     0.3142124 α      lambda       -0.1084347E-03
   maximum displ.:     0.2118397 α      in ANC's #2, #1, #5, ...

........................................................................
.............................. CYCLE   41 ..............................
........................................................................
   1    -84.3156675 -0.843157E+02  0.268E-02    0.32       0.0  T
   2    -84.3133552  0.231236E-02  0.145E-01    0.34       1.0  T
   3    -84.3157442 -0.238901E-02  0.126E-02    0.32       1.2  T
   4    -84.3157585 -0.143125E-04  0.453E-03    0.32       3.4  T
   5    -84.3157596 -0.110276E-05  0.207E-03    0.32       7.5  T
   6    -84.3157600 -0.380325E-06  0.464E-04    0.32      33.3  T
   7    -84.3157600 -0.179987E-07  0.116E-04    0.32     133.4  T
   8    -84.3157600 -0.104002E-08  0.168E-05    0.32     917.0  T
     SCC iter.                  ...        0 min,  0.042 sec
     gradient                   ...        0 min,  0.061 sec
 * total energy  :   -83.5944161 Eh     change       -0.7088081E-04 Eh
   gradient norm :     0.0029377 Eh/α   predicted    -0.5957177E-04 ( -15.96%)
   displ. norm   :     0.2854457 α      lambda       -0.7187686E-04
   maximum displ.:     0.1947947 α      in ANC's #2, #1, #5, ...

........................................................................
.............................. CYCLE   42 ..............................
........................................................................
   1    -84.3158845 -0.843159E+02  0.236E-02    0.33       0.0  T
   2    -84.3142350  0.164946E-02  0.123E-01    0.35       1.0  T
   3    -84.3159482 -0.171320E-02  0.621E-03    0.33       2.5  T
   4    -84.3159509 -0.265795E-05  0.313E-03    0.33       4.9  T
   5    -84.3159516 -0.763139E-06  0.112E-03    0.33      13.8  T
   6    -84.3159517 -0.930403E-07  0.276E-04    0.33      55.8  T
   7    -84.3159517 -0.523687E-08  0.102E-04    0.33     151.7  T
   8    -84.3159517 -0.968413E-09  0.124E-05    0.33    1244.5  T
     SCC iter.                  ...        0 min,  0.042 sec
     gradient                   ...        0 min,  0.063 sec
 * total energy  :   -83.5944689 Eh     change       -0.5280713E-04 Eh
   gradient norm :     0.0039673 Eh/α   predicted    -0.3886830E-04 ( -26.40%)
   displ. norm   :     0.3103834 α      lambda       -0.7969058E-04
   maximum displ.:     0.2151084 α      in ANC's #2, #5, #1, ...
 * RMSD in coord.:     1.1323384 α      energy gain  -0.4531197E-02 Eh

generating ANC from model Hessian ...
Using Lindh-Hessian (1995)
 Shifting diagonal of input Hessian by   9.787682389910205E-003
 Lowest  eigenvalues of input Hessian
    0.000000    0.000000    0.000000    0.000000    0.000000    0.000000
    0.010000    0.010164    0.010625    0.011222    0.011426    0.011721
    0.011952    0.013067    0.014173    0.014511    0.014976    0.016039
 Highest eigenvalues
    1.978582    2.112143    2.122910    2.152803    2.213566    2.277546
 

........................................................................
.............................. CYCLE   43 ..............................
........................................................................
   1    -84.3162610 -0.843163E+02  0.116E-02    0.34       0.0  T
   2    -84.3159702  0.290729E-03  0.516E-02    0.34       1.0  T
   3    -84.3162731 -0.302909E-03  0.232E-03    0.34       6.6  T
   4    -84.3162734 -0.298105E-06  0.131E-03    0.34      11.7  T
   5    -84.3162736 -0.123372E-06  0.379E-04    0.34      40.7  T
   6    -84.3162736 -0.110035E-08  0.737E-05    0.34     209.3  T
   7    -84.3162736 -0.181231E-09  0.369E-05    0.34     417.7  T
     SCC iter.                  ...        0 min,  0.039 sec
     gradient                   ...        0 min,  0.062 sec
 * total energy  :   -83.5945250 Eh     change       -0.5603230E-04 Eh
   gradient norm :     0.0039255 Eh/α   predicted     0.0000000E+00 (-100.00%)
   displ. norm   :     0.0451330 α      lambda       -0.5529587E-04
   maximum displ.:     0.0247533 α      in ANC's #12, #11, #2, ...

........................................................................
.............................. CYCLE   44 ..............................
........................................................................
   1    -84.3166569 -0.843167E+02  0.101E-02    0.34       0.0  T
   2    -84.3162926  0.364311E-03  0.574E-02    0.33       1.0  T
   3    -84.3166686 -0.375972E-03  0.394E-03    0.34       3.9  T
   4    -84.3166695 -0.885286E-06  0.237E-03    0.34       6.5  T
   5    -84.3166699 -0.426148E-06  0.684E-04    0.34      22.5  T
   6    -84.3166699 -0.450662E-07  0.470E-05    0.34     328.2  T
   7    -84.3166699 -0.133625E-09  0.950E-06    0.34    1624.6  T
     SCC iter.                  ...        0 min,  0.038 sec
     gradient                   ...        0 min,  0.062 sec
 * total energy  :   -83.5945690 Eh     change       -0.4403274E-04 Eh
   gradient norm :     0.0017295 Eh/α   predicted    -0.2796354E-04 ( -36.49%)
   displ. norm   :     0.1884365 α      lambda       -0.8576946E-04
   maximum displ.:     0.1030440 α      in ANC's #12, #11, #2, ...

........................................................................
.............................. CYCLE   45 ..............................
........................................................................
   1    -84.3167387 -0.843167E+02  0.380E-02    0.34       0.0  T
   2    -84.3107440  0.599469E-02  0.231E-01    0.32       1.0  T
   3    -84.3169169 -0.617285E-02  0.970E-03    0.33       1.6  T
   4    -84.3169203 -0.341680E-05  0.723E-03    0.33       2.1  T
   5    -84.3169236 -0.335630E-05  0.358E-03    0.33       4.3  T
   6    -84.3169249 -0.125453E-05  0.603E-04    0.33      25.6  T
   7    -84.3169249 -0.350320E-07  0.378E-05    0.33     408.5  T
   8    -84.3169249 -0.520970E-10  0.191E-05    0.33     807.5  T
     SCC iter.                  ...        0 min,  0.043 sec
     gradient                   ...        0 min,  0.061 sec
 * total energy  :   -83.5946460 Eh     change       -0.7701355E-04 Eh
   gradient norm :     0.0039459 Eh/α   predicted    -0.4356418E-04 ( -43.43%)
   displ. norm   :     0.1218364 α      lambda       -0.5586363E-04
   maximum displ.:     0.0629550 α      in ANC's #12, #11, #2, ...

........................................................................
.............................. CYCLE   46 ..............................
........................................................................
   1    -84.3166370 -0.843166E+02  0.156E-02    0.34       0.0  T
   2    -84.3157695  0.867492E-03  0.881E-02    0.33       1.0  T
   3    -84.3166661 -0.896576E-03  0.165E-03    0.33       9.3  T
   4    -84.3166661  0.298990E-07  0.148E-03    0.33      10.4  T
   5    -84.3166662 -0.171950E-06  0.489E-04    0.33      31.5  T
   6    -84.3166662 -0.203392E-07  0.297E-05    0.33     519.5  T
   7    -84.3166662  0.873968E-11  0.236E-05    0.33     654.5  T
     SCC iter.                  ...        0 min,  0.038 sec
     gradient                   ...        0 min,  0.061 sec
 * total energy  :   -83.5946950 Eh     change       -0.4899188E-04 Eh
   gradient norm :     0.0041862 Eh/α   predicted    -0.2869897E-04 ( -41.42%)
   displ. norm   :     0.3357118 α      lambda       -0.1445032E-03
   maximum displ.:     0.1597390 α      in ANC's #12, #11, #2, ...

........................................................................
.............................. CYCLE   47 ..............................
........................................................................
   1    -84.3147512 -0.843148E+02  0.274E-02    0.34       0.0  T
   2    -84.3123102  0.244097E-02  0.147E-01    0.32       1.0  T
   3    -84.3148298 -0.251956E-02  0.433E-03    0.33       3.6  T
   4    -84.3148304 -0.588927E-06  0.239E-03    0.33       6.5  T
   5    -84.3148307 -0.310339E-06  0.521E-04    0.33      29.6  T
   6    -84.3148307 -0.315018E-08  0.141E-04    0.33     109.7  T
   7    -84.3148307 -0.170525E-08  0.538E-05    0.33     286.9  T
     SCC iter.                  ...        0 min,  0.040 sec
     gradient                   ...        0 min,  0.061 sec
 * total energy  :   -83.5947517 Eh     change       -0.5665032E-04 Eh
   gradient norm :     0.0070750 Eh/α   predicted    -0.8041277E-04 (  41.95%)
   displ. norm   :     0.0598419 α      lambda       -0.9100383E-04
   maximum displ.:     0.0349825 α      in ANC's #12, #11, #9, ...

........................................................................
.............................. CYCLE   48 ..............................
........................................................................
   1    -84.3165975 -0.843166E+02  0.161E-02    0.33       0.0  T
   2    -84.3158856  0.711858E-03  0.806E-02    0.35       1.0  T
   3    -84.3166245 -0.738846E-03  0.548E-03    0.34       2.8  T
   4    -84.3166264 -0.197544E-05  0.147E-03    0.33      10.5  T
   5    -84.3166264 -0.284359E-09  0.525E-04    0.33      29.4  T
   6    -84.3166265 -0.205993E-07  0.894E-05    0.33     172.7  T
   7    -84.3166265 -0.427505E-09  0.261E-05    0.33     590.9  T
     SCC iter.                  ...        0 min,  0.039 sec
     gradient                   ...        0 min,  0.061 sec
 * total energy  :   -83.5948024 Eh     change       -0.5074628E-04 Eh
   gradient norm :     0.0025359 Eh/α   predicted    -0.4566599E-04 ( -10.01%)
   displ. norm   :     0.1115730 α      lambda       -0.4372664E-04
   maximum displ.:     0.0501901 α      in ANC's #11, #2, #12, ...

........................................................................
.............................. CYCLE   49 ..............................
........................................................................
   1    -84.3168328 -0.843168E+02  0.803E-03    0.33       0.0  T
   2    -84.3166255  0.207286E-03  0.435E-02    0.34       1.0  T
   3    -84.3168398 -0.214381E-03  0.371E-03    0.34       4.2  T
   4    -84.3168407 -0.877831E-06  0.213E-03    0.34       7.2  T
   5    -84.3168410 -0.318108E-06  0.790E-04    0.34      19.5  T
   6    -84.3168411 -0.600342E-07  0.633E-05    0.34     244.0  T
   7    -84.3168411 -0.284828E-09  0.118E-05    0.34    1309.3  T
     SCC iter.                  ...        0 min,  0.037 sec
     gradient                   ...        0 min,  0.059 sec
 * total energy  :   -83.5948388 Eh     change       -0.3639260E-04 Eh
   gradient norm :     0.0021893 Eh/α   predicted    -0.2213651E-04 ( -39.17%)
   displ. norm   :     0.2983961 α      lambda       -0.9145172E-04
   maximum displ.:     0.1438493 α      in ANC's #11, #2, #12, ...

........................................................................
.............................. CYCLE   50 ..............................
........................................................................
   1    -84.3156383 -0.843156E+02  0.175E-02    0.33       0.0  T
   2    -84.3147760  0.862274E-03  0.891E-02    0.35       1.0  T
   3    -84.3156718 -0.895801E-03  0.592E-03    0.34       2.6  T
   4    -84.3156739 -0.208509E-05  0.311E-03    0.34       5.0  T
   5    -84.3156745 -0.622680E-06  0.101E-03    0.34      15.4  T
   6    -84.3156746 -0.813872E-07  0.133E-04    0.34     116.2  T
   7    -84.3156746 -0.104227E-08  0.213E-05    0.34     723.0  T
     SCC iter.                  ...        0 min,  0.036 sec
     gradient                   ...        0 min,  0.062 sec
 * total energy  :   -83.5948901 Eh     change       -0.5133379E-04 Eh
   gradient norm :     0.0049402 Eh/α   predicted    -0.4980163E-04 (  -2.98%)
   displ. norm   :     0.0586402 α      lambda       -0.4703082E-04
   maximum displ.:     0.0325903 α      in ANC's #2, #11, #3, ...

........................................................................
.............................. CYCLE   51 ..............................
........................................................................
   1    -84.3166489 -0.843166E+02  0.112E-02    0.34       0.0  T
   2    -84.3163299  0.318933E-03  0.540E-02    0.35       1.0  T
   3    -84.3166616 -0.331649E-03  0.177E-03    0.34       8.7  T
   4    -84.3166615  0.108868E-06  0.144E-03    0.34      10.7  T
   5    -84.3166616 -0.138105E-06  0.201E-04    0.34      76.8  T
   6    -84.3166616 -0.589225E-09  0.398E-05    0.34     387.6  T
   7    -84.3166616  0.102276E-09  0.389E-05    0.34     397.1  T
     SCC iter.                  ...        0 min,  0.037 sec
     gradient                   ...        0 min,  0.062 sec
 * total energy  :   -83.5949219 Eh     change       -0.3177505E-04 Eh
   gradient norm :     0.0030950 Eh/α   predicted    -0.2360510E-04 ( -25.71%)
   displ. norm   :     0.1874333 α      lambda       -0.4356104E-04
   maximum displ.:     0.0982256 α      in ANC's #2, #11, #6, ...

........................................................................
.............................. CYCLE   52 ..............................
........................................................................
   1    -84.3165075 -0.843165E+02  0.363E-03    0.34       0.0  T
   2    -84.3164977  0.981903E-05  0.988E-03    0.34       1.6  T
   3    -84.3165065 -0.883363E-05  0.390E-03    0.34       4.0  T
   4    -84.3165083 -0.174776E-05  0.804E-04    0.34      19.2  T
   5    -84.3165083 -0.389044E-07  0.222E-04    0.34      69.4  T
   6    -84.3165083 -0.718003E-09  0.528E-05    0.34     292.1  T
   7    -84.3165083 -0.174154E-09  0.221E-05    0.34     698.1  T
     SCC iter.                  ...        0 min,  0.036 sec
     gradient                   ...        0 min,  0.061 sec
 * total energy  :   -83.5949529 Eh     change       -0.3102892E-04 Eh
   gradient norm :     0.0029898 Eh/α   predicted    -0.2254622E-04 ( -27.34%)
   displ. norm   :     0.1443765 α      lambda       -0.4029808E-04
   maximum displ.:     0.0836197 α      in ANC's #2, #11, #6, ...

........................................................................
.............................. CYCLE   53 ..............................
........................................................................
   1    -84.3169413 -0.843169E+02  0.138E-02    0.35       0.0  T
   2    -84.3162946  0.646642E-03  0.763E-02    0.34       1.0  T
   3    -84.3169641 -0.669505E-03  0.354E-03    0.34       4.4  T
   4    -84.3169651 -0.934193E-06  0.166E-03    0.34       9.3  T
   5    -84.3169652 -0.103892E-06  0.929E-04    0.34      16.6  T
   6    -84.3169653 -0.814767E-07  0.735E-05    0.34     209.8  T
   7    -84.3169653 -0.530449E-09  0.173E-05    0.34     890.8  T
     SCC iter.                  ...        0 min,  0.037 sec
     gradient                   ...        0 min,  0.062 sec
 * total energy  :   -83.5949798 Eh     change       -0.2683824E-04 Eh
   gradient norm :     0.0019321 Eh/α   predicted    -0.2057322E-04 ( -23.34%)
   displ. norm   :     0.1676591 α      lambda       -0.1826872E-04
   maximum displ.:     0.0986210 α      in ANC's #2, #11, #4, ...

........................................................................
.............................. CYCLE   54 ..............................
........................................................................
   1    -84.3166480 -0.843166E+02  0.151E-02    0.35       0.0  T
   2    -84.3159352  0.712791E-03  0.802E-02    0.34       1.0  T
   3    -84.3166745 -0.739374E-03  0.159E-03    0.35       9.7  T
   4    -84.3166745 -0.138240E-07  0.114E-03    0.35      13.6  T
   5    -84.3166746 -0.722634E-07  0.362E-04    0.35      42.7  T
   6    -84.3166746 -0.493144E-08  0.453E-05    0.35     340.9  T
   7    -84.3166746 -0.703579E-10  0.211E-05    0.35     732.4  T
     SCC iter.                  ...        0 min,  0.036 sec
     gradient                   ...        0 min,  0.061 sec
 * total energy  :   -83.5949956 Eh     change       -0.1586182E-04 Eh
   gradient norm :     0.0024105 Eh/α   predicted    -0.9248773E-05 ( -41.69%)
   displ. norm   :     0.0545233 α      lambda       -0.2184459E-04
   maximum displ.:     0.0294234 α      in ANC's #2, #4, #16, ...

........................................................................
.............................. CYCLE   55 ..............................
........................................................................
   1    -84.3177868 -0.843178E+02  0.938E-03    0.35       0.0  T
   2    -84.3175743  0.212512E-03  0.440E-02    0.34       1.0  T
   3    -84.3177953 -0.220974E-03  0.199E-03    0.35       7.8  T
   4    -84.3177952  0.398679E-07  0.132E-03    0.35      11.7  T
[...]
H41-C23=1.0897       H42-C23=1.0898       
 C  H  Rav=1.0919 sigma=0.0036  Rmin=1.0872  Rmax=1.0984    15
 C  C  Rav=1.4742 sigma=0.0494  Rmin=1.4031  Rmax=1.5328     8
 N  H  Rav=1.0099 sigma=0.0016  Rmin=1.0083  Rmax=1.0116     2
 N  C  Rav=1.3742 sigma=0.0642  Rmin=1.2790  Rmax=1.4762     8
 N  N  Rav=1.3716 sigma=0.0000  Rmin=1.3716  Rmax=1.3716     1
 O  C  Rav=1.3482 sigma=0.0699  Rmin=1.2418  Rmax=1.4189     9
 
 selected bond angles (degree)
 --------------------
H26-C1-O2=111.64               H27-C1-O2=107.46               H27-C1-H26=109.02              H28-C1-O2=111.51               
H28-C1-H26=108.20              H28-C1-H27=108.96              C3-O2-C1=114.78                O4-C3-O2=117.76                
C5-C3-O2=112.68                C5-C3-O4=129.56                C6-C5-C3=123.21                N25-C5-C3=116.29               
N25-C5-C6=120.49               O7-C6-C5=122.94                C8-C6-C5=114.14                C8-C6-O7=122.90                
O9-C8-C6=123.30                N11-C8-C6=122.40               N11-C8-O9=113.99               C10-O9-C8=115.90               
H29-C10-O9=111.48              H30-C10-O9=107.30              H30-C10-H29=108.69             H31-C10-O9=111.50              
H31-C10-H29=108.63             H31-C10-H30=109.18             
 
 selected dihedral angles (degree)
 ---------------------------------
C3-O2-C1-H26= 61.20           C3-O2-C1-H27=180.70           C3-O2-C1-H28=300.04           O4-C3-O2-C1=359.35            
C5-C3-O2-C1=180.02            C6-C5-C3-O2=180.45            C6-C5-C3-O4=  1.23            N25-C5-C3-O2=  0.44           
N25-C5-C3-O4=181.21           O7-C6-C5-C3=  2.20            O7-C6-C5-N25=182.22           C8-C6-C5-C3=180.46            
C8-C6-C5-N25=  0.47           O9-C8-C6-C5=177.30            O9-C8-C6-O7=355.56            N11-C8-C6-C5=  3.95           
N11-C8-C6-O7=182.21           C10-O9-C8-C6=107.96           C10-O9-C8-N11=281.81          H29-C10-O9-C8= 65.40          
H30-C10-O9-C8=184.29          H31-C10-O9-C8=303.80          
           -------------------------------------------------
          |                Final Singlepoint                |
           -------------------------------------------------

          ...................................................
          :                      SETUP                      :
          :.................................................:
          :  # basis functions                 134          :
          :  # atomic orbitals                 134          :
          :  # shells                           84          :
          :  # electrons                       136          :
          :  # halogen bonds                     0          :
          :  max. iterations                   250          :
          :  Hamiltonian                  GFN1-xTB          :
          :  restarted?                      false          :
          :  GBSA solvation                   true          :
          :  PC potential                    false          :
          :  electronic temp.          300.0000000     K    :
          :  accuracy                    1.0000000          :
          :  -> integral cutoff          0.2500000E+02      :
          :  -> integral neglect         0.1000000E-07      :
          :  -> SCF convergence          0.1000000E-05 Eh   :
          :  -> wf. convergence          0.2000000E-04 e    :
          :  Broyden damping             0.4000000          :
          ...................................................

 iter      E             dE          RMSdq      gap      omega  full diag
   1    -84.3171320 -0.843171E+02  0.443E-06    0.36       0.0  T
   2    -84.3171320 -0.284217E-12  0.286E-06    0.36    5387.1  T
   3    -84.3171320  0.324007E-11  0.557E-06    0.36    2772.0  T

   *** convergence criteria satisfied after 3 iterations ***

         #    Occupation            Energy/Eh            Energy/eV
      -------------------------------------------------------------
         1        2.0000           -0.8032679             -21.8580
       ...           ...                  ...                  ...
        62        2.0000           -0.3985282             -10.8445
        63        2.0000           -0.3948779             -10.7452
        64        2.0000           -0.3881508             -10.5621
        65        2.0000           -0.3774996             -10.2723
        66        2.0000           -0.3377756              -9.1913
        67        2.0000           -0.3324551              -9.0466
        68        1.9982           -0.2744331              -7.4677 (HOMO)
        69        0.0018           -0.2610880              -7.1046 (LUMO)
        70                         -0.2088529              -5.6832
        71                         -0.2001901              -5.4475
        72                         -0.1641111              -4.4657
        73                         -0.1408048              -3.8315
       ...                                ...                  ...
       134                          0.7364191              20.0390
      -------------------------------------------------------------
                  HL-Gap            0.0133452 Eh            0.3631 eV
             Fermi-level           -0.2677605 Eh           -7.2861 eV

 SCC (total)                   0 d,  0 h,  0 min,  0.106 sec
 SCC setup                      ...        0 min,  0.002 sec (  1.519%)
 Dispersion                     ...        0 min,  0.000 sec (  0.214%)
 classical contributions        ...        0 min,  0.000 sec (  0.072%)
 integral evaluation            ...        0 min,  0.026 sec ( 24.661%)
 iterations                     ...        0 min,  0.017 sec ( 15.780%)
 molecular gradient             ...        0 min,  0.060 sec ( 56.636%)
 printout                       ...        0 min,  0.001 sec (  1.096%)

         :::::::::::::::::::::::::::::::::::::::::::::::::::::
         ::                     SUMMARY                     ::
         :::::::::::::::::::::::::::::::::::::::::::::::::::::
         :: total energy             -83.595053338819 Eh    ::
         :: total w/o Gsasa/hb       -83.577219877484 Eh    ::
         :: gradient norm              0.000589058264 Eh/a0 ::
         :: HOMO-LUMO gap              0.363140968244 eV    ::
         ::.................................................::
         :: SCC energy               -84.317131993543 Eh    ::
         :: -> electrostatic           0.713652185872 Eh    ::
         :: -> Gsolv                  -0.309777749716 Eh    ::
         ::    -> Gelec               -0.291944288381 Eh    ::
         ::    -> Gsasa               -0.023538713435 Eh    ::
         ::    -> Ghb                 -0.001919026904 Eh    ::
         ::    -> Gshift               0.007624279005 Eh    ::
         :: repulsion energy           0.750013908896 Eh    ::
         :: dispersion energy         -0.027935254173 Eh    ::
         :: halogen bond corr.         0.000000000000 Eh    ::
         :: add. restraining           0.000000000000 Eh    ::
         :: total charge              -2.000000000000 e     ::
         :::::::::::::::::::::::::::::::::::::::::::::::::::::

           -------------------------------------------------
          |                Property Printout                |
           -------------------------------------------------

    * Orbital Energies and Occupations

         #    Occupation            Energy/Eh            Energy/eV
      -------------------------------------------------------------
         1        2.0000           -0.8032679             -21.8580
       ...           ...                  ...                  ...
        56        2.0000           -0.4303600             -11.7107
        57        2.0000           -0.4262220             -11.5981
        58        2.0000           -0.4227210             -11.5028
        59        2.0000           -0.4095513             -11.1445
        60        2.0000           -0.4054002             -11.0315
        61        2.0000           -0.4026151             -10.9557
        62        2.0000           -0.3985282             -10.8445
        63        2.0000           -0.3948779             -10.7452
        64        2.0000           -0.3881508             -10.5621
        65        2.0000           -0.3774996             -10.2723
        66        2.0000           -0.3377756              -9.1913
        67        2.0000           -0.3324551              -9.0466
        68        1.9982           -0.2744331              -7.4677 (HOMO)
        69        0.0018           -0.2610880              -7.1046 (LUMO)
        70                         -0.2088529              -5.6832
        71                         -0.2001901              -5.4475
        72                         -0.1641111              -4.4657
        73                         -0.1408048              -3.8315
        74                         -0.1246112              -3.3908
        75                         -0.1104163              -3.0046
        76                         -0.1072915              -2.9195
        77                         -0.1039243              -2.8279
        78                         -0.0958435              -2.6080
        79                         -0.0721662              -1.9637
       ...                                ...                  ...
       134                          0.7364191              20.0390
      -------------------------------------------------------------
                  HL-Gap            0.0133452 Eh            0.3631 eV
             Fermi-level           -0.2677605 Eh           -7.2861 eV

  Mulliken/CM5 charges         n(s)   n(p)   n(d)
     1C     0.18462  0.06695   0.961  2.854  0.000
     2O    -0.48626 -0.56426   1.703  4.783  0.000
     3C     0.49054  0.55048   0.977  2.532  0.000
     4O    -0.67758 -0.72105   1.744  4.934  0.000
     5C    -0.05050  0.02321   1.041  3.010  0.000
     6C     0.26184  0.30413   1.017  2.721  0.000
     7O    -0.72246 -0.75901   1.754  4.968  0.000
     8C     0.19664  0.28047   0.977  2.827  0.000
     9O    -0.47671 -0.55650   1.689  4.788  0.000
    10C     0.17183  0.05255   0.971  2.857  0.000
    11N    -0.32326 -0.66632   1.448  3.875  0.000
    12C     0.23927  0.38962   1.006  2.755  0.000
    13C     0.15128  0.18947   1.065  2.784  0.000
    14C    -0.10634 -0.24748   1.018  3.088  0.000
    15C    -0.08258 -0.22057   1.009  3.073  0.000
    16N    -0.42301 -0.76185   1.473  3.950  0.000
    17C     0.39481  0.49343   0.982  2.623  0.000
    18O    -0.67143 -0.70921   1.745  4.926  0.000
    19C     0.28694  0.40371   1.007  2.706  0.000
    20N    -0.32864 -0.42582   1.581  3.747  0.000
    21N    -0.30880 -0.41739   1.570  3.738  0.000
    22C     0.36341  0.47245   0.993  2.644  0.000
    23C    -0.10849 -0.24593   1.008  3.101  0.000
    24O    -0.40460 -0.46330   1.709  4.696  0.000
    25N    -0.40003 -0.58280   1.538  3.862  0.000
    26H     0.01222  0.07342   0.988  0.000  0.000
    27H     0.01081  0.07087   0.989  0.000  0.000
    28H     0.01344  0.07484   0.987  0.000  0.000
    29H     0.00923  0.06979   0.991  0.000  0.000
    30H     0.01840  0.07829   0.982  0.000  0.000
    31H     0.01062  0.06974   0.989  0.000  0.000
    32H     0.21715  0.42772   0.783  0.000  0.000
    33H     0.03398  0.09096   0.966  0.000  0.000
    34H     0.03393  0.08922   0.966  0.000  0.000
    35H     0.03068  0.08501   0.969  0.000  0.000
    36H     0.01442  0.06968   0.986  0.000  0.000
    37H     0.01826  0.07588   0.982  0.000  0.000
    38H     0.03369  0.09514   0.966  0.000  0.000
    39H     0.21230  0.41934   0.788  0.000  0.000
    40H     0.04752  0.10337   0.952  0.000  0.000
    41H     0.05580  0.11018   0.944  0.000  0.000
    42H     0.05706  0.11156   0.943  0.000  0.000

Wiberg/Mayer (AO) data.
largest (>0.10) Wiberg bond orders for each atom

 ---------------------------------------------------------------------------
     #   Z sym  total        # sym  WBO       # sym  WBO       # sym  WBO
 ---------------------------------------------------------------------------
     1   6 C    3.923 --    27 H    0.987    26 H    0.980    28 H    0.980
                             2 O    0.955
     2   8 O    2.055 --     1 C    0.955     3 C    0.928
     3   6 C    3.804 --     4 O    1.480     5 C    1.281     2 O    0.928
     4   8 O    1.741 --     3 C    1.480
     5   6 C    3.848 --     3 C    1.281    25 N    1.135     6 C    1.068
     6   6 C    3.953 --     7 O    1.404     8 C    1.334     5 C    1.068
     7   8 O    1.665 --     6 C    1.404     8 C    0.122
     8   6 C    3.772 --     6 C    1.334    11 N    1.014     9 O    0.948
                             7 O    0.122
     9   8 O    2.021 --     8 C    0.948    10 C    0.941
    10   6 C    3.927 --    30 H    0.985    31 H    0.982    29 H    0.981
                             9 O    0.941
    11   7 N    3.370 --    12 C    1.078     8 C    1.014    32 H    0.912
    12   6 C    3.936 --    25 N    1.645    11 N    1.078    13 C    0.971
    13   6 C    3.955 --    15 C    0.996    14 C    0.989    12 C    0.971
                            16 N    0.935
    14   6 C    3.993 --    13 C    0.989    34 H    0.986    35 H    0.985
                            33 H    0.984
    15   6 C    3.996 --    13 C    0.996    36 H    0.988    37 H    0.986
                            38 H    0.981
    16   7 N    3.120 --    17 C    1.037    13 C    0.935    39 H    0.933
    17   6 C    3.889 --    18 O    1.452    19 C    1.140    16 N    1.037
    18   8 O    1.774 --    17 C    1.452
    19   6 C    3.827 --    20 N    1.430    17 C    1.140    24 O    0.975
    20   7 N    2.854 --    19 C    1.430    21 N    1.177
    21   7 N    2.981 --    22 C    1.640    20 N    1.177
    22   6 C    3.859 --    21 N    1.640    24 O    1.041    23 C    1.024
    23   6 C    3.994 --    22 C    1.024    40 H    0.986    42 H    0.971
                            41 H    0.970
    24   8 O    2.226 --    22 C    1.041    19 C    0.975
    25   7 N    3.010 --    12 C    1.645     5 C    1.135
    26   1 H    1.021 --     1 C    0.980
    27   1 H    1.021 --     1 C    0.987
    28   1 H    1.021 --     1 C    0.980
    29   1 H    1.016 --    10 C    0.981
    30   1 H    1.021 --    10 C    0.985
    31   1 H    1.016 --    10 C    0.982
    32   1 H    0.968 --    11 N    0.912
    33   1 H    1.004 --    14 C    0.984
    34   1 H    1.003 --    14 C    0.986
    35   1 H    1.007 --    14 C    0.985
    36   1 H    1.010 --    15 C    0.988
    37   1 H    1.020 --    15 C    0.986
    38   1 H    1.028 --    15 C    0.981
    39   1 H    0.971 --    16 N    0.933
    40   1 H    1.004 --    23 C    0.986
    41   1 H    1.001 --    23 C    0.970
    42   1 H    1.002 --    23 C    0.971
 ---------------------------------------------------------------------------

Topologies differ in total number of bonds
Writing topology from bond orders to xtbtopo.mol

 dipole moment from electron density (au)
     X       Y       Z   
   6.1980  -7.5842  -4.9063  total (Debye):   27.844

           -------------------------------------------------
          |                Geometry Summary                 |
           -------------------------------------------------

      molecular mass/u    :      351.3152409
   center of mass at/Å    :       -0.0888498       0.3493636       0.2672920
  moments of inertia/u·Å² :        0.1350767E+04   0.3301100E+04   0.3963928E+04
rotational constants/cm⁻¹ :        0.1248005E-01   0.5106672E-02   0.4252759E-02

 * 36 selected distances

     #   Z          #   Z                                           value/Å
     1   6 C        2   8 O                                       1.4098775
     3   6 C        4   8 O                                       1.2418314
     3   6 C        5   6 C                                       1.4120019
     6   6 C        8   6 C                                       1.4030601
     8   6 C        9   8 O                                       1.3941994
     9   8 O       10   6 C                                       1.4189371
     8   6 C       11   7 N                                       1.4134270
    11   7 N       12   6 C                                       1.3906365
    13   6 C       14   6 C                                       1.5327573 (max)
    13   6 C       15   6 C                                       1.5315699
    13   6 C       16   7 N                                       1.4762212
    16   7 N       17   6 C                                       1.4220548
    17   6 C       19   6 C                                       1.4318150
    19   6 C       20   7 N                                       1.3298672
    21   7 N       22   6 C                                       1.2900263
    22   6 C       23   6 C                                       1.4833500
    19   6 C       24   8 O                                       1.3814556
    22   6 C       24   8 O                                       1.3554991
    12   6 C       25   7 N                                       1.2790166
     1   6 C       26   1 H                                       1.0984294
     1   6 C       27   1 H                                       1.0913961
     1   6 C       28   1 H                                       1.0979061
    10   6 C       29   1 H                                       1.0967096
    10   6 C       30   1 H                                       1.0913136
    10   6 C       31   1 H                                       1.0972343
    11   7 N       32   1 H                                       1.0083094 (min)
    14   6 C       33   1 H                                       1.0894091
    14   6 C       34   1 H                                       1.0891605
    14   6 C       35   1 H                                       1.0896194
    15   6 C       36   1 H                                       1.0889361
    15   6 C       37   1 H                                       1.0903427
    15   6 C       38   1 H                                       1.0906983
    16   7 N       39   1 H                                       1.0115689
    23   6 C       40   1 H                                       1.0872168
    23   6 C       41   1 H                                       1.0896738
    23   6 C       42   1 H                                       1.0898263

 * 5 distinct bonds (by element types)

   Z      Z             #   av. dist./Å        max./Å        min./Å
   1 H    6 C          15     1.0918581     1.0984294     1.0872168
   6 C    6 C           6     1.4657590     1.5327573     1.4030601
   1 H    7 N           2     1.0099391     1.0115689     1.0083094
   6 C    7 N           7     1.3716071     1.4762212     1.2790166
   6 C    8 O           6     1.3669667     1.4189371     1.2418314


optimized geometry written to: xtbopt.xyz


           -------------------------------------------------
          | TOTAL ENERGY              -83.595053338819 Eh   |
          | GRADIENT NORM               0.000589058264 Eh/α |
          | HOMO-LUMO GAP               0.363140968244 eV   |
           -------------------------------------------------

------------------------------------------------------------------------
 * finished run on 2023/06/21 at 17:14:31.471     
------------------------------------------------------------------------
 total:
 * wall-time:     0 d,  0 h,  0 min,  8.840 sec
 *  cpu-time:     0 d,  0 h,  0 min,  8.789 sec
 * ratio c/w:     0.994 speedup
 SCF:
 * wall-time:     0 d,  0 h,  0 min,  0.191 sec
 *  cpu-time:     0 d,  0 h,  0 min,  0.191 sec
 * ratio c/w:     1.000 speedup
 ANC optimizer:
 * wall-time:     0 d,  0 h,  0 min,  8.564 sec
 *  cpu-time:     0 d,  0 h,  0 min,  8.558 sec
 * ratio c/w:     0.999 speedup

