43
 energy: -76.181691107867 gnorm: 0.000836771874 xtb: 6.5.1 (579679a)
C           -4.01670078212021       -2.00839940533460       -0.23955189155167
N           -2.69674877546738       -1.46374571292113        0.08707420461543
C           -2.40619253450992       -0.12105112336514        0.07340870923222
C           -3.45717048106406        0.93751309629999       -0.24063487488076
C           -4.28864058865241        1.19963834778991        1.02429011691700
C           -2.75067032857585        2.23848523473570       -0.65883042322573
N           -4.33795576504485        0.48871984090182       -1.31394841128098
N           -1.22955439297754        0.32505174221052        0.37862775947858
C           -0.19813534925292       -0.50933573105230        0.70544752742817
C            1.08073288265002        0.20986991532019        1.02369716855946
O            1.11089127332282        1.42835490740591        1.15365677113217
N            2.17629809818392       -0.56201254509841        1.16349186319955
C            3.48387901678212        0.03852689460064        1.40742349709509
C            4.20343082927117        0.31465636064288        0.10333687756354
C            3.77163956439728        1.34829470598768       -0.72716488880667
C            4.40917551919351        1.59870189773849       -1.93331554227943
C            5.48318566446580        0.80076946685046       -2.28596713049760
F            6.10676215269155        1.03646240955488       -3.45291440635108
C            5.94205432993882       -0.22820042510961       -1.48474932376948
C            5.28860505857795       -0.46747791147225       -0.28272437221480
C           -0.41582007529197       -1.85562134370422        0.71527165180472
O            0.52015719685709       -2.77899903612299        1.02237979231363
C           -1.72246049010786       -2.39568102465987        0.38899615180753
O           -1.93348000051422       -3.60827921177099        0.39104985576195
H           -4.16385902850179       -1.99113186896248       -1.31795097892962
H           -4.79431589338220       -1.42127373491113        0.23796916065744
H           -4.05706735702103       -3.03595400160426        0.12038349022665
H           -3.63409329406433        1.49349864888407        1.84411882437456
H           -4.99730256254150        2.00408331344045        0.83349767042616
H           -4.84477679751700        0.31223051739171        1.32038831162234
H           -2.12558886145245        2.06063777329424       -1.53277083016935
H           -2.12368545748015        2.60950513090733        0.15128278978813
H           -3.49740275706288        2.99080408733339       -0.90571242885176
H           -3.84523223185778        0.52786285267814       -2.19699886924129
H           -5.12826643708353        1.11490488562109       -1.37802072135447
H            2.14960280764507       -1.55036004525325        0.97902479083131
H            4.06316157961347       -0.65082520084542        2.02579757906651
H            3.32776900396663        0.97149229165727        1.95946041168925
H            2.93107686760097        1.96372976972444       -0.42759530978856
H            4.08277277804547        2.39629465505106       -2.58833465521641
H            6.78773117649701       -0.82800084183009       -1.79428926007112
H            5.63353228653455       -1.26995684405903        0.35860647913851
H            0.11266615530761       -3.66377873794326        0.95320786375065
