42
 energy: -83.647579642212 gnorm: 0.000567883735 xtb: 6.5.1 (579679a)
C            5.82681364466483        2.81022974116930       -0.35553288160524
O            5.01302947071266        1.67617315356301       -0.60711811877267
C            3.88758042524415        1.57672055199457        0.15217120508242
O            3.62250681786096        2.44329727095297        0.98005778103115
C            3.08164373843114        0.39636587897498       -0.10576232905882
N            1.95606270852327        0.32928289938956        0.69754729437696
C            1.14321115056007       -0.66021116987510        0.61165769984506
C           -0.08183116194389       -0.71229841364967        1.51666328537630
C           -0.00066646069382        0.45171997430406        2.50933572060394
C           -0.13337872064375       -2.03706806453975        2.29305574262626
N           -1.30418509245471       -0.51183337664594        0.73066993215248
C           -1.88373987633761       -1.42715733142270       -0.08746664051956
O           -1.35740571476489       -2.50118851022935       -0.39955684768069
C           -3.16017092473913       -0.91967613248551       -0.78379703142956
C           -4.16984965669826       -2.06566924153269       -0.96938306829927
N           -2.66479026751245       -0.39360401014547       -2.05998620039189
N           -2.96629390588082        0.93563398327631       -2.04743476819548
C           -3.57117702613607        1.25501660142154       -0.96621705488323
C           -4.11033958594967        2.58324875729273       -0.56528384694053
O           -3.74340673035731        0.16934623634412       -0.07827461776510
N            1.35338170734031       -1.68747531800008       -0.27896353018668
C            2.41476603012020       -1.75149321113700       -1.13481804654416
O            2.53588108165436       -2.71093590697648       -1.89908003554995
C            3.39111238739573       -0.59831906944910       -1.06885781960344
O            4.37209453912222       -0.60164363441404       -1.84025025740786
H            5.27655496422593        3.73707486004807       -0.54794015105015
H            6.17272860577954        2.81796576194856        0.68311673267612
H            6.68320509715686        2.74626663534603       -1.02577513380397
H            0.90667779097756        0.36591712813498        3.10525964530169
H            0.02511881975687        1.40271531937608        1.97742694875779
H           -0.86203861770940        0.43752912225551        3.17429552779834
H            0.76498618741056       -2.13555650378697        2.90081245758434
H           -0.19843094162645       -2.89151010271062        1.62232377334379
H           -1.00297660302707       -2.04330035888935        2.94801336039449
H           -1.92239297339268        0.20373832476587        1.08659117507311
H           -3.67085627552237       -2.91514603160274       -1.43300588118098
H           -4.57604953153683       -2.36596368313456       -0.00489250990153
H           -4.98203066808394       -1.72994393194184       -1.61090528982753
H           -3.96481598956285        3.29086012071455       -1.38073770100421
H           -5.17770842500115        2.51675283367550       -0.34185033352672
H           -3.60847407807051        2.96619050085317        0.32727187474866
H            0.68565606072930       -2.45204865328649       -0.30690506165539
