42
 energy: -83.615151856430 gnorm: 0.000355152624 xtb: 6.5.1 (579679a)
C           -6.08571000899455       -0.56160396196237        0.56139323839860
O           -5.07553131900856        0.35299845621609        0.15954258026669
C           -3.81211358268600       -0.14318957223161        0.08199301587457
O           -3.57312306678761       -1.31821000034894        0.32330389393114
C           -2.78041700943175        0.93802468930228       -0.18759010997865
C           -3.32110472223791        2.04227609331991       -1.09929087075400
N           -1.59770208344954        0.35004890880467       -0.79460586255874
C           -0.75860583973688       -0.22813755594915       -0.01559926711178
C            0.41151175003506       -1.00000201598483       -0.61061974747940
C            0.54222743249999       -0.68098379009620       -2.10591103946677
C            0.14146662454214       -2.49725232611569       -0.39852526410933
N            1.61321839619539       -0.58564680382456        0.12165842947240
C            2.87975686967475       -1.03505578030054       -0.28153516089282
O            3.06404730860567       -2.10859969613231       -0.89082059716469
C            3.90754986124042       -0.13636453468949        0.14360018805008
N            3.72328691051959        1.03237565282963        0.76480982227037
N            4.96535879625519        1.57694173827441        0.94362384490437
C            5.82371520316890        0.75117182009895        0.44175819128411
C            7.29830099150342        0.91316528151093        0.39766798287856
O            5.25102047578107       -0.35766703483647       -0.08416978872795
N           -0.85831618934242       -0.23052998373572        1.34062314867014
C           -1.61920439830952        0.76171761473379        2.04477353641223
O           -1.30860776156731        0.95192889593058        3.25672358966736
C           -2.57695492508343        1.45184260383479        1.26822783316682
O           -3.30461908428527        2.42106240168315        1.67462692262520
H           -5.88547121485605       -0.95072586725279        1.56505822679996
H           -7.02891510001550       -0.01709106817679        0.55824841759932
H           -6.14420508086078       -1.40219393635819       -0.13720763134118
H           -3.67497901863608        1.62063009178816       -2.03935975181585
H           -4.14211560127741        2.56621297991300       -0.61084162209516
H           -2.52548845972198        2.75574985300050       -1.31385392842504
H           -0.39135049588367       -0.92233960943748       -2.61334692104277
H            1.34885588563509       -1.26195113621196       -2.54996442582088
H            0.74730595842856        0.38017077717054       -2.24526854811421
H            0.90889987154295       -3.10071332292306       -0.87945732744332
H            0.12851958721090       -2.72789164135381        0.66635925192242
H           -0.82827152189801       -2.75308725570060       -0.82606279473699
H            1.61877612241436        0.40602092549090        0.34508427440945
H            7.57079379733099        1.87214146624260        0.83192563282052
H            7.65427778692397        0.86993627063679       -0.63178160163825
H            7.78695568108094        0.11411359549214        0.95582974270968
H           -0.09303582651942       -0.62274222265308        1.86898049658942
