38
 energy: -79.623607459555 gnorm: 0.000622587526 xtb: 6.5.1 (579679a)
C            2.69083758418102        4.35104268280761       -0.84688648437387
O            2.95492336421399        3.07438845724577       -0.28180769437394
C            1.91863803091745        2.19934562619302       -0.29793546072436
O            0.83217472761977        2.52608178416767       -0.76184934259397
C            2.21885224329679        0.88690712558146        0.25368049366400
N            1.14013057443081        0.02452831941175        0.17985254145588
C            1.23275475051287       -1.18565249485185        0.58650699302023
C            0.05063385499988       -2.12869768841220        0.45887429290797
C           -0.30918288333609       -2.75207023609524        1.81418471927629
C            0.36986367088696       -3.21591419474807       -0.57833955550121
N           -1.06193600554544       -1.30367020793563       -0.00904163161239
C           -2.28400732238340       -1.76639287299188       -0.29437364203829
O           -2.64570466592690       -2.93356304093405       -0.21373677672233
C           -3.22038872182129       -0.69561656017161       -0.73732049737847
N           -4.44166088401779       -0.83892928439160       -1.15260690647580
N           -4.91066386841925        0.41062061589576       -1.43554000387412
C           -3.94679373004358        1.23841248498512       -1.17290073520989
C           -3.96320332542492        2.71221819697286       -1.30183605885416
O           -2.85052518961033        0.60309646452810       -0.73030854416255
N            2.40392390354786       -1.68665531733795        1.11351777125128
C            3.54724622836698       -0.94076967146424        1.26628912251573
O            4.54682279940922       -1.45823959452957        1.75748306239726
C            3.47160321893674        0.49430704608022        0.79131281037312
O            4.48473478762149        1.20865385768286        0.90018982185570
H            3.61334336944010        4.92686574739329       -0.78340878117060
H            2.38575314145842        4.25425587069401       -1.89354316401510
H            1.89567927725539        4.86199236190650       -0.29511518293324
H           -1.17794239506966       -3.39934179712474        1.70693799069836
H           -0.53376513213594       -1.96995184428156        2.53783857068971
H            0.52356528274543       -3.34743044553221        2.18256395357198
H            0.57456574970282       -2.75855902245887       -1.54551785600171
H            1.24600872977458       -3.77706446760976       -0.25950348427279
H           -0.46901994896603       -3.90239205346029       -0.67712596159712
H           -0.84917983434131       -0.31390347898179       -0.12020071520701
H           -3.16669604880625        3.04068693595806       -1.96925998657369
H           -4.92447012228974        3.03181377674950       -1.69577420820642
H           -3.79863556179174        3.17286581036732       -0.32778389759641
H            2.45172035060676       -2.64326789129547        1.42252142778719
