      -----------------------------------------------------------      
     |                   =====================                   |     
     |                           x T B                           |     
     |                   =====================                   |     
     |                         S. Grimme                         |     
     |          Mulliken Center for Theoretical Chemistry        |     
     |                    University of Bonn                     |     
      -----------------------------------------------------------      

   * xtb version 6.5.1 (579679a) compiled by 'ehlert@majestix' on 2022-07-11

   xtb is free software: you can redistribute it and/or modify it under
   the terms of the GNU Lesser General Public License as published by
   the Free Software Foundation, either version 3 of the License, or
   (at your option) any later version.
   
   xtb is distributed in the hope that it will be useful,
   but WITHOUT ANY WARRANTY; without even the implied warranty of
   MERCHANTABILITY or FITNESS FOR A PARTICULAR PURPOSE.  See the
   GNU Lesser General Public License for more details.
   
   Cite this work as:
   * C. Bannwarth, E. Caldeweyher, S. Ehlert, A. Hansen, P. Pracht,
     J. Seibert, S. Spicher, S. Grimme, WIREs Comput. Mol. Sci., 2020, 11,
     e01493. DOI: 10.1002/wcms.1493
   
   for GFN2-xTB:
   * C. Bannwarth, S. Ehlert and S. Grimme., J. Chem. Theory Comput., 2019,
     15, 1652-1671. DOI: 10.1021/acs.jctc.8b01176
   for GFN1-xTB:
   * S. Grimme, C. Bannwarth, P. Shushkov, J. Chem. Theory Comput., 2017,
     13, 1989-2009. DOI: 10.1021/acs.jctc.7b00118
   for GFN0-xTB:
   * P. Pracht, E. Caldeweyher, S. Ehlert, S. Grimme, ChemRxiv, 2019, preprint.
     DOI: 10.26434/chemrxiv.8326202.v1
   for GFN-FF:
   * S. Spicher and S. Grimme, Angew. Chem. Int. Ed., 2020, 59, 15665-15673.
     DOI: 10.1002/anie.202004239
   
   for ALPB and GBSA implicit solvation:
   * S. Ehlert, M. Stahn, S. Spicher, S. Grimme, J. Chem. Theory Comput.,
     2021, 17, 4250-4261. DOI: 10.1021/acs.jctc.1c00471
   
   for DFT-D4:
   * E. Caldeweyher, C. Bannwarth and S. Grimme, J. Chem. Phys., 2017,
     147, 034112. DOI: 10.1063/1.4993215
   * E. Caldeweyher, S. Ehlert, A. Hansen, H. Neugebauer, S. Spicher,
     C. Bannwarth and S. Grimme, J. Chem. Phys., 2019, 150, 154122.
     DOI: 10.1063/1.5090222
   * E. Caldeweyher, J.-M. Mewes, S. Ehlert and S. Grimme, Phys. Chem. Chem. Phys.
     2020, 22, 8499-8512. DOI: 10.1039/D0CP00502A
   
   for sTDA-xTB:
   * S. Grimme and C. Bannwarth, J. Chem. Phys., 2016, 145, 054103.
     DOI: 10.1063/1.4959605
   
   in the mass-spec context:
   * V. Asgeirsson, C. Bauer and S. Grimme, Chem. Sci., 2017, 8, 4879.
     DOI: 10.1039/c7sc00601b
   * J. Koopman and S. Grimme, ACS Omega 2019, 4, 12, 15120-15133.
     DOI: 10.1021/acsomega.9b02011
   
   for metadynamics refer to:
   * S. Grimme, J. Chem. Theory Comput., 2019, 155, 2847-2862
     DOI: 10.1021/acs.jctc.9b00143
   
   for SPH calculations refer to:
   * S. Spicher and S. Grimme, J. Chem. Theory Comput., 2021, 17, 1701-1714
     DOI: 10.1021/acs.jctc.0c01306
   
   with help from (in alphabetical order)
   P. Atkinson, C. Bannwarth, F. Bohle, G. Brandenburg, E. Caldeweyher
   M. Checinski, S. Dohm, S. Ehlert, S. Ehrlich, I. Gerasimov, C. Hölzer
   A. Katbashev, J. Koopman, C. Lavigne, S. Lehtola, F. März, M. Müller,
   F. Musil, H. Neugebauer, J. Pisarek, C. Plett, P. Pracht, F. Pultar,
   J. Seibert, P. Shushkov, S. Spicher, M. Stahn, M. Steiner, T. Strunk,
   J. Stückrath, T. Rose, and J. Unsleber
   
 * started run on 2023/06/20 at 15:45:19.156     

           -------------------------------------------------
          |                Calculation Setup                |
           -------------------------------------------------

          program call               : /lustre/hpc/kemi/ree/PhD/git/ReactivityQM/dep/xtb-6.5.1/bin/xtb --gfn 1 /lustre/hpc/kemi/ree/PhD/git/ReactivityQM/calculations/R03/reac02prodN10/conf04/R03_reac02prodN10_conf04_gfn1.xyz --opt --vfukui --chrg 1 --uhf 0 --alpb DMSO
          hostname                   : node068
          coordinate file            : /lustre/hpc/kemi/ree/PhD/git/ReactivityQM/calculations/R03/reac02prodN10/conf04/R03_reac02prodN10_conf04_gfn1.xyz
          omp threads                :                     1

   ID    Z sym.   atoms
    1    6 C      1, 3, 5, 6, 8, 11-16, 18, 20, 23, 24
    2    8 O      2, 4, 7, 9, 19, 25
    3    7 N      10, 17, 21, 22, 26
    4    1 H      27-46

           -------------------------------------------------
          |                 G F N 1 - x T B                 |
           -------------------------------------------------

        Reference                      10.1021/acs.jctc.7b00118
      * Hamiltonian:
        H0-scaling (s, p, d)           1.850000    2.250000    2.000000
        zeta-weighting                 0.000000
      * Dispersion:
        s8                             2.400000
        a1                             0.630000
        a2                             5.000000
        s9                             0.000000
      * Repulsion:
        kExp                           1.500000
        rExp                           1.000000
      * Coulomb:
        alpha                          2.000000
        third order                    atomic
        anisotropic                    false
      * Halogen bond correction:
        rad-scale                      1.300000
        damping                        0.440000

      * Solvation model:               ALPB
        Solvent                        DMSO
        Parameter file                 internal GFN1-xTB/ALPB
        Dielectric constant                4.6680E+01
        Reference state                gsolv [1 M gas/solution]
        Free energy shift                  7.6243E-03 Eh       4.7843E+00 kcal/mol
        Temperature                        2.9815E+02 K
        Density                            1.1000E+00 kg/L
        Solvent mass                       7.8130E+01 g/mol
        Interaction kernel             P16
        Born radius scaling (c1)           1.7672E+00
        Born radii integrator          GBOBC
        Born offset                        0.0000E+00 a0       0.0000E+00 AA
        H-bond correction              true
        Ion screening                  false
        Surface tension                    1.0000E-05 Eh       1.5569E+01 dyn/cm
        Grid points                               230 per atom

          ...................................................
          :                      SETUP                      :
          :.................................................:
          :  # basis functions                 144          :
          :  # atomic orbitals                 144          :
          :  # shells                           92          :
          :  # electrons                       140          :
          :  # halogen bonds                     0          :
          :  max. iterations                   250          :
          :  Hamiltonian                  GFN1-xTB          :
          :  restarted?                      false          :
          :  GBSA solvation                   true          :
          :  PC potential                    false          :
          :  electronic temp.          300.0000000     K    :
          :  accuracy                    1.0000000          :
          :  -> integral cutoff          0.2500000E+02      :
          :  -> integral neglect         0.1000000E-07      :
          :  -> SCF convergence          0.1000000E-05 Eh   :
          :  -> wf. convergence          0.2000000E-04 e    :
          :  Broyden damping             0.4000000          :
          ...................................................

 iter      E             dE          RMSdq      gap      omega  full diag
   1    -86.6796655 -0.866797E+02  0.825E+00    1.28       0.0  T
   2    -87.0419846 -0.362319E+00  0.495E+00    0.14       1.0  T
   3    -86.9984638  0.435208E-01  0.183E+00    0.88       1.0  T
   4    -87.0401212 -0.416574E-01  0.666E-01    0.63       1.0  T
   5    -87.0687183 -0.285970E-01  0.125E-01    0.37       1.0  T
   6    -87.0692480 -0.529724E-03  0.739E-02    0.43       1.0  T
   7    -87.0695988 -0.350823E-03  0.216E-02    0.37       1.0  T
   8    -87.0696222 -0.234197E-04  0.718E-03    0.38       2.1  T
   9    -87.0696235 -0.127918E-05  0.372E-03    0.37       4.0  T
  10    -87.0696241 -0.565974E-06  0.106E-03    0.37      13.9  T
  11    -87.0696241 -0.314495E-08  0.476E-04    0.37      31.0  T
  12    -87.0696241 -0.849487E-08  0.111E-04    0.37     132.6  T
  13    -87.0696241 -0.456509E-09  0.315E-05    0.37     468.7  T

   *** convergence criteria satisfied after 13 iterations ***

         #    Occupation            Energy/Eh            Energy/eV
      -------------------------------------------------------------
         1        2.0000           -0.8833535             -24.0373
       ...           ...                  ...                  ...
        64        2.0000           -0.5025272             -13.6745
        65        2.0000           -0.4980947             -13.5538
        66        2.0000           -0.4924555             -13.4004
        67        2.0000           -0.4836687             -13.1613
        68        2.0000           -0.4797453             -13.0545
        69        2.0000           -0.4640450             -12.6273
        70        1.9985           -0.4607980             -12.5390 (HOMO)
        71        0.0015           -0.4471477             -12.1675 (LUMO)
        72                         -0.3728121             -10.1447
        73                         -0.3380910              -9.1999
        74                         -0.2849219              -7.7531
        75                         -0.2736169              -7.4455
       ...                                ...                  ...
       144                          0.6747383              18.3606
      -------------------------------------------------------------
                  HL-Gap            0.0136503 Eh            0.3714 eV
             Fermi-level           -0.4539575 Eh          -12.3528 eV

 SCC (total)                   0 d,  0 h,  0 min,  0.181 sec
 SCC setup                      ...        0 min,  0.002 sec (  1.123%)
 Dispersion                     ...        0 min,  0.000 sec (  0.176%)
 classical contributions        ...        0 min,  0.000 sec (  0.061%)
 integral evaluation            ...        0 min,  0.029 sec ( 16.136%)
 iterations                     ...        0 min,  0.078 sec ( 42.994%)
 molecular gradient             ...        0 min,  0.070 sec ( 38.710%)
 printout                       ...        0 min,  0.001 sec (  0.789%)

         :::::::::::::::::::::::::::::::::::::::::::::::::::::
         ::                     SUMMARY                     ::
         :::::::::::::::::::::::::::::::::::::::::::::::::::::
         :: total energy             -86.273253722233 Eh    ::
         :: total w/o Gsasa/hb       -86.248016792304 Eh    ::
         :: gradient norm              0.144192416817 Eh/a0 ::
         :: HOMO-LUMO gap              0.371442598056 eV    ::
         ::.................................................::
         :: SCC energy               -87.069624075613 Eh    ::
         :: -> electrostatic           0.405901790186 Eh    ::
         :: -> Gsolv                  -0.104999264548 Eh    ::
         ::    -> Gelec               -0.079762334619 Eh    ::
         ::    -> Gsasa               -0.024098694013 Eh    ::
         ::    -> Ghb                 -0.008762514920 Eh    ::
         ::    -> Gshift               0.007624279005 Eh    ::
         :: repulsion energy           0.827622457164 Eh    ::
         :: dispersion energy         -0.031252103785 Eh    ::
         :: halogen bond corr.         0.000000000000 Eh    ::
         :: add. restraining           0.000000000000 Eh    ::
         :: total charge               1.000000000000 e     ::
         :::::::::::::::::::::::::::::::::::::::::::::::::::::

      ----------------------------------------------------------- 
     |                   =====================                   |
     |                        A N C O P T                        |
     |                   =====================                   |
     |               Approximate Normal Coordinate               |
     |                Rational Function Optimizer                |
      ----------------------------------------------------------- 

          ...................................................
          :                      SETUP                      :
          :.................................................:
          :   optimization level            normal          :
          :   max. optcycles                   200          :
          :   ANC micro-cycles                  20          :
          :   degrees of freedom               132          :
          :.................................................:
          :   RF solver                   davidson          :
          :   write xtbopt.log                true          :
          :   linear?                        false          :
          :   energy convergence         0.5000000E-05 Eh   :
          :   grad. convergence          0.1000000E-02 Eh/α :
          :   maximium RF displ.         1.0000000          :
          :   Hlow (freq-cutoff)         0.1000000E-01      :
          :   Hmax (freq-cutoff)         5.0000000          :
          :   S6 in model hess.         20.0000000          :
          ...................................................

generating ANC from model Hessian ...
Using Lindh-Hessian (1995)
 Shifting diagonal of input Hessian by   9.808635445965684E-003
 Lowest  eigenvalues of input Hessian
    0.000000    0.000000    0.000000    0.000000    0.000000    0.000000
    0.010000    0.010038    0.010603    0.011211    0.011872    0.012250
    0.012963    0.013387    0.013912    0.014360    0.015344    0.016279
 Highest eigenvalues
    2.047317    2.116769    2.120905    2.291782    2.359685    2.367161
 

........................................................................
.............................. CYCLE    1 ..............................
........................................................................
   1    -87.0696241 -0.870696E+02  0.108E-05    0.37       0.0  T
   2    -87.0696241  0.966338E-12  0.782E-06    0.37    1884.5  T
   3    -87.0696241 -0.295586E-11  0.531E-06    0.37    2774.2  T
     SCC iter.                  ...        0 min,  0.013 sec
     gradient                   ...        0 min,  0.068 sec
 * total energy  :   -86.2732537 Eh     change       -0.2009415E-10 Eh
   gradient norm :     0.1441930 Eh/α   predicted     0.0000000E+00 (-100.00%)
   displ. norm   :     0.3873078 α      lambda       -0.2472259E-01
   maximum displ.:     0.1516984 α      in ANC's #27, #39, #45, ...

........................................................................
.............................. CYCLE    2 ..............................
........................................................................
   1    -87.0981150 -0.870981E+02  0.128E-01    0.67       0.0  T
   2    -87.0983707 -0.255663E-03  0.115E-01    0.53       1.0  T
   3    -87.0993891 -0.101841E-02  0.285E-02    0.56       1.0  T
   4    -87.0994141 -0.250422E-04  0.157E-02    0.54       1.0  T
   5    -87.0994150 -0.845125E-06  0.405E-03    0.54       3.6  T
   6    -87.0994153 -0.348119E-06  0.101E-03    0.54      14.6  T
   7    -87.0994153 -0.307982E-07  0.270E-04    0.54      54.6  T
   8    -87.0994153 -0.185841E-08  0.115E-04    0.54     127.8  T
   9    -87.0994153 -0.123492E-09  0.414E-05    0.54     356.2  T
     SCC iter.                  ...        0 min,  0.054 sec
     gradient                   ...        0 min,  0.069 sec
 * total energy  :   -86.2919058 Eh     change       -0.1865208E-01 Eh
   gradient norm :     0.0765350 Eh/α   predicted    -0.1424795E-01 ( -23.61%)
   displ. norm   :     0.4141351 α      lambda       -0.1319658E-01
   maximum displ.:     0.1849130 α      in ANC's #27, #31, #32, ...

........................................................................
.............................. CYCLE    3 ..............................
........................................................................
   1    -87.1199506 -0.871200E+02  0.117E-01    0.85       0.0  T
   2    -87.1204158 -0.465188E-03  0.790E-02    0.77       1.0  T
   3    -87.1208710 -0.455219E-03  0.283E-02    0.79       1.0  T
   4    -87.1208944 -0.233539E-04  0.144E-02    0.77       1.0  T
   5    -87.1208950 -0.612501E-06  0.314E-03    0.77       4.7  T
   6    -87.1208952 -0.207698E-06  0.771E-04    0.77      19.1  T
   7    -87.1208952 -0.161980E-07  0.219E-04    0.77      67.2  T
   8    -87.1208952 -0.719240E-09  0.837E-05    0.77     176.2  T
   9    -87.1208952 -0.813287E-10  0.306E-05    0.77     481.9  T
     SCC iter.                  ...        0 min,  0.049 sec
     gradient                   ...        0 min,  0.042 sec
 * total energy  :   -86.2997650 Eh     change       -0.7859165E-02 Eh
   gradient norm :     0.0226007 Eh/α   predicted    -0.7729948E-02 (  -1.64%)
   displ. norm   :     0.3161088 α      lambda       -0.2440017E-02
   maximum displ.:     0.1373146 α      in ANC's #4, #27, #17, ...

........................................................................
.............................. CYCLE    4 ..............................
........................................................................
   1    -87.1227747 -0.871228E+02  0.215E-02    0.81       0.0  T
   2    -87.1227911 -0.163590E-04  0.162E-02    0.82       1.0  T
   3    -87.1228011 -0.100279E-04  0.634E-03    0.81       2.3  T
   4    -87.1228010  0.178278E-06  0.474E-03    0.81       3.1  T
   5    -87.1228017 -0.705541E-06  0.715E-04    0.81      20.6  T
   6    -87.1228017 -0.599989E-08  0.197E-04    0.81      74.9  T
   7    -87.1228017 -0.120372E-08  0.530E-05    0.81     278.4  T
     SCC iter.                  ...        0 min,  0.028 sec
     gradient                   ...        0 min,  0.042 sec
 * total energy  :   -86.3015375 Eh     change       -0.1772507E-02 Eh
   gradient norm :     0.0136170 Eh/α   predicted    -0.1341955E-02 ( -24.29%)
   displ. norm   :     0.3595841 α      lambda       -0.1523452E-02
   maximum displ.:     0.1712569 α      in ANC's #4, #17, #27, ...

........................................................................
.............................. CYCLE    5 ..............................
........................................................................
   1    -87.1239147 -0.871239E+02  0.225E-02    0.83       0.0  T
   2    -87.1239332 -0.185222E-04  0.207E-02    0.85       1.0  T
   3    -87.1239620 -0.288221E-04  0.509E-03    0.84       2.9  T
   4    -87.1239619  0.844259E-07  0.343E-03    0.84       4.3  T
   5    -87.1239621 -0.218892E-06  0.911E-04    0.84      16.2  T
   6    -87.1239622 -0.119331E-07  0.166E-04    0.84      88.6  T
   7    -87.1239622 -0.650132E-09  0.615E-05    0.84     239.7  T
     SCC iter.                  ...        0 min,  0.026 sec
     gradient                   ...        0 min,  0.043 sec
 * total energy  :   -86.3025884 Eh     change       -0.1050900E-02 Eh
   gradient norm :     0.0092341 Eh/α   predicted    -0.8602383E-03 ( -18.14%)
   displ. norm   :     0.3235049 α      lambda       -0.7457731E-03
   maximum displ.:     0.1737497 α      in ANC's #4, #17, #10, ...

........................................................................
.............................. CYCLE    6 ..............................
........................................................................
   1    -87.1253164 -0.871253E+02  0.155E-02    0.85       0.0  T
   2    -87.1253247 -0.830804E-05  0.114E-02    0.86       1.3  T
   3    -87.1253338 -0.911633E-05  0.372E-03    0.86       4.0  T
   4    -87.1253341 -0.332611E-06  0.183E-03    0.86       8.1  T
   5    -87.1253342 -0.319854E-07  0.638E-04    0.86      23.1  T
   6    -87.1253342 -0.433859E-08  0.111E-04    0.86     132.4  T
   7    -87.1253342 -0.238728E-09  0.433E-05    0.86     340.8  T
     SCC iter.                  ...        0 min,  0.026 sec
     gradient                   ...        0 min,  0.041 sec
 * total energy  :   -86.3031399 Eh     change       -0.5514920E-03 Eh
   gradient norm :     0.0092894 Eh/α   predicted    -0.4119127E-03 ( -25.31%)
   displ. norm   :     0.3663264 α      lambda       -0.6385325E-03
   maximum displ.:     0.2067234 α      in ANC's #4, #10, #17, ...

........................................................................
.............................. CYCLE    7 ..............................
........................................................................
   1    -87.1267234 -0.871267E+02  0.163E-02    0.86       0.0  T
   2    -87.1267310 -0.758252E-05  0.101E-02    0.88       1.5  T
   3    -87.1267378 -0.678680E-05  0.467E-03    0.87       3.2  T
   4    -87.1267385 -0.761428E-06  0.184E-03    0.88       8.0  T
   5    -87.1267386 -0.272106E-07  0.725E-04    0.88      20.3  T
   6    -87.1267386 -0.730491E-08  0.104E-04    0.88     142.0  T
   7    -87.1267386 -0.183064E-09  0.457E-05    0.88     322.8  T
     SCC iter.                  ...        0 min,  0.026 sec
     gradient                   ...        0 min,  0.041 sec
 * total energy  :   -86.3036355 Eh     change       -0.4956362E-03 Eh
   gradient norm :     0.0085472 Eh/α   predicted    -0.3621109E-03 ( -26.94%)
   displ. norm   :     0.4358127 α      lambda       -0.6661942E-03
   maximum displ.:     0.2502256 α      in ANC's #4, #10, #18, ...

........................................................................
.............................. CYCLE    8 ..............................
........................................................................
   1    -87.1276088 -0.871276E+02  0.201E-02    0.88       0.0  T
   2    -87.1276185 -0.971771E-05  0.130E-02    0.90       1.1  T
   3    -87.1276312 -0.126302E-04  0.541E-03    0.89       2.7  T
   4    -87.1276322 -0.100373E-05  0.212E-03    0.90       7.0  T
   5    -87.1276322 -0.358395E-07  0.835E-04    0.90      17.7  T
   6    -87.1276322 -0.905071E-08  0.121E-04    0.90     121.9  T
   7    -87.1276322 -0.252470E-09  0.543E-05    0.90     271.6  T
     SCC iter.                  ...        0 min,  0.026 sec
     gradient                   ...        0 min,  0.041 sec
 * total energy  :   -86.3041616 Eh     change       -0.5260985E-03 Eh
   gradient norm :     0.0084720 Eh/α   predicted    -0.3963669E-03 ( -24.66%)
   displ. norm   :     0.4799092 α      lambda       -0.6756396E-03
   maximum displ.:     0.2816208 α      in ANC's #4, #10, #18, ...

........................................................................
.............................. CYCLE    9 ..............................
........................................................................
   1    -87.1280994 -0.871281E+02  0.247E-02    0.89       0.0  T
   2    -87.1281118 -0.123762E-04  0.188E-02    0.92       1.0  T
   3    -87.1281413 -0.295787E-04  0.497E-03    0.91       3.0  T
   4    -87.1281421 -0.729927E-06  0.222E-03    0.92       6.6  T
   5    -87.1281421 -0.414429E-07  0.828E-04    0.92      17.8  T
   6    -87.1281421 -0.616552E-08  0.143E-04    0.92     103.2  T
   7    -87.1281421 -0.373234E-09  0.574E-05    0.92     257.0  T
     SCC iter.                  ...        0 min,  0.025 sec
     gradient                   ...        0 min,  0.041 sec
 * total energy  :   -86.3047023 Eh     change       -0.5406583E-03 Eh
   gradient norm :     0.0096245 Eh/α   predicted    -0.4156259E-03 ( -23.13%)
   displ. norm   :     0.5063860 α      lambda       -0.6850680E-03
   maximum displ.:     0.3009869 α      in ANC's #4, #10, #18, ...

........................................................................
.............................. CYCLE   10 ..............................
........................................................................
   1    -87.1283518 -0.871284E+02  0.311E-02    0.91       0.0  T
   2    -87.1283691 -0.173172E-04  0.273E-02    0.95       1.0  T
   3    -87.1284332 -0.641567E-04  0.430E-03    0.94       3.4  T
   4    -87.1284336 -0.379758E-06  0.234E-03    0.94       6.3  T
   5    -87.1284337 -0.522380E-07  0.825E-04    0.94      17.9  T
   6    -87.1284337 -0.304881E-08  0.188E-04    0.94      78.4  T
   7    -87.1284337 -0.610626E-09  0.603E-05    0.94     244.6  T
     SCC iter.                  ...        0 min,  0.025 sec
     gradient                   ...        0 min,  0.041 sec
 * total energy  :   -86.3052276 Eh     change       -0.5252876E-03 Eh
   gradient norm :     0.0101084 Eh/α   predicted    -0.4303767E-03 ( -18.07%)
   displ. norm   :     0.4201317 α      lambda       -0.5026965E-03
   maximum displ.:     0.2574445 α      in ANC's #4, #10, #18, ...

........................................................................
.............................. CYCLE   11 ..............................
........................................................................
   1    -87.1291910 -0.871292E+02  0.281E-02    0.95       0.0  T
   2    -87.1292070 -0.159664E-04  0.244E-02    0.98       1.0  T
   3    -87.1292591 -0.521392E-04  0.375E-03    0.97       3.9  T
   4    -87.1292594 -0.332079E-06  0.205E-03    0.97       7.2  T
   5    -87.1292595 -0.375840E-07  0.713E-04    0.97      20.7  T
   6    -87.1292595 -0.267927E-08  0.166E-04    0.97      89.1  T
   7    -87.1292595 -0.497877E-09  0.506E-05    0.97     291.2  T
     SCC iter.                  ...        0 min,  0.026 sec
     gradient                   ...        0 min,  0.042 sec
 * total energy  :   -86.3055994 Eh     change       -0.3718468E-03 Eh
   gradient norm :     0.0075956 Eh/α   predicted    -0.2957172E-03 ( -20.47%)
   displ. norm   :     0.3709414 α      lambda       -0.3389348E-03
   maximum displ.:     0.2369000 α      in ANC's #4, #10, #18, ...

........................................................................
.............................. CYCLE   12 ..............................
........................................................................
   1    -87.1289388 -0.871289E+02  0.254E-02    0.98       0.0  T
   2    -87.1289537 -0.148342E-04  0.216E-02    1.01       1.0  T
   3    -87.1289949 -0.411890E-04  0.371E-03    1.00       4.0  T
   4    -87.1289952 -0.352384E-06  0.181E-03    1.00       8.2  T
   5    -87.1289952 -0.264803E-07  0.658E-04    1.00      22.4  T
   6    -87.1289952 -0.348076E-08  0.126E-04    1.00     116.8  T
   7    -87.1289952 -0.288281E-09  0.440E-05    1.00     335.0  T
     SCC iter.                  ...        0 min,  0.026 sec
     gradient                   ...        0 min,  0.042 sec
 * total energy  :   -86.3058483 Eh     change       -0.2488720E-03 Eh
   gradient norm :     0.0058207 Eh/α   predicted    -0.1927870E-03 ( -22.54%)
   displ. norm   :     0.3260391 α      lambda       -0.3073106E-03
   maximum displ.:     0.1939991 α      in ANC's #4, #5, #7, ...

........................................................................
.............................. CYCLE   13 ..............................
........................................................................
   1    -87.1342611 -0.871343E+02  0.191E-02    1.01       0.0  T
   2    -87.1342711 -0.999378E-05  0.139E-02    1.03       1.1  T
   3    -87.1342854 -0.143508E-04  0.531E-03    1.02       2.8  T
   4    -87.1342860 -0.606319E-06  0.234E-03    1.02       6.3  T
   5    -87.1342861 -0.319034E-07  0.570E-04    1.02      25.9  T
   6    -87.1342861 -0.755540E-08  0.115E-04    1.02     127.9  T
   7    -87.1342861 -0.250978E-09  0.419E-05    1.02     352.0  T
     SCC iter.                  ...        0 min,  0.026 sec
     gradient                   ...        0 min,  0.042 sec
 * total energy  :   -86.3059846 Eh     change       -0.1363653E-03 Eh
   gradient norm :     0.0089950 Eh/α   predicted    -0.1699918E-03 (  24.66%)
   displ. norm   :     0.4099540 α      lambda       -0.3204123E-03
   maximum displ.:     0.2551295 α      in ANC's #4, #18, #10, ...

........................................................................
.............................. CYCLE   14 ..............................
........................................................................
   1    -87.1279389 -0.871279E+02  0.313E-02    1.03       0.0  T
   2    -87.1279553 -0.164600E-04  0.269E-02    1.06       1.0  T
   3    -87.1280177 -0.623384E-04  0.555E-03    1.05       2.7  T
   4    -87.1280181 -0.446268E-06  0.257E-03    1.05       5.7  T
   5    -87.1280182 -0.430965E-07  0.819E-04    1.05      18.0  T
   6    -87.1280182 -0.649122E-08  0.147E-04    1.05     100.6  T
   7    -87.1280182 -0.414445E-09  0.501E-05    1.05     294.1  T
     SCC iter.                  ...        0 min,  0.026 sec
     gradient                   ...        0 min,  0.042 sec
 * total energy  :   -86.3061091 Eh     change       -0.1245146E-03 Eh
   gradient norm :     0.0079579 Eh/α   predicted    -0.1871312E-03 (  50.29%)
   displ. norm   :     0.0959094 α      lambda       -0.1474926E-03
   maximum displ.:     0.0482051 α      in ANC's #4, #10, #7, ...

........................................................................
.............................. CYCLE   15 ..............................
........................................................................
   1    -87.1323105 -0.871323E+02  0.133E-02    1.06       0.0  T
   2    -87.1323136 -0.317459E-05  0.127E-02    1.05       1.2  T
   3    -87.1323267 -0.130975E-04  0.242E-03    1.05       6.1  T
   4    -87.1323267 -0.845075E-08  0.138E-03    1.05      10.7  T
   5    -87.1323268 -0.172355E-07  0.288E-04    1.05      51.3  T
   6    -87.1323268 -0.139231E-08  0.594E-05    1.05     248.3  T
   7    -87.1323268 -0.739959E-10  0.187E-05    1.05     787.4  T
     SCC iter.                  ...        0 min,  0.026 sec
     gradient                   ...        0 min,  0.042 sec
 * total energy  :   -86.3062093 Eh     change       -0.1001470E-03 Eh
   gradient norm :     0.0045656 Eh/α   predicted    -0.7443273E-04 ( -25.68%)
   displ. norm   :     0.2124053 α      lambda       -0.2043726E-03
   maximum displ.:     0.1072949 α      in ANC's #7, #4, #5, ...

........................................................................
.............................. CYCLE   16 ..............................
........................................................................
   1    -87.1336299 -0.871336E+02  0.104E-02    1.04       0.0  T
   2    -87.1336314 -0.153872E-05  0.758E-03    1.05       1.9  T
   3    -87.1336346 -0.320606E-05  0.346E-03    1.05       4.3  T
   4    -87.1336348 -0.205472E-06  0.114E-03    1.05      13.0  T
   5    -87.1336348 -0.214377E-07  0.273E-04    1.05      54.1  T
   6    -87.1336348 -0.138246E-08  0.584E-05    1.05     252.6  T
   7    -87.1336348 -0.488143E-10  0.192E-05    1.05     768.1  T
     SCC iter.                  ...        0 min,  0.026 sec
     gradient                   ...        0 min,  0.042 sec
 * total energy  :   -86.3063083 Eh     change       -0.9899069E-04 Eh
   gradient norm :     0.0062704 Eh/α   predicted    -0.1068014E-03 (   7.89%)
   displ. norm   :     0.2188603 α      lambda       -0.1223990E-03
   maximum displ.:     0.1036025 α      in ANC's #7, #4, #5, ...

........................................................................
.............................. CYCLE   17 ..............................
........................................................................
   1    -87.1340411 -0.871340E+02  0.791E-03    1.06       0.0  T
   2    -87.1340434 -0.234025E-05  0.426E-03    1.06       3.5  T
   3    -87.1340443 -0.934025E-06  0.251E-03    1.06       5.9  T
   4    -87.1340446 -0.240716E-06  0.105E-03    1.06      14.0  T
   5    -87.1340446 -0.737799E-08  0.296E-04    1.06      49.8  T
   6    -87.1340446 -0.216424E-08  0.623E-05    1.06     236.5  T
   7    -87.1340446 -0.925411E-10  0.226E-05    1.06     653.5  T
     SCC iter.                  ...        0 min,  0.026 sec
     gradient                   ...        0 min,  0.042 sec
 * total energy  :   -86.3063861 Eh     change       -0.7776800E-04 Eh
   gradient norm :     0.0056553 Eh/α   predicted    -0.6413177E-04 ( -17.53%)
   displ. norm   :     0.2338454 α      lambda       -0.9387083E-04
   maximum displ.:     0.1095559 α      in ANC's #4, #7, #5, ...

........................................................................
.............................. CYCLE   18 ..............................
........................................................................
   1    -87.1324354 -0.871324E+02  0.114E-02    1.06       0.0  T
   2    -87.1324386 -0.311470E-05  0.801E-03    1.07       1.8  T
   3    -87.1324441 -0.553245E-05  0.238E-03    1.07       6.2  T
   4    -87.1324443 -0.221260E-06  0.105E-03    1.07      14.1  T
   5    -87.1324443 -0.606957E-08  0.264E-04    1.07      55.8  T
   6    -87.1324443 -0.663320E-09  0.569E-05    1.07     259.3  T
   7    -87.1324443 -0.778471E-10  0.213E-05    1.07     693.4  T
     SCC iter.                  ...        0 min,  0.026 sec
     gradient                   ...        0 min,  0.042 sec
 * total energy  :   -86.3064502 Eh     change       -0.6411065E-04 Eh
   gradient norm :     0.0039963 Eh/α   predicted    -0.4950541E-04 ( -22.78%)
   displ. norm   :     0.2413707 α      lambda       -0.9953474E-04
   maximum displ.:     0.0963184 α      in ANC's #7, #4, #5, ...

........................................................................
.............................. CYCLE   19 ..............................
........................................................................
   1    -87.1315740 -0.871316E+02  0.143E-02    1.07       0.0  T
   2    -87.1315775 -0.346354E-05  0.155E-02    1.08       1.0  T
   3    -87.1315969 -0.194808E-04  0.255E-03    1.08       5.8  T
   4    -87.1315970 -0.655463E-07  0.139E-03    1.08      10.6  T
   5    -87.1315970 -0.276226E-07  0.381E-04    1.08      38.7  T
   6    -87.1315970 -0.312858E-08  0.867E-05    1.08     170.2  T
   7    -87.1315970 -0.986944E-10  0.232E-05    1.08     635.7  T
     SCC iter.                  ...        0 min,  0.026 sec
     gradient                   ...        0 min,  0.042 sec
 * total energy  :   -86.3065106 Eh     change       -0.6048146E-04 Eh
   gradient norm :     0.0038224 Eh/α   predicted    -0.5266856E-04 ( -12.92%)
   displ. norm   :     0.1673747 α      lambda       -0.8839236E-04
   maximum displ.:     0.0701235 α      in ANC's #7, #15, #1, ...

........................................................................
.............................. CYCLE   20 ..............................
........................................................................
   1    -87.1318867 -0.871319E+02  0.551E-03    1.08       0.0  T
   2    -87.1318877 -0.104147E-05  0.302E-03    1.08       4.9  T
   3    -87.1318881 -0.350595E-06  0.149E-03    1.08       9.9  T
   4    -87.1318882 -0.647552E-07  0.813E-04    1.08      18.1  T
   5    -87.1318882 -0.173031E-07  0.173E-04    1.08      85.1  T
   6    -87.1318882 -0.898552E-09  0.445E-05    1.08     331.0  T
     SCC iter.                  ...        0 min,  0.023 sec
     gradient                   ...        0 min,  0.042 sec
 * total energy  :   -86.3065707 Eh     change       -0.6008432E-04 Eh
   gradient norm :     0.0043261 Eh/α   predicted    -0.4543478E-04 ( -24.38%)
   displ. norm   :     0.1917656 α      lambda       -0.9605993E-04
   maximum displ.:     0.0851162 α      in ANC's #15, #1, #17, ...
 * RMSD in coord.:     0.7038048 α      energy gain  -0.3331701E-01 Eh

generating ANC from model Hessian ...
Using Lindh-Hessian (1995)
 Shifting diagonal of input Hessian by   9.796417411393877E-003
 Lowest  eigenvalues of input Hessian
    0.000000    0.000000    0.000000    0.000000    0.000000    0.000000
    0.010000    0.010006    0.010442    0.011613    0.011891    0.012444
    0.012503    0.013112    0.013811    0.014180    0.015557    0.016068
 Highest eigenvalues
    2.078642    2.127330    2.180270    2.383679    2.438016    2.444261
 

........................................................................
.............................. CYCLE   21 ..............................
........................................................................
   1    -87.1324004 -0.871324E+02  0.542E-03    1.09       0.0  T
   2    -87.1324011 -0.692955E-06  0.240E-03    1.09       6.1  T
   3    -87.1324012 -0.826909E-07  0.127E-03    1.09      11.6  T
   4    -87.1324012 -0.717061E-08  0.265E-04    1.09      55.7  T
   5    -87.1324012 -0.167759E-09  0.917E-05    1.09     160.8  T
   6    -87.1324012 -0.341913E-10  0.502E-05    1.09     293.7  T
     SCC iter.                  ...        0 min,  0.023 sec
     gradient                   ...        0 min,  0.042 sec
 * total energy  :   -86.3066412 Eh     change       -0.7050968E-04 Eh
   gradient norm :     0.0049143 Eh/α   predicted     0.0000000E+00 (-100.00%)
   displ. norm   :     0.0409280 α      lambda       -0.5220764E-04
   maximum displ.:     0.0183757 α      in ANC's #15, #7, #5, ...

........................................................................
.............................. CYCLE   22 ..............................
........................................................................
   1    -87.1330308 -0.871330E+02  0.293E-03    1.09       0.0  T
   2    -87.1330310 -0.235764E-06  0.141E-03    1.09      10.5  T
   3    -87.1330310 -0.139300E-07  0.811E-04    1.09      18.2  T
   4    -87.1330310  0.161023E-09  0.225E-04    1.09      65.4  T
   5    -87.1330310 -0.987541E-09  0.117E-04    1.09     126.5  T
   6    -87.1330310 -0.119283E-08  0.185E-05    1.09     796.6  T
     SCC iter.                  ...        0 min,  0.023 sec
     gradient                   ...        0 min,  0.042 sec
 * total energy  :   -86.3066870 Eh     change       -0.4573655E-04 Eh
   gradient norm :     0.0023000 Eh/α   predicted    -0.2893143E-04 ( -36.74%)
   displ. norm   :     0.1032770 α      lambda       -0.7846997E-04
   maximum displ.:     0.0507693 α      in ANC's #15, #7, #5, ...

........................................................................
.............................. CYCLE   23 ..............................
........................................................................
   1    -87.1334736 -0.871335E+02  0.449E-03    1.09       0.0  T
   2    -87.1334742 -0.632358E-06  0.202E-03    1.09       7.3  T
   3    -87.1334743 -0.404171E-07  0.128E-03    1.09      11.5  T
   4    -87.1334743  0.515335E-08  0.561E-04    1.09      26.3  T
   5    -87.1334743 -0.158417E-07  0.233E-04    1.09      63.4  T
   6    -87.1334743 -0.359510E-08  0.284E-05    1.09     519.8  T
   7    -87.1334743 -0.246416E-10  0.108E-05    1.09    1368.5  T
     SCC iter.                  ...        0 min,  0.026 sec
     gradient                   ...        0 min,  0.042 sec
 * total energy  :   -86.3067388 Eh     change       -0.5179210E-04 Eh
   gradient norm :     0.0022702 Eh/α   predicted    -0.3965374E-04 ( -23.44%)
   displ. norm   :     0.0955538 α      lambda       -0.3823266E-04
   maximum displ.:     0.0525988 α      in ANC's #15, #7, #2, ...

........................................................................
.............................. CYCLE   24 ..............................
........................................................................
   1    -87.1333530 -0.871334E+02  0.234E-03    1.09       0.0  T
   2    -87.1333532 -0.157018E-06  0.110E-03    1.09      13.4  T
   3    -87.1333532 -0.191439E-07  0.708E-04    1.09      20.8  T
   4    -87.1333532 -0.751821E-08  0.321E-04    1.09      45.9  T
   5    -87.1333532 -0.435314E-08  0.113E-04    1.09     131.0  T
   6    -87.1333532 -0.501558E-09  0.204E-05    1.09     724.2  T
     SCC iter.                  ...        0 min,  0.023 sec
     gradient                   ...        0 min,  0.041 sec
 * total energy  :   -86.3067691 Eh     change       -0.3033017E-04 Eh
   gradient norm :     0.0031119 Eh/α   predicted    -0.1941025E-04 ( -36.00%)
   displ. norm   :     0.1740650 α      lambda       -0.6101133E-04
   maximum displ.:     0.1021100 α      in ANC's #15, #2, #7, ...

........................................................................
.............................. CYCLE   25 ..............................
........................................................................
   1    -87.1327060 -0.871327E+02  0.317E-03    1.09       0.0  T
   2    -87.1327062 -0.228127E-06  0.162E-03    1.09       9.1  T
   3    -87.1327062 -0.312275E-07  0.100E-03    1.09      14.7  T
   4    -87.1327063 -0.235428E-07  0.440E-04    1.09      33.5  T
   5    -87.1327063 -0.998844E-08  0.127E-04    1.09     116.5  T
   6    -87.1327063 -0.328029E-09  0.334E-05    1.09     441.2  T
     SCC iter.                  ...        0 min,  0.022 sec
     gradient                   ...        0 min,  0.041 sec
 * total energy  :   -86.3068090 Eh     change       -0.3989781E-04 Eh
   gradient norm :     0.0033250 Eh/α   predicted    -0.3143118E-04 ( -21.22%)
   displ. norm   :     0.0956536 α      lambda       -0.3191439E-04
   maximum displ.:     0.0565844 α      in ANC's #15, #2, #12, ...

........................................................................
.............................. CYCLE   26 ..............................
........................................................................
   1    -87.1325934 -0.871326E+02  0.201E-03    1.09       0.0  T
   2    -87.1325935 -0.133426E-06  0.911E-04    1.09      16.2  T
   3    -87.1325935 -0.966590E-08  0.506E-04    1.09      29.2  T
   4    -87.1325935 -0.620474E-09  0.216E-04    1.09      68.2  T
   5    -87.1325935 -0.216711E-08  0.108E-04    1.09     136.6  T
   6    -87.1325935 -0.617462E-09  0.228E-05    1.09     645.9  T
     SCC iter.                  ...        0 min,  0.023 sec
     gradient                   ...        0 min,  0.042 sec
 * total energy  :   -86.3068334 Eh     change       -0.2437341E-04 Eh
   gradient norm :     0.0025183 Eh/α   predicted    -0.1610468E-04 ( -33.93%)
   displ. norm   :     0.1071164 α      lambda       -0.4190747E-04
   maximum displ.:     0.0591279 α      in ANC's #15, #2, #23, ...

........................................................................
.............................. CYCLE   27 ..............................
........................................................................
   1    -87.1328633 -0.871329E+02  0.351E-03    1.09       0.0  T
   2    -87.1328637 -0.396767E-06  0.182E-03    1.09       8.1  T
   3    -87.1328638 -0.121534E-06  0.108E-03    1.09      13.7  T
   4    -87.1328638 -0.353595E-07  0.443E-04    1.09      33.3  T
   5    -87.1328638 -0.338116E-08  0.160E-04    1.09      92.0  T
   6    -87.1328638 -0.914312E-09  0.325E-05    1.09     454.2  T
     SCC iter.                  ...        0 min,  0.022 sec
     gradient                   ...        0 min,  0.042 sec
 * total energy  :   -86.3068618 Eh     change       -0.2838421E-04 Eh
   gradient norm :     0.0021330 Eh/α   predicted    -0.2119494E-04 ( -25.33%)
   displ. norm   :     0.0920470 α      lambda       -0.2395364E-04
   maximum displ.:     0.0503456 α      in ANC's #15, #2, #23, ...

........................................................................
.............................. CYCLE   28 ..............................
........................................................................
   1    -87.1328531 -0.871329E+02  0.261E-03    1.09       0.0  T
   2    -87.1328533 -0.162816E-06  0.175E-03    1.09       8.4  T
   3    -87.1328535 -0.191089E-06  0.715E-04    1.09      20.6  T
   4    -87.1328535 -0.157639E-07  0.278E-04    1.09      53.1  T
   5    -87.1328535 -0.930868E-09  0.938E-05    1.09     157.2  T
   6    -87.1328535 -0.187967E-09  0.230E-05    1.09     641.1  T
     SCC iter.                  ...        0 min,  0.023 sec
     gradient                   ...        0 min,  0.043 sec
 * total energy  :   -86.3068805 Eh     change       -0.1870855E-04 Eh
   gradient norm :     0.0025043 Eh/α   predicted    -0.1207859E-04 ( -35.44%)
   displ. norm   :     0.1451702 α      lambda       -0.3733058E-04
   maximum displ.:     0.0744519 α      in ANC's #15, #2, #23, ...

........................................................................
.............................. CYCLE   29 ..............................
........................................................................
   1    -87.1328017 -0.871328E+02  0.391E-03    1.09       0.0  T
   2    -87.1328020 -0.308175E-06  0.299E-03    1.09       4.9  T
   3    -87.1328027 -0.659463E-06  0.917E-04    1.09      16.1  T
   4    -87.1328027 -0.205402E-07  0.359E-04    1.09      41.0  T
   5    -87.1328027 -0.165200E-08  0.113E-04    1.09     130.2  T
   6    -87.1328027 -0.169877E-09  0.337E-05    1.09     437.3  T
     SCC iter.                  ...        0 min,  0.023 sec
     gradient                   ...        0 min,  0.041 sec
 * total energy  :   -86.3069073 Eh     change       -0.2685660E-04 Eh
   gradient norm :     0.0027492 Eh/α   predicted    -0.1906063E-04 ( -29.03%)
   displ. norm   :     0.1292484 α      lambda       -0.3080977E-04
   maximum displ.:     0.0604770 α      in ANC's #15, #2, #5, ...

........................................................................
.............................. CYCLE   30 ..............................
........................................................................
   1    -87.1328297 -0.871328E+02  0.300E-03    1.08       0.0  T
   2    -87.1328299 -0.190953E-06  0.232E-03    1.08       6.4  T
   3    -87.1328303 -0.416547E-06  0.690E-04    1.08      21.4  T
   4    -87.1328303 -0.129317E-07  0.261E-04    1.08      56.5  T
   5    -87.1328303 -0.870088E-09  0.724E-05    1.08     203.8  T
   6    -87.1328303 -0.435989E-10  0.289E-05    1.08     510.1  T
     SCC iter.                  ...        0 min,  0.023 sec
     gradient                   ...        0 min,  0.047 sec
 * total energy  :   -86.3069307 Eh     change       -0.2334475E-04 Eh
   gradient norm :     0.0023611 Eh/α   predicted    -0.1566266E-04 ( -32.91%)
   displ. norm   :     0.1828524 α      lambda       -0.3293034E-04
   maximum displ.:     0.0960451 α      in ANC's #15, #2, #5, ...

........................................................................
.............................. CYCLE   31 ..............................
........................................................................
   1    -87.1321275 -0.871321E+02  0.317E-03    1.08       0.0  T
   2    -87.1321277 -0.240419E-06  0.192E-03    1.08       7.7  T
   3    -87.1321279 -0.152455E-06  0.110E-03    1.08      13.4  T
   4    -87.1321279 -0.492098E-07  0.408E-04    1.08      36.1  T
   5    -87.1321279 -0.251195E-08  0.112E-04    1.08     131.7  T
   6    -87.1321279 -0.103938E-09  0.410E-05    1.08     359.2  T
     SCC iter.                  ...        0 min,  0.037 sec
     gradient                   ...        0 min,  0.055 sec
 * total energy  :   -86.3069502 Eh     change       -0.1956568E-04 Eh
   gradient norm :     0.0027152 Eh/α   predicted    -0.1701918E-04 ( -13.02%)
   displ. norm   :     0.1351871 α      lambda       -0.4339237E-04
   maximum displ.:     0.0634688 α      in ANC's #5, #2, #8, ...

........................................................................
.............................. CYCLE   32 ..............................
........................................................................
   1    -87.1338283 -0.871338E+02  0.522E-03    1.08       0.0  T
   2    -87.1338286 -0.324998E-06  0.264E-03    1.08       5.6  T
   3    -87.1338286 -0.564643E-08  0.122E-03    1.08      12.1  T
   4    -87.1338286 -0.500144E-08  0.371E-04    1.08      39.7  T
   5    -87.1338287 -0.740003E-08  0.173E-04    1.08      85.1  T
   6    -87.1338287 -0.200403E-08  0.317E-05    1.08     464.5  T
     SCC iter.                  ...        0 min,  0.023 sec
     gradient                   ...        0 min,  0.042 sec
 * total energy  :   -86.3069496 Eh     change        0.6466140E-06 Eh
   gradient norm :     0.0036369 Eh/α   predicted    -0.2212096E-04 (*******%)
   displ. norm   :     0.0696462 α      lambda       -0.3703949E-04
   maximum displ.:     0.0427281 α      in ANC's #15, #2, #12, ...

........................................................................
.............................. CYCLE   33 ..............................
........................................................................
   1    -87.1327483 -0.871327E+02  0.317E-03    1.08       0.0  T
   2    -87.1327484 -0.821827E-07  0.201E-03    1.08       7.3  T
   3    -87.1327485 -0.781745E-07  0.134E-03    1.08      11.0  T
   4    -87.1327485 -0.622179E-07  0.280E-04    1.08      52.7  T
   5    -87.1327485 -0.197734E-08  0.640E-05    1.08     230.5  T
   6    -87.1327485 -0.681553E-10  0.230E-05    1.08     642.2  T
     SCC iter.                  ...        0 min,  0.023 sec
     gradient                   ...        0 min,  0.042 sec
 * total energy  :   -86.3069716 Eh     change       -0.2202163E-04 Eh
   gradient norm :     0.0018447 Eh/α   predicted    -0.1861642E-04 ( -15.46%)
   displ. norm   :     0.0491036 α      lambda       -0.1024829E-04
   maximum displ.:     0.0216321 α      in ANC's #15, #2, #12, ...

........................................................................
.............................. CYCLE   34 ..............................
........................................................................
   1    -87.1326994 -0.871327E+02  0.331E-03    1.09       0.0  T
   2    -87.1326997 -0.272027E-06  0.285E-03    1.09       5.2  T
   3    -87.1327004 -0.705439E-06  0.523E-04    1.09      28.2  T
   4    -87.1327004 -0.537855E-08  0.284E-04    1.09      52.0  T
   5    -87.1327004 -0.546450E-09  0.727E-05    1.09     202.8  T
   6    -87.1327004 -0.475779E-10  0.191E-05    1.09     770.6  T
     SCC iter.                  ...        0 min,  0.023 sec
     gradient                   ...        0 min,  0.042 sec
 * total energy  :   -86.3069823 Eh     change       -0.1074222E-04 Eh
   gradient norm :     0.0014052 Eh/α   predicted    -0.5131397E-05 ( -52.23%)
   displ. norm   :     0.1364991 α      lambda       -0.1254148E-04
   maximum displ.:     0.0690598 α      in ANC's #2, #15, #19, ...

........................................................................
.............................. CYCLE   35 ..............................
........................................................................
   1    -87.1325825 -0.871326E+02  0.481E-03    1.09       0.0  T
   2    -87.1325831 -0.555171E-06  0.397E-03    1.09       3.7  T
   3    -87.1325845 -0.137897E-05  0.768E-04    1.09      19.2  T
   4    -87.1325845 -0.175871E-07  0.361E-04    1.09      40.8  T
   5    -87.1325845 -0.126359E-08  0.114E-04    1.09     129.9  T
   6    -87.1325845 -0.894147E-10  0.313E-05    1.09     471.1  T
     SCC iter.                  ...        0 min,  0.023 sec
     gradient                   ...        0 min,  0.041 sec
 * total energy  :   -86.3069950 Eh     change       -0.1262179E-04 Eh
   gradient norm :     0.0017454 Eh/α   predicted    -0.6323399E-05 ( -49.90%)
   displ. norm   :     0.0713175 α      lambda       -0.1158713E-04
   maximum displ.:     0.0355862 α      in ANC's #2, #20, #19, ...

........................................................................
.............................. CYCLE   36 ..............................
........................................................................
   1    -87.1336363 -0.871336E+02  0.560E-03    1.09       0.0  T
   2    -87.1336368 -0.565673E-06  0.435E-03    1.10       3.4  T
   3    -87.1336384 -0.156908E-05  0.139E-03    1.10      10.6  T
   4    -87.1336384 -0.377647E-07  0.595E-04    1.10      24.8  T
   5    -87.1336384 -0.260913E-08  0.122E-04    1.10     120.5  T
   6    -87.1336384 -0.257202E-09  0.259E-05    1.10     568.6  T
     SCC iter.                  ...        0 min,  0.022 sec
     gradient                   ...        0 min,  0.042 sec
 * total energy  :   -86.3069990 Eh     change       -0.4073035E-05 Eh
   gradient norm :     0.0019020 Eh/α   predicted    -0.5808016E-05 (  42.60%)
   displ. norm   :     0.1363062 α      lambda       -0.9975525E-05
   maximum displ.:     0.0654752 α      in ANC's #2, #15, #5, ...

........................................................................
.............................. CYCLE   37 ..............................
........................................................................
   1    -87.1327632 -0.871328E+02  0.257E-03    1.10       0.0  T
   2    -87.1327633 -0.831185E-07  0.142E-03    1.10      10.4  T
   3    -87.1327633 -0.866041E-08  0.100E-03    1.10      14.7  T
   4    -87.1327633 -0.367346E-07  0.296E-04    1.10      49.8  T
   5    -87.1327633 -0.344401E-08  0.103E-04    1.10     143.2  T
   6    -87.1327633 -0.205446E-09  0.272E-05    1.10     541.6  T
     SCC iter.                  ...        0 min,  0.022 sec
     gradient                   ...        0 min,  0.041 sec
 * total energy  :   -86.3070058 Eh     change       -0.6786736E-05 Eh
   gradient norm :     0.0011789 Eh/α   predicted    -0.5033079E-05 ( -25.84%)
   displ. norm   :     0.0378991 α      lambda       -0.3037205E-05
   maximum displ.:     0.0194068 α      in ANC's #15, #2, #3, ...

........................................................................
.............................. CYCLE   38 ..............................
........................................................................
   1    -87.1331177 -0.871331E+02  0.169E-03    1.10       0.0  T
   2    -87.1331178 -0.711043E-07  0.132E-03    1.10      11.2  T
   3    -87.1331179 -0.139829E-06  0.414E-04    1.10      35.6  T
   4    -87.1331179 -0.336013E-08  0.205E-04    1.10      72.0  T
   5    -87.1331179 -0.194703E-09  0.422E-05    1.10     349.4  T
   6    -87.1331179 -0.326992E-10  0.117E-05    1.10    1256.9  T
     SCC iter.                  ...        0 min,  0.023 sec
     gradient                   ...        0 min,  0.074 sec
 * total energy  :   -86.3070083 Eh     change       -0.2504822E-05 Eh
   gradient norm :     0.0003643 Eh/α   predicted    -0.1520618E-05 ( -39.29%)
   displ. norm   :     0.0255389 α      lambda       -0.1301273E-05
   maximum displ.:     0.0140817 α      in ANC's #2, #23, #1, ...

   *** GEOMETRY OPTIMIZATION CONVERGED AFTER 38 ITERATIONS ***

------------------------------------------------------------------------
 total energy gain   :        -0.0337546 Eh      -21.1813 kcal/mol
 total RMSD          :         0.8047143 a0        0.4258 Å
 total power (kW/mol):        -2.3321770 (step)  -24.6012 (real)
------------------------------------------------------------------------

 ANCopt (total)                0 d,  0 h,  0 min,  3.602 sec
 optimizer setup                ...        0 min,  0.001 sec (  0.016%)
 model hessian                  ...        0 min,  0.072 sec (  1.997%)
 ANC generation                 ...        0 min,  0.005 sec (  0.150%)
 coordinate transformation      ...        0 min,  0.001 sec (  0.019%)
 single point calculation       ...        0 min,  3.512 sec ( 97.502%)
 optimization log               ...        0 min,  0.007 sec (  0.181%)
 hessian update                 ...        0 min,  0.001 sec (  0.018%)
 rational function              ...        0 min,  0.003 sec (  0.080%)

================
 final structure:
================
46
 xtb: 6.5.1 (579679a)
C            6.30403875879675        1.22203005791421        1.72351776997074
O            5.25487526629525        0.64569297388496        0.92588029974050
C            4.02221873311125        1.00305372765955        1.21109464442082
O            3.69619316091975        1.76755557940985        2.07992138049884
C            2.99927642690141        0.33725392357381        0.30632413550956
C            3.21865886027424       -0.83025177169485       -0.45018844211163
O            4.33062474206870       -1.48173035572900       -0.46925145066036
C            2.14675710492751       -1.35793283596931       -1.32401426505252
O            2.37121101703626       -2.32709673508656       -2.02754602684109
N            0.97732573001692       -0.66634388203515       -1.29444760271832
C           -0.04447259485074       -1.08734023567177       -2.24940029788810
C            0.73249002663333        0.43084789100686       -0.40101056232821
C            0.02775585745615        1.58350681077291       -1.12048333680098
C           -0.21774644474724       -0.11363106165643        0.88335196883134
C           -0.15536586491487        0.92033748878050        2.00137262479289
C            0.35276292815314       -1.44936738249334        1.33989366173883
N           -1.53244288809531       -0.33337005087153        0.39820556984799
C           -2.55325672743030        0.59268151759302        0.33030800822108
O           -2.45294298622788        1.76122285254376        0.62509638310293
C           -3.77833276875318       -0.05192561333185       -0.16900764859027
N           -3.89227399986111       -1.30040580247191       -0.52361405735897
N           -5.17067516991247       -1.47558760532446       -0.93260971566707
C           -5.76545400999519       -0.32174571713413       -0.80631562480305
C           -7.17088176225261        0.00846955260712       -1.12114660317031
O           -4.93468335531794        0.61262659370758       -0.32859154656207
N            1.83084103279590        0.92085736770376        0.27466053079784
H            6.30148628429544        2.30726338040441        1.60516186572197
H            7.23477204082883        0.79688671142515        1.35536917007331
H            6.15018470277993        0.96598402636475        2.77332094951032
H            4.26346144536600       -2.26544541597821       -1.06244760787660
H            0.13452367695572       -2.13402622727933       -2.49075004799994
H            0.03805586346157       -0.48054994153927       -3.15205019336248
H           -1.03139261251376       -0.96271681259691       -1.81468999523964
H           -0.11733221929599        2.41352546178873       -0.43302546673564
H            0.66734682271247        1.90552507008309       -1.94052853303685
H           -0.93308908119299        1.27063263159144       -1.51564852425637
H           -0.93324279894456        0.69187717790303        2.72876806210266
H           -0.30460173215757        1.93397505057457        1.63953848059320
H            0.82078081810509        0.86506866260600        2.48174069270203
H            0.21448213956996       -2.21809783006664        0.58283481830646
H            1.41235209189944       -1.36259026556358        1.57221480995935
H           -0.17325077705737       -1.75258401957615        2.24492810309272
H           -1.77708774125495       -1.27734737582401        0.13040313872157
H           -7.66036898401201       -0.85552744580152       -1.56412714586107
H           -7.69586508137292        0.29873321492403       -0.21024802210175
H           -7.20771193120791        0.85000865887422       -1.81276535123213
 
 Bond Distances (Angstroems)
 ---------------------------
C1-O2=1.4384         C1-H27=1.0917        C1-H28=1.0874        C1-H29=1.0915        O2-C1=1.4384         O2-C3=1.3147         
C3-O2=1.3147         C3-O4=1.2023         C3-C5=1.5193         O4-C3=1.2023         C5-C3=1.5193         C5-C6=1.4084         
C5-N26=1.3065        C6-C5=1.4084         C6-O7=1.2889         C6-C8=1.4802         O7-C6=1.2889         O7-H30=0.9852        
C8-C6=1.4802         C8-O9=1.2184         C8-N10=1.3589        O9-C8=1.2184         N10-C8=1.3589        N10-C11=1.4606       
N10-C12=1.4360       C11-N10=1.4606       C11-H31=1.0890       C11-H32=1.0908       C11-H33=1.0856       C12-N10=1.4360       
C12-C13=1.5307       C12-C14=1.6879       C12-N26=1.3795       C13-C12=1.5307       C13-H34=1.0875       C13-H35=1.0887       
C13-H36=1.0850       C14-C12=1.6879       C14-C15=1.5241       C14-C16=1.5225       C14-N17=1.4185       C15-C14=1.5241       
C15-H37=1.0892       C15-H38=1.0866       C15-H39=1.0893       C16-C14=1.5225       C16-H40=1.0878       C16-H41=1.0882       
C16-H42=1.0898       N17-C14=1.4185       N17-C18=1.3799       N17-H43=1.0113       C18-N17=1.3799       C18-O19=1.2093       
C18-C20=1.4716       O19-C18=1.2093       C20-C18=1.4716       C20-N21=1.3029       C20-O25=1.3432       N21-C20=1.3029       
N21-N22=1.3536       N22-N21=1.3536       N22-C23=1.3042       C23-N22=1.3042       C23-C24=1.4776       C23-O25=1.3385       
C24-C23=1.4776       C24-H44=1.0873       C24-H45=1.0907       C24-H46=1.0899       O25-C20=1.3432       O25-C23=1.3385       
N26-C5=1.3065        N26-C12=1.3795       H27-C1=1.0917        H28-C1=1.0874        H29-C1=1.0915        H30-O7=0.9852        
H31-C11=1.0890       H32-C11=1.0908       H33-C11=1.0856       H34-C13=1.0875       H35-C13=1.0887       H36-C13=1.0850       
H37-C15=1.0892       H38-C15=1.0866       H39-C15=1.0893       H40-C16=1.0878       H41-C16=1.0882       H42-C16=1.0898       
H43-N17=1.0113       H44-C24=1.0873       H45-C24=1.0907       H46-C24=1.0899       
 C  H  Rav=1.0887 sigma=0.0019  Rmin=1.0850  Rmax=1.0917    18
 C  C  Rav=1.5136 sigma=0.0716  Rmin=1.4084  Rmax=1.6879     9
 N  H  Rav=1.0113 sigma=0.0000  Rmin=1.0113  Rmax=1.0113     1
 N  C  Rav=1.3719 sigma=0.0558  Rmin=1.3029  Rmax=1.4606     9
 N  N  Rav=1.3536 sigma=0.0000  Rmin=1.3536  Rmax=1.3536     1
 O  H  Rav=0.9852 sigma=0.0000  Rmin=0.9852  Rmax=0.9852     1
 O  C  Rav=1.2942 sigma=0.0766  Rmin=1.2023  Rmax=1.4384     8
 
 selected bond angles (degree)
 --------------------
H27-C1-O2=109.66               H28-C1-O2=106.25               H28-C1-H27=110.73              H29-C1-O2=109.67               
H29-C1-H27=109.70              H29-C1-H28=110.77              C3-O2-C1=117.04                O4-C3-O2=125.72                
C5-C3-O2=112.52                C5-C3-O4=121.76                C6-C5-C3=125.33                N26-C5-C3=114.89               
N26-C5-C6=119.78               O7-C6-C5=124.15                C8-C6-C5=119.99                C8-C6-O7=115.84                
H30-O7-C6=110.62               O9-C8-C6=119.41                N10-C8-C6=115.40               N10-C8-O9=125.16               
C11-N10-C8=116.17              C12-N10-C8=123.31              C12-N10-C11=120.51             
 
 selected dihedral angles (degree)
 ---------------------------------
C3-O2-C1-H27=298.63           C3-O2-C1-H28=178.91           C3-O2-C1-H29= 59.15           O4-C3-O2-C1=359.93            
C5-C3-O2-C1=179.89            C6-C5-C3-O2= 19.74            C6-C5-C3-O4=199.69            N26-C5-C3-O2=198.75           
N26-C5-C3-O4= 18.70           O7-C6-C5-C3=359.80            O7-C6-C5-N26=180.83           C8-C6-C5-C3=181.68            
C8-C6-C5-N26=  2.72           H30-O7-C6-C5=179.91           H30-O7-C6-C8=358.09           O9-C8-C6-C5=176.12            
O9-C8-C6-O7=357.86            N10-C8-C6-C5=358.11           N10-C8-C6-O7=179.84           C11-N10-C8-C6=173.92          
C11-N10-C8-O9=356.04          C12-N10-C8-C6=354.69          C12-N10-C8-O9=176.80          
           -------------------------------------------------
          |                Final Singlepoint                |
           -------------------------------------------------

          ...................................................
          :                      SETUP                      :
          :.................................................:
          :  # basis functions                 144          :
          :  # atomic orbitals                 144          :
          :  # shells                           92          :
          :  # electrons                       140          :
          :  # halogen bonds                     0          :
          :  max. iterations                   250          :
          :  Hamiltonian                  GFN1-xTB          :
          :  restarted?                      false          :
          :  GBSA solvation                   true          :
          :  PC potential                    false          :
          :  electronic temp.          300.0000000     K    :
          :  accuracy                    1.0000000          :
          :  -> integral cutoff          0.2500000E+02      :
          :  -> integral neglect         0.1000000E-07      :
          :  -> SCF convergence          0.1000000E-05 Eh   :
          :  -> wf. convergence          0.2000000E-04 e    :
          :  Broyden damping             0.4000000          :
          ...................................................

 iter      E             dE          RMSdq      gap      omega  full diag
   1    -87.1331179 -0.871331E+02  0.389E-06    1.10       0.0  T
   2    -87.1331179 -0.227374E-12  0.195E-06    1.10    7572.7  T
   3    -87.1331179  0.127898E-12  0.113E-06    1.10   13034.2  T

   *** convergence criteria satisfied after 3 iterations ***

         #    Occupation            Energy/Eh            Energy/eV
      -------------------------------------------------------------
         1        2.0000           -0.8935455             -24.3146
       ...           ...                  ...                  ...
        64        2.0000           -0.5020767             -13.6622
        65        2.0000           -0.4997368             -13.5985
        66        2.0000           -0.4911590             -13.3651
        67        2.0000           -0.4898153             -13.3286
        68        2.0000           -0.4791168             -13.0374
        69        2.0000           -0.4700630             -12.7911
        70        2.0000           -0.4688866             -12.7591 (HOMO)
        71                         -0.4285542             -11.6616 (LUMO)
        72                         -0.3543597              -9.6426
        73                         -0.3375670              -9.1857
        74                         -0.2791323              -7.5956
        75                         -0.2717182              -7.3938
       ...                                ...                  ...
       144                          0.7219594              19.6455
      -------------------------------------------------------------
                  HL-Gap            0.0403324 Eh            1.0975 eV
             Fermi-level           -0.4486001 Eh          -12.2070 eV

 SCC (total)                   0 d,  0 h,  0 min,  0.138 sec
 SCC setup                      ...        0 min,  0.002 sec (  1.411%)
 Dispersion                     ...        0 min,  0.000 sec (  0.234%)
 classical contributions        ...        0 min,  0.000 sec (  0.073%)
 integral evaluation            ...        0 min,  0.034 sec ( 24.382%)
 iterations                     ...        0 min,  0.022 sec ( 16.063%)
 molecular gradient             ...        0 min,  0.078 sec ( 56.700%)
 printout                       ...        0 min,  0.002 sec (  1.117%)

         :::::::::::::::::::::::::::::::::::::::::::::::::::::
         ::                     SUMMARY                     ::
         :::::::::::::::::::::::::::::::::::::::::::::::::::::
         :: total energy             -86.307008335163 Eh    ::
         :: total w/o Gsasa/hb       -86.282178943835 Eh    ::
         :: gradient norm              0.000366487508 Eh/a0 ::
         :: HOMO-LUMO gap              1.097500426635 eV    ::
         ::.................................................::
         :: SCC energy               -87.133117934341 Eh    ::
         :: -> electrostatic           0.404127721257 Eh    ::
         :: -> Gsolv                  -0.106503212084 Eh    ::
         ::    -> Gelec               -0.081673820755 Eh    ::
         ::    -> Gsasa               -0.024003977518 Eh    ::
         ::    -> Ghb                 -0.008449692815 Eh    ::
         ::    -> Gshift               0.007624279005 Eh    ::
         :: repulsion energy           0.857848118267 Eh    ::
         :: dispersion energy         -0.031738519089 Eh    ::
         :: halogen bond corr.         0.000000000000 Eh    ::
         :: add. restraining           0.000000000000 Eh    ::
         :: total charge               1.000000000350 e     ::
         :::::::::::::::::::::::::::::::::::::::::::::::::::::

           -------------------------------------------------
          |                Property Printout                |
           -------------------------------------------------

    * Orbital Energies and Occupations

         #    Occupation            Energy/Eh            Energy/eV
      -------------------------------------------------------------
         1        2.0000           -0.8935455             -24.3146
       ...           ...                  ...                  ...
        58        2.0000           -0.5318434             -14.4722
        59        2.0000           -0.5273626             -14.3503
        60        2.0000           -0.5236461             -14.2491
        61        2.0000           -0.5215892             -14.1932
        62        2.0000           -0.5180575             -14.0971
        63        2.0000           -0.5124463             -13.9444
        64        2.0000           -0.5020767             -13.6622
        65        2.0000           -0.4997368             -13.5985
        66        2.0000           -0.4911590             -13.3651
        67        2.0000           -0.4898153             -13.3286
        68        2.0000           -0.4791168             -13.0374
        69        2.0000           -0.4700630             -12.7911
        70        2.0000           -0.4688866             -12.7591 (HOMO)
        71                         -0.4285542             -11.6616 (LUMO)
        72                         -0.3543597              -9.6426
        73                         -0.3375670              -9.1857
        74                         -0.2791323              -7.5956
        75                         -0.2717182              -7.3938
        76                         -0.2276947              -6.1959
        77                         -0.2217581              -6.0343
        78                         -0.1655895              -4.5059
        79                         -0.1605978              -4.3701
        80                         -0.1504224              -4.0932
        81                         -0.1477230              -4.0197
       ...                                ...                  ...
       144                          0.7219594              19.6455
      -------------------------------------------------------------
                  HL-Gap            0.0403324 Eh            1.0975 eV
             Fermi-level           -0.4486001 Eh          -12.2070 eV

  Mulliken/CM5 charges         n(s)   n(p)   n(d)
     1C     0.15867  0.03716   0.988  2.854  0.000
     2O    -0.39696 -0.48158   1.682  4.715  0.000
     3C     0.59250  0.66145   0.957  2.450  0.000
     4O    -0.52663 -0.57190   1.719  4.808  0.000
     5C     0.12627  0.21404   1.050  2.824  0.000
     6C     0.31968  0.35641   1.061  2.619  0.000
     7O    -0.41537 -0.60728   1.691  4.725  0.000
     8C     0.44876  0.55430   0.976  2.576  0.000
     9O    -0.54686 -0.59961   1.720  4.826  0.000
    10N    -0.22343 -0.48292   1.461  3.762  0.000
    11C     0.04637 -0.04231   0.999  2.954  0.000
    12C     0.25597  0.37195   1.056  2.688  0.000
    13C    -0.08854 -0.22245   1.027  3.061  0.000
    14C     0.19062  0.23594   1.096  2.714  0.000
    15C    -0.09863 -0.23653   1.023  3.076  0.000
    16C    -0.12307 -0.26164   1.028  3.095  0.000
    17N    -0.32597 -0.69008   1.439  3.887  0.000
    18C     0.48079  0.58394   0.984  2.536  0.000
    19O    -0.52667 -0.57635   1.721  4.805  0.000
    20C     0.33247  0.45716   0.998  2.670  0.000
    21N    -0.22256 -0.33543   1.566  3.657  0.000
    22N    -0.24352 -0.35005   1.561  3.683  0.000
    23C     0.39768  0.50514   1.013  2.589  0.000
    24C    -0.11138 -0.24869   1.013  3.098  0.000
    25O    -0.32717 -0.37922   1.688  4.639  0.000
    26N    -0.25879 -0.45931   1.543  3.716  0.000
    27H     0.06526  0.12666   0.935  0.000  0.000
    28H     0.06871  0.12909   0.931  0.000  0.000
    29H     0.06588  0.12752   0.934  0.000  0.000
    30H     0.45616  0.63248   0.544  0.000  0.000
    31H     0.09903  0.16864   0.901  0.000  0.000
    32H     0.08961  0.15253   0.910  0.000  0.000
    33H     0.06607  0.13794   0.934  0.000  0.000
    34H     0.08376  0.14489   0.916  0.000  0.000
    35H     0.07820  0.13664   0.922  0.000  0.000
    36H     0.06953  0.13417   0.930  0.000  0.000
    37H     0.07411  0.13237   0.926  0.000  0.000
    38H     0.07294  0.13616   0.927  0.000  0.000
    39H     0.06141  0.12224   0.939  0.000  0.000
    40H     0.06798  0.13002   0.932  0.000  0.000
    41H     0.05846  0.11928   0.942  0.000  0.000
    42H     0.08928  0.14508   0.911  0.000  0.000
    43H     0.26950  0.47756   0.730  0.000  0.000
    44H     0.07634  0.13213   0.924  0.000  0.000
    45H     0.08722  0.14156   0.913  0.000  0.000
    46H     0.08631  0.14094   0.914  0.000  0.000

Wiberg/Mayer (AO) data.
largest (>0.10) Wiberg bond orders for each atom

 ---------------------------------------------------------------------------
     #   Z sym  total        # sym  WBO       # sym  WBO       # sym  WBO
 ---------------------------------------------------------------------------
     1   6 C    3.848 --    28 H    0.985    29 H    0.978    27 H    0.978
                             2 O    0.874
     2   8 O    2.229 --     3 C    1.159     1 C    0.874     4 O    0.150
     3   6 C    3.863 --     4 O    1.690     2 O    1.159     5 C    0.942
     4   8 O    1.959 --     3 C    1.690     2 O    0.150
     5   6 C    3.953 --    26 N    1.518     6 C    1.242     3 C    0.942
     6   6 C    3.847 --     7 O    1.293     5 C    1.242     8 C    1.005
     7   8 O    2.221 --     6 C    1.293    30 H    0.756
     8   6 C    3.923 --     9 O    1.585    10 N    1.211     6 C    1.005
     9   8 O    1.937 --     8 C    1.585    10 N    0.182
    10   7 N    3.495 --     8 C    1.211    12 C    0.981    11 C    0.926
                             9 O    0.182
    11   6 C    3.905 --    33 H    0.971    31 H    0.971    32 H    0.961
                            10 N    0.926
    12   6 C    3.906 --    26 N    1.135    10 N    0.981    13 C    0.948
                            14 C    0.688
    13   6 C    3.963 --    36 H    0.979    34 H    0.975    35 H    0.975
                            12 C    0.948
    14   6 C    3.900 --    17 N    1.029    16 C    1.004    15 C    0.998
                            12 C    0.688
    15   6 C    3.977 --    14 C    0.998    39 H    0.977    38 H    0.972
                            37 H    0.972
    16   6 C    3.986 --    14 C    1.004    40 H    0.980    41 H    0.979
                            42 H    0.965
    17   7 N    3.377 --    18 C    1.135    14 C    1.029    43 H    0.881
                            19 O    0.133
    18   6 C    3.899 --    19 O    1.647    17 N    1.135    20 C    1.014
    19   8 O    1.949 --    18 C    1.647    17 N    0.133
    20   6 C    3.880 --    21 N    1.578    25 O    1.067    18 C    1.014
    21   7 N    3.026 --    20 C    1.578    22 N    1.228
    22   7 N    2.980 --    23 C    1.573    21 N    1.228
    23   6 C    3.857 --    22 N    1.573    25 O    1.092    24 C    1.035
    24   6 C    3.982 --    23 C    1.035    44 H    0.981    46 H    0.961
                            45 H    0.957
    25   8 O    2.342 --    23 C    1.092    20 C    1.067
    26   7 N    3.035 --     5 C    1.518    12 C    1.135
    27   1 H    1.002 --     1 C    0.978
    28   1 H    1.007 --     1 C    0.985
    29   1 H    1.002 --     1 C    0.978
    30   1 H    0.806 --     7 O    0.756
    31   1 H    0.998 --    11 C    0.971
    32   1 H    0.992 --    11 C    0.961
    33   1 H    1.002 --    11 C    0.971
    34   1 H    1.003 --    13 C    0.975
    35   1 H    0.994 --    13 C    0.975
    36   1 H    0.999 --    13 C    0.979
    37   1 H    0.993 --    15 C    0.972
    38   1 H    1.010 --    15 C    0.972
    39   1 H    1.008 --    15 C    0.977
    40   1 H    0.994 --    16 C    0.980
    41   1 H    0.998 --    16 C    0.979
    42   1 H    0.993 --    16 C    0.965
    43   1 H    0.947 --    17 N    0.881
    44   1 H    0.997 --    24 C    0.981
    45   1 H    0.994 --    24 C    0.957
    46   1 H    0.994 --    24 C    0.961
 ---------------------------------------------------------------------------

Topologies differ in total number of bonds
Writing topology from bond orders to xtbtopo.mol

 dipole moment from electron density (au)
     X       Y       Z   
   0.8900  -1.5973  -1.2967  total (Debye):    5.698

           -------------------------------------------------
          |                Geometry Summary                 |
           -------------------------------------------------

      molecular mass/u    :      366.3497991
   center of mass at/Å    :        0.0654773      -0.0346540      -0.0361279
  moments of inertia/u·Å² :        0.9623122E+03   0.5055227E+04   0.5611522E+04
rotational constants/cm⁻¹ :        0.1751784E-01   0.3334693E-02   0.3004111E-02

 * 42 selected distances

     #   Z          #   Z                                           value/Å
     1   6 C        2   8 O                                       1.4384486
     2   8 O        3   6 C                                       1.3147229
     3   6 C        4   8 O                                       1.2023377
     5   6 C        6   6 C                                       1.4083713
     6   6 C        7   8 O                                       1.2888973
     8   6 C        9   8 O                                       1.2184480
     8   6 C       10   7 N                                       1.3589480
    10   7 N       11   6 C                                       1.4605632
    10   7 N       12   6 C                                       1.4359681
    12   6 C       13   6 C                                       1.5306581 (max)
    14   6 C       15   6 C                                       1.5241237
    14   6 C       16   6 C                                       1.5225318
    14   6 C       17   7 N                                       1.4184778
    17   7 N       18   6 C                                       1.3799431
    18   6 C       19   8 O                                       1.2093189
    20   6 C       21   7 N                                       1.3028551
    22   7 N       23   6 C                                       1.3042482
    23   6 C       24   6 C                                       1.4776293
    20   6 C       25   8 O                                       1.3432214
    23   6 C       25   8 O                                       1.3384514
     5   6 C       26   7 N                                       1.3064598
    12   6 C       26   7 N                                       1.3794985
     1   6 C       27   1 H                                       1.0916713
     1   6 C       28   1 H                                       1.0874488
     1   6 C       29   1 H                                       1.0914750
     7   8 O       30   1 H                                       0.9851914 (min)
    11   6 C       31   1 H                                       1.0889633
    11   6 C       32   1 H                                       1.0907715
    11   6 C       33   1 H                                       1.0855945
    13   6 C       34   1 H                                       1.0874650
    13   6 C       35   1 H                                       1.0886904
    13   6 C       36   1 H                                       1.0850203
    15   6 C       37   1 H                                       1.0892158
    15   6 C       38   1 H                                       1.0865802
    15   6 C       39   1 H                                       1.0893442
    16   6 C       40   1 H                                       1.0877529
    16   6 C       41   1 H                                       1.0882246
    16   6 C       42   1 H                                       1.0898249
    17   7 N       43   1 H                                       1.0112678
    24   6 C       44   1 H                                       1.0873456
    24   6 C       45   1 H                                       1.0906864
    24   6 C       46   1 H                                       1.0898996

 * 6 distinct bonds (by element types)

   Z      Z             #   av. dist./Å        max./Å        min./Å
   1 H    6 C          18     1.0886652     1.0916713     1.0850203
   6 C    6 C           5     1.4926628     1.5306581     1.4083713
   1 H    7 N           1     1.0112678     1.0112678     1.0112678
   6 C    7 N           9     1.3718846     1.4605632     1.3028551
   1 H    8 O           1     0.9851914     0.9851914     0.9851914
   6 C    8 O           8     1.2942308     1.4384486     1.2023377


optimized geometry written to: xtbopt.xyz


           -------------------------------------------------
          | TOTAL ENERGY              -86.307008335163 Eh   |
          | GRADIENT NORM               0.000366487508 Eh/α |
          | HOMO-LUMO GAP               1.097500426635 eV   |
           -------------------------------------------------

------------------------------------------------------------------------
 * finished run on 2023/06/20 at 15:45:23.165     
------------------------------------------------------------------------
 total:
 * wall-time:     0 d,  0 h,  0 min,  4.009 sec
 *  cpu-time:     0 d,  0 h,  0 min,  3.968 sec
 * ratio c/w:     0.990 speedup
 SCF:
 * wall-time:     0 d,  0 h,  0 min,  0.181 sec
 *  cpu-time:     0 d,  0 h,  0 min,  0.181 sec
 * ratio c/w:     1.000 speedup
 ANC optimizer:
 * wall-time:     0 d,  0 h,  0 min,  3.745 sec
 *  cpu-time:     0 d,  0 h,  0 min,  3.740 sec
 * ratio c/w:     0.998 speedup

