33
 energy: -57.865720958969 gnorm: 0.000507444178 xtb: 6.5.1 (579679a)
C            2.98522858640160        1.92860346170503        1.13461769192769
O            2.14755150208806        0.92136748612627        0.55414853206632
C            2.52664553523091       -0.34551655468992        0.76062292885967
O            3.50099235234666       -0.63909803256214        1.41113735596310
C            1.62402800102862       -1.32476302630347        0.09265362560066
C            1.83603772816628       -2.67630028588199        0.14049491576644
O            2.84571249660924       -3.25491531798455        0.79598171994672
C            0.92837876916122       -3.58970798828258       -0.55182412482959
O            1.05952233977448       -4.80338762188420       -0.53279334059039
N           -0.08448300246332       -2.95681149474080       -1.23153040509789
C           -0.24286410807818       -1.60142116029955       -1.23813411048389
C           -1.39125620252718       -1.05813935947735       -2.01851032782018
C           -2.08945922696680        2.17498983125172        0.33792898727294
C           -0.75300044642312        1.79135546497957        0.81918763906463
C           -3.24663372056852        1.29256139600710        0.59755201022044
N           -2.25750586445733        3.27668142245799       -0.31318243213592
N            0.55568582021010       -0.80690027172499       -0.60746397056644
H            2.58616639581476        2.88635936548352        0.80937096804556
H            2.95463515365844        1.85657694944358        2.22453287541307
H            4.01478670193353        1.80620709069650        0.78837504615887
H            2.77838693383405       -4.22214738804347        0.68989706727333
H           -0.74585587770740       -3.53891773543603       -1.72081099350306
H           -1.35293063863081        0.02793314634395       -2.01301688236133
H           -2.33306579650570       -1.38439477358103       -1.57810064325356
H           -1.35775040188242       -1.41705135231652       -3.04708563389253
H           -0.81328643027375        1.36232226684113        1.81881899286719
H           -0.05492537952712        2.62522883297427        0.80395129568887
H           -0.35677398863067        1.00102164946226        0.16357701765090
H           -4.08260419025681        1.51475769659661       -0.06211003644307
H           -3.56839422139967        1.44498751447358        1.63129052943237
H           -2.95707573660550        0.24659125436123        0.50110306872218
H           -3.15871171087420        3.54848600368743       -0.67053950848978
H           -1.49718037248257        3.91344253033743       -0.49013685847718
