      -----------------------------------------------------------      
     |                   =====================                   |     
     |                           x T B                           |     
     |                   =====================                   |     
     |                         S. Grimme                         |     
     |          Mulliken Center for Theoretical Chemistry        |     
     |                    University of Bonn                     |     
      -----------------------------------------------------------      

   * xtb version 6.5.1 (579679a) compiled by 'ehlert@majestix' on 2022-07-11

   xtb is free software: you can redistribute it and/or modify it under
   the terms of the GNU Lesser General Public License as published by
   the Free Software Foundation, either version 3 of the License, or
   (at your option) any later version.
   
   xtb is distributed in the hope that it will be useful,
   but WITHOUT ANY WARRANTY; without even the implied warranty of
   MERCHANTABILITY or FITNESS FOR A PARTICULAR PURPOSE.  See the
   GNU Lesser General Public License for more details.
   
   Cite this work as:
   * C. Bannwarth, E. Caldeweyher, S. Ehlert, A. Hansen, P. Pracht,
     J. Seibert, S. Spicher, S. Grimme, WIREs Comput. Mol. Sci., 2020, 11,
     e01493. DOI: 10.1002/wcms.1493
   
   for GFN2-xTB:
   * C. Bannwarth, S. Ehlert and S. Grimme., J. Chem. Theory Comput., 2019,
     15, 1652-1671. DOI: 10.1021/acs.jctc.8b01176
   for GFN1-xTB:
   * S. Grimme, C. Bannwarth, P. Shushkov, J. Chem. Theory Comput., 2017,
     13, 1989-2009. DOI: 10.1021/acs.jctc.7b00118
   for GFN0-xTB:
   * P. Pracht, E. Caldeweyher, S. Ehlert, S. Grimme, ChemRxiv, 2019, preprint.
     DOI: 10.26434/chemrxiv.8326202.v1
   for GFN-FF:
   * S. Spicher and S. Grimme, Angew. Chem. Int. Ed., 2020, 59, 15665-15673.
     DOI: 10.1002/anie.202004239
   
   for ALPB and GBSA implicit solvation:
   * S. Ehlert, M. Stahn, S. Spicher, S. Grimme, J. Chem. Theory Comput.,
     2021, 17, 4250-4261. DOI: 10.1021/acs.jctc.1c00471
   
   for DFT-D4:
   * E. Caldeweyher, C. Bannwarth and S. Grimme, J. Chem. Phys., 2017,
     147, 034112. DOI: 10.1063/1.4993215
   * E. Caldeweyher, S. Ehlert, A. Hansen, H. Neugebauer, S. Spicher,
     C. Bannwarth and S. Grimme, J. Chem. Phys., 2019, 150, 154122.
     DOI: 10.1063/1.5090222
   * E. Caldeweyher, J.-M. Mewes, S. Ehlert and S. Grimme, Phys. Chem. Chem. Phys.
     2020, 22, 8499-8512. DOI: 10.1039/D0CP00502A
   
   for sTDA-xTB:
   * S. Grimme and C. Bannwarth, J. Chem. Phys., 2016, 145, 054103.
     DOI: 10.1063/1.4959605
   
   in the mass-spec context:
   * V. Asgeirsson, C. Bauer and S. Grimme, Chem. Sci., 2017, 8, 4879.
     DOI: 10.1039/c7sc00601b
   * J. Koopman and S. Grimme, ACS Omega 2019, 4, 12, 15120-15133.
     DOI: 10.1021/acsomega.9b02011
   
   for metadynamics refer to:
   * S. Grimme, J. Chem. Theory Comput., 2019, 155, 2847-2862
     DOI: 10.1021/acs.jctc.9b00143
   
   for SPH calculations refer to:
   * S. Spicher and S. Grimme, J. Chem. Theory Comput., 2021, 17, 1701-1714
     DOI: 10.1021/acs.jctc.0c01306
   
   with help from (in alphabetical order)
   P. Atkinson, C. Bannwarth, F. Bohle, G. Brandenburg, E. Caldeweyher
   M. Checinski, S. Dohm, S. Ehlert, S. Ehrlich, I. Gerasimov, C. Hölzer
   A. Katbashev, J. Koopman, C. Lavigne, S. Lehtola, F. März, M. Müller,
   F. Musil, H. Neugebauer, J. Pisarek, C. Plett, P. Pracht, F. Pultar,
   J. Seibert, P. Shushkov, S. Spicher, M. Stahn, M. Steiner, T. Strunk,
   J. Stückrath, T. Rose, and J. Unsleber
   
 * started run on 2023/06/20 at 15:00:27.065     

           -------------------------------------------------
          |                Calculation Setup                |
           -------------------------------------------------

          program call               : /lustre/hpc/kemi/ree/PhD/git/ReactivityQM/dep/xtb-6.5.1/bin/xtb --gfn 1 /lustre/hpc/kemi/ree/PhD/git/ReactivityQM/calculations/R01/reac02prodE06/conf10/R01_reac02prodE06_conf10_gfn1.xyz --opt --vfukui --chrg -1 --uhf 0 --alpb DMSO
          hostname                   : node312
          coordinate file            : /lustre/hpc/kemi/ree/PhD/git/ReactivityQM/calculations/R01/reac02prodE06/conf10/R01_reac02prodE06_conf10_gfn1.xyz
          omp threads                :                     1

   ID    Z sym.   atoms
    1    6 C      1, 3, 5, 6, 8, 9, 12-15
    2    8 O      2, 4, 7, 10
    3    7 N      11, 16, 17
    4    1 H      18-33

           -------------------------------------------------
          |                 G F N 1 - x T B                 |
           -------------------------------------------------

        Reference                      10.1021/acs.jctc.7b00118
      * Hamiltonian:
        H0-scaling (s, p, d)           1.850000    2.250000    2.000000
        zeta-weighting                 0.000000
      * Dispersion:
        s8                             2.400000
        a1                             0.630000
        a2                             5.000000
        s9                             0.000000
      * Repulsion:
        kExp                           1.500000
        rExp                           1.000000
      * Coulomb:
        alpha                          2.000000
        third order                    atomic
        anisotropic                    false
      * Halogen bond correction:
        rad-scale                      1.300000
        damping                        0.440000

      * Solvation model:               ALPB
        Solvent                        DMSO
        Parameter file                 internal GFN1-xTB/ALPB
        Dielectric constant                4.6680E+01
        Reference state                gsolv [1 M gas/solution]
        Free energy shift                  7.6243E-03 Eh       4.7843E+00 kcal/mol
        Temperature                        2.9815E+02 K
        Density                            1.1000E+00 kg/L
        Solvent mass                       7.8130E+01 g/mol
        Interaction kernel             P16
        Born radius scaling (c1)           1.7672E+00
        Born radii integrator          GBOBC
        Born offset                        0.0000E+00 a0       0.0000E+00 AA
        H-bond correction              true
        Ion screening                  false
        Surface tension                    1.0000E-05 Eh       1.5569E+01 dyn/cm
        Grid points                               230 per atom

          ...................................................
          :                      SETUP                      :
          :.................................................:
          :  # basis functions                 100          :
          :  # atomic orbitals                 100          :
          :  # shells                           66          :
          :  # electrons                        96          :
          :  # halogen bonds                     0          :
          :  max. iterations                   250          :
          :  Hamiltonian                  GFN1-xTB          :
          :  restarted?                      false          :
          :  GBSA solvation                   true          :
          :  PC potential                    false          :
          :  electronic temp.          300.0000000     K    :
          :  accuracy                    1.0000000          :
          :  -> integral cutoff          0.2500000E+02      :
          :  -> integral neglect         0.1000000E-07      :
          :  -> SCF convergence          0.1000000E-05 Eh   :
          :  -> wf. convergence          0.2000000E-04 e    :
          :  Broyden damping             0.4000000          :
          ...................................................

 iter      E             dE          RMSdq      gap      omega  full diag
   1    -58.8733705 -0.588734E+02  0.828E+00    2.94       0.0  T
   2    -59.0489075 -0.175537E+00  0.491E+00    2.27       1.0  T
   3    -59.0456959  0.321159E-02  0.130E+00    1.35       1.0  T
   4    -59.0598963 -0.142004E-01  0.185E-01    1.55       1.0  T
   5    -59.0605658 -0.669495E-03  0.353E-02    1.77       1.0  T
   6    -59.0605985 -0.327047E-04  0.110E-02    1.75       1.6  T
   7    -59.0606001 -0.163753E-05  0.375E-03    1.75       4.6  T
   8    -59.0606003 -0.184079E-06  0.154E-03    1.75      11.3  T
   9    -59.0606003 -0.158711E-07  0.538E-04    1.75      32.4  T
  10    -59.0606003 -0.368536E-08  0.123E-04    1.75     141.6  T
  11    -59.0606003 -0.244199E-09  0.475E-05    1.75     366.8  T

   *** convergence criteria satisfied after 11 iterations ***

         #    Occupation            Energy/Eh            Energy/eV
      -------------------------------------------------------------
         1        2.0000           -0.8084509             -21.9991
       ...           ...                  ...                  ...
        42        2.0000           -0.4355816             -11.8528
        43        2.0000           -0.4177926             -11.3687
        44        2.0000           -0.3915783             -10.6554
        45        2.0000           -0.3905191             -10.6266
        46        2.0000           -0.3555172              -9.6741
        47        2.0000           -0.3421536              -9.3105
        48        2.0000           -0.3329698              -9.0606 (HOMO)
        49                         -0.2687022              -7.3118 (LUMO)
        50                         -0.2236117              -6.0848
        51                         -0.1417218              -3.8564
        52                         -0.1228350              -3.3425
        53                         -0.1134330              -3.0867
       ...                                ...                  ...
       100                          0.6933063              18.8658
      -------------------------------------------------------------
                  HL-Gap            0.0642676 Eh            1.7488 eV
             Fermi-level           -0.3008360 Eh           -8.1862 eV

 SCC (total)                   0 d,  0 h,  0 min,  0.110 sec
 SCC setup                      ...        0 min,  0.002 sec (  1.388%)
 Dispersion                     ...        0 min,  0.000 sec (  0.237%)
 classical contributions        ...        0 min,  0.000 sec (  0.083%)
 integral evaluation            ...        0 min,  0.025 sec ( 22.428%)
 iterations                     ...        0 min,  0.028 sec ( 25.569%)
 molecular gradient             ...        0 min,  0.055 sec ( 49.823%)
 printout                       ...        0 min,  0.000 sec (  0.439%)

         :::::::::::::::::::::::::::::::::::::::::::::::::::::
         ::                     SUMMARY                     ::
         :::::::::::::::::::::::::::::::::::::::::::::::::::::
         :: total energy             -58.535341193179 Eh    ::
         :: total w/o Gsasa/hb       -58.517813828879 Eh    ::
         :: gradient norm              0.086432181223 Eh/a0 ::
         :: HOMO-LUMO gap              1.748810028386 eV    ::
         ::.................................................::
         :: SCC energy               -59.060600330836 Eh    ::
         :: -> electrostatic           0.397349634224 Eh    ::
         :: -> Gsolv                  -0.112913995841 Eh    ::
         ::    -> Gelec               -0.095386631541 Eh    ::
         ::    -> Gsasa               -0.018513298813 Eh    ::
         ::    -> Ghb                 -0.006638344492 Eh    ::
         ::    -> Gshift               0.007624279005 Eh    ::
         :: repulsion energy           0.543821301882 Eh    ::
         :: dispersion energy         -0.018562164225 Eh    ::
         :: halogen bond corr.         0.000000000000 Eh    ::
         :: add. restraining           0.000000000000 Eh    ::
         :: total charge              -1.000000000000 e     ::
         :::::::::::::::::::::::::::::::::::::::::::::::::::::

      ----------------------------------------------------------- 
     |                   =====================                   |
     |                        A N C O P T                        |
     |                   =====================                   |
     |               Approximate Normal Coordinate               |
     |                Rational Function Optimizer                |
      ----------------------------------------------------------- 

          ...................................................
          :                      SETUP                      :
          :.................................................:
          :   optimization level            normal          :
          :   max. optcycles                   200          :
          :   ANC micro-cycles                  20          :
          :   degrees of freedom                93          :
          :.................................................:
          :   RF solver                   davidson          :
          :   write xtbopt.log                true          :
          :   linear?                        false          :
          :   energy convergence         0.5000000E-05 Eh   :
          :   grad. convergence          0.1000000E-02 Eh/α :
          :   maximium RF displ.         1.0000000          :
          :   Hlow (freq-cutoff)         0.1000000E-01      :
          :   Hmax (freq-cutoff)         5.0000000          :
          :   S6 in model hess.         20.0000000          :
          ...................................................

generating ANC from model Hessian ...
Using Lindh-Hessian (1995)
 Shifting diagonal of input Hessian by   9.399002166870245E-003
 Lowest  eigenvalues of input Hessian
    0.000000    0.000000    0.000000    0.000000    0.000000    0.000000
    0.010000    0.010748    0.010954    0.011691    0.013509    0.014050
    0.015866    0.016595    0.018302    0.018814    0.018948    0.019351
 Highest eigenvalues
    1.605021    1.697909    1.780863    1.992111    2.101694    2.260858
 

........................................................................
.............................. CYCLE    1 ..............................
........................................................................
   1    -59.0606003 -0.590606E+02  0.160E-05    1.75       0.0  T
   2    -59.0606003 -0.132871E-11  0.836E-06    1.75    2083.4  T
   3    -59.0606003  0.241585E-12  0.486E-06    1.75    3580.6  T
     SCC iter.                  ...        0 min,  0.006 sec
     gradient                   ...        0 min,  0.055 sec
 * total energy  :   -58.5353412 Eh     change       -0.8746781E-11 Eh
   gradient norm :     0.0864324 Eh/α   predicted     0.0000000E+00 (-100.00%)
   displ. norm   :     0.2449981 α      lambda       -0.1053323E-01
   maximum displ.:     0.0866200 α      in ANC's #24, #17, #20, ...

........................................................................
.............................. CYCLE    2 ..............................
........................................................................
   1    -59.0741140 -0.590741E+02  0.734E-02    1.87       0.0  T
   2    -59.0742652 -0.151195E-03  0.208E-02    1.95       1.0  T
   3    -59.0742692 -0.400986E-05  0.111E-02    1.96       1.6  T
   4    -59.0742695 -0.295824E-06  0.489E-03    1.96       3.6  T
   5    -59.0742695 -0.558550E-07  0.664E-04    1.96      26.2  T
   6    -59.0742695 -0.741004E-08  0.185E-04    1.96      94.2  T
   7    -59.0742695 -0.493777E-09  0.780E-05    1.96     223.3  T
     SCC iter.                  ...        0 min,  0.013 sec
     gradient                   ...        0 min,  0.055 sec
 * total energy  :   -58.5426552 Eh     change       -0.7313990E-02 Eh
   gradient norm :     0.0479501 Eh/α   predicted    -0.5584496E-02 ( -23.65%)
   displ. norm   :     0.2322787 α      lambda       -0.4607219E-02
   maximum displ.:     0.1003984 α      in ANC's #17, #24, #6, ...

........................................................................
.............................. CYCLE    3 ..............................
........................................................................
   1    -59.0826372 -0.590826E+02  0.773E-02    2.00       0.0  T
   2    -59.0828783 -0.241109E-03  0.208E-02    2.12       1.0  T
   3    -59.0828856 -0.730301E-05  0.121E-02    2.13       1.4  T
   4    -59.0828862 -0.591053E-06  0.652E-03    2.13       2.7  T
   5    -59.0828862 -0.423821E-07  0.162E-03    2.13      10.7  T
   6    -59.0828863 -0.565824E-07  0.221E-04    2.13      78.8  T
   7    -59.0828863 -0.976307E-09  0.769E-05    2.13     226.2  T
   8    -59.0828863 -0.676934E-10  0.252E-05    2.13     689.9  T
     SCC iter.                  ...        0 min,  0.015 sec
     gradient                   ...        0 min,  0.059 sec
 * total energy  :   -58.5452227 Eh     change       -0.2567492E-02 Eh
   gradient norm :     0.0173468 Eh/α   predicted    -0.2430267E-02 (  -5.34%)
   displ. norm   :     0.1209432 α      lambda       -0.6854922E-03
   maximum displ.:     0.0593848 α      in ANC's #6, #17, #3, ...

........................................................................
.............................. CYCLE    4 ..............................
........................................................................
   1    -59.0829086 -0.590829E+02  0.282E-02    2.12       0.0  T
   2    -59.0829487 -0.401334E-04  0.741E-03    2.18       2.3  T
   3    -59.0829496 -0.860027E-06  0.406E-03    2.18       4.3  T
   4    -59.0829496 -0.357856E-07  0.227E-03    2.18       7.7  T
   5    -59.0829496 -0.533723E-08  0.537E-04    2.18      32.4  T
   6    -59.0829496 -0.679795E-08  0.109E-04    2.18     159.8  T
   7    -59.0829496 -0.202043E-09  0.249E-05    2.18     699.9  T
     SCC iter.                  ...        0 min,  0.013 sec
     gradient                   ...        0 min,  0.055 sec
 * total energy  :   -58.5456628 Eh     change       -0.4401534E-03 Eh
   gradient norm :     0.0097466 Eh/α   predicted    -0.3479150E-03 ( -20.96%)
   displ. norm   :     0.1344151 α      lambda       -0.3694620E-03
   maximum displ.:     0.0659974 α      in ANC's #3, #6, #17, ...

........................................................................
.............................. CYCLE    5 ..............................
........................................................................
   1    -59.0821143 -0.590821E+02  0.218E-02    2.17       0.0  T
   2    -59.0821342 -0.198809E-04  0.686E-03    2.21       2.5  T
   3    -59.0821349 -0.662224E-06  0.396E-03    2.21       4.4  T
   4    -59.0821349 -0.635348E-07  0.211E-03    2.22       8.2  T
   5    -59.0821350 -0.832161E-08  0.571E-04    2.22      30.5  T
   6    -59.0821350 -0.607573E-08  0.954E-05    2.22     182.5  T
   7    -59.0821350 -0.163098E-09  0.266E-05    2.22     654.4  T
     SCC iter.                  ...        0 min,  0.013 sec
     gradient                   ...        0 min,  0.055 sec
 * total energy  :   -58.5458883 Eh     change       -0.2254828E-03 Eh
   gradient norm :     0.0061294 Eh/α   predicted    -0.1881017E-03 ( -16.58%)
   displ. norm   :     0.0997862 α      lambda       -0.1121918E-03
   maximum displ.:     0.0617357 α      in ANC's #3, #6, #1, ...

........................................................................
.............................. CYCLE    6 ..............................
........................................................................
   1    -59.0821565 -0.590822E+02  0.116E-02    2.22       0.0  T
   2    -59.0821609 -0.438152E-05  0.453E-03    2.23       3.8  T
   3    -59.0821617 -0.781048E-06  0.188E-03    2.23       9.3  T
   4    -59.0821617 -0.361976E-07  0.859E-04    2.23      20.3  T
   5    -59.0821617 -0.251646E-09  0.266E-04    2.23      65.4  T
   6    -59.0821617 -0.515712E-09  0.430E-05    2.23     405.1  T
   7    -59.0821617 -0.260201E-10  0.148E-05    2.23    1175.7  T
     SCC iter.                  ...        0 min,  0.013 sec
     gradient                   ...        0 min,  0.055 sec
 * total energy  :   -58.5459732 Eh     change       -0.8485831E-04 Eh
   gradient norm :     0.0037361 Eh/α   predicted    -0.5665543E-04 ( -33.24%)
   displ. norm   :     0.1515148 α      lambda       -0.1162442E-03
   maximum displ.:     0.0977713 α      in ANC's #3, #6, #1, ...

........................................................................
.............................. CYCLE    7 ..............................
........................................................................
   1    -59.0826472 -0.590826E+02  0.133E-02    2.24       0.0  T
   2    -59.0826526 -0.538086E-05  0.547E-03    2.24       3.2  T
   3    -59.0826539 -0.129363E-05  0.207E-03    2.24       8.4  T
   4    -59.0826539 -0.417417E-07  0.911E-04    2.24      19.1  T
   5    -59.0826539 -0.141987E-08  0.252E-04    2.24      69.1  T
   6    -59.0826539 -0.425800E-09  0.394E-05    2.24     441.9  T
   7    -59.0826539 -0.152909E-10  0.174E-05    2.24     999.6  T
     SCC iter.                  ...        0 min,  0.013 sec
     gradient                   ...        0 min,  0.056 sec
 * total energy  :   -58.5460551 Eh     change       -0.8191941E-04 Eh
   gradient norm :     0.0030216 Eh/α   predicted    -0.5945766E-04 ( -27.42%)
   displ. norm   :     0.1316552 α      lambda       -0.6800136E-04
   maximum displ.:     0.0854469 α      in ANC's #3, #1, #8, ...

........................................................................
.............................. CYCLE    8 ..............................
........................................................................
   1    -59.0832313 -0.590832E+02  0.726E-03    2.25       0.0  T
   2    -59.0832327 -0.140730E-05  0.308E-03    2.25       5.6  T
   3    -59.0832331 -0.393284E-06  0.125E-03    2.25      13.9  T
   4    -59.0832331 -0.111650E-07  0.509E-04    2.25      34.2  T
   5    -59.0832331 -0.445766E-09  0.111E-04    2.25     156.6  T
   6    -59.0832331 -0.127685E-09  0.209E-05    2.25     834.1  T
     SCC iter.                  ...        0 min,  0.012 sec
     gradient                   ...        0 min,  0.062 sec
 * total energy  :   -58.5461075 Eh     change       -0.5239283E-04 Eh
   gradient norm :     0.0039646 Eh/α   predicted    -0.3459102E-04 ( -33.98%)
   displ. norm   :     0.1540542 α      lambda       -0.6887224E-04
   maximum displ.:     0.0982816 α      in ANC's #3, #1, #2, ...

........................................................................
.............................. CYCLE    9 ..............................
........................................................................
   1    -59.0837394 -0.590837E+02  0.422E-03    2.25       0.0  T
   2    -59.0837399 -0.501459E-06  0.181E-03    2.25       9.6  T
   3    -59.0837400 -0.845935E-07  0.958E-04    2.25      18.2  T
   4    -59.0837400 -0.458308E-08  0.363E-04    2.25      48.0  T
   5    -59.0837400 -0.346589E-09  0.678E-05    2.25     256.9  T
   6    -59.0837400 -0.548255E-10  0.161E-05    2.25    1080.3  T
     SCC iter.                  ...        0 min,  0.011 sec
     gradient                   ...        0 min,  0.044 sec
 * total energy  :   -58.5461602 Eh     change       -0.5268822E-04 Eh
   gradient norm :     0.0040269 Eh/α   predicted    -0.3525597E-04 ( -33.09%)
   displ. norm   :     0.1672403 α      lambda       -0.6064371E-04
   maximum displ.:     0.1060847 α      in ANC's #3, #1, #2, ...

........................................................................
.............................. CYCLE   10 ..............................
........................................................................
   1    -59.0838912 -0.590839E+02  0.333E-03    2.25       0.0  T
   2    -59.0838916 -0.448874E-06  0.113E-03    2.25      15.4  T
   3    -59.0838916 -0.158748E-07  0.660E-04    2.25      26.4  T
   4    -59.0838916 -0.190956E-08  0.303E-04    2.25      57.4  T
   5    -59.0838916 -0.375636E-09  0.946E-05    2.25     184.1  T
   6    -59.0838916 -0.111129E-09  0.181E-05    2.25     962.6  T
     SCC iter.                  ...        0 min,  0.012 sec
     gradient                   ...        0 min,  0.038 sec
 * total energy  :   -58.5462056 Eh     change       -0.4546936E-04 Eh
   gradient norm :     0.0031433 Eh/α   predicted    -0.3117191E-04 ( -31.44%)
   displ. norm   :     0.1601078 α      lambda       -0.4497276E-04
   maximum displ.:     0.1024759 α      in ANC's #3, #1, #2, ...

........................................................................
.............................. CYCLE   11 ..............................
........................................................................
   1    -59.0838284 -0.590838E+02  0.512E-03    2.25       0.0  T
   2    -59.0838292 -0.764928E-06  0.180E-03    2.24       9.7  T
   3    -59.0838293 -0.108664E-06  0.830E-04    2.24      21.0  T
   4    -59.0838293 -0.722804E-08  0.349E-04    2.24      49.8  T
   5    -59.0838293 -0.691429E-10  0.123E-04    2.24     141.3  T
   6    -59.0838293 -0.156483E-09  0.256E-05    2.24     680.6  T
     SCC iter.                  ...        0 min,  0.008 sec
     gradient                   ...        0 min,  0.051 sec
 * total energy  :   -58.5462396 Eh     change       -0.3392664E-04 Eh
   gradient norm :     0.0021780 Eh/α   predicted    -0.2306482E-04 ( -32.02%)
   displ. norm   :     0.1516989 α      lambda       -0.3377451E-04
   maximum displ.:     0.0989057 α      in ANC's #3, #1, #2, ...

........................................................................
.............................. CYCLE   12 ..............................
........................................................................
   1    -59.0837053 -0.590837E+02  0.628E-03    2.24       0.0  T
   2    -59.0837064 -0.105182E-05  0.235E-03    2.24       7.4  T
   3    -59.0837066 -0.161755E-06  0.933E-04    2.24      18.7  T
   4    -59.0837066 -0.515998E-08  0.398E-04    2.24      43.7  T
   5    -59.0837066 -0.462748E-09  0.119E-04    2.24     146.2  T
   6    -59.0837066 -0.193324E-09  0.269E-05    2.24     646.6  T
     SCC iter.                  ...        0 min,  0.011 sec
     gradient                   ...        0 min,  0.044 sec
 * total energy  :   -58.5462648 Eh     change       -0.2523640E-04 Eh
   gradient norm :     0.0018654 Eh/α   predicted    -0.1727685E-04 ( -31.54%)
   displ. norm   :     0.1847846 α      lambda       -0.2492558E-04
   maximum displ.:     0.1219560 α      in ANC's #3, #1, #2, ...

........................................................................
.............................. CYCLE   13 ..............................
........................................................................
   1    -59.0835695 -0.590836E+02  0.885E-03    2.24       0.0  T
   2    -59.0835717 -0.220980E-05  0.356E-03    2.24       4.9  T
   3    -59.0835719 -0.265644E-06  0.146E-03    2.24      11.9  T
   4    -59.0835720 -0.282609E-08  0.669E-04    2.24      26.0  T
   5    -59.0835720 -0.267329E-08  0.142E-04    2.24     122.8  T
   6    -59.0835720 -0.387224E-09  0.396E-05    2.24     439.8  T
     SCC iter.                  ...        0 min,  0.011 sec
     gradient                   ...        0 min,  0.055 sec
 * total energy  :   -58.5462883 Eh     change       -0.2346076E-04 Eh
   gradient norm :     0.0021596 Eh/α   predicted    -0.1265422E-04 ( -46.06%)
   displ. norm   :     0.0447800 α      lambda       -0.1360670E-04
   maximum displ.:     0.0255242 α      in ANC's #3, #1, #4, ...

........................................................................
.............................. CYCLE   14 ..............................
........................................................................
   1    -59.0836916 -0.590837E+02  0.230E-03    2.24       0.0  T
   2    -59.0836918 -0.190405E-06  0.117E-03    2.24      14.9  T
   3    -59.0836918 -0.103011E-07  0.616E-04    2.24      28.3  T
   4    -59.0836918 -0.517346E-10  0.264E-04    2.24      65.8  T
   5    -59.0836918 -0.341636E-09  0.390E-05    2.24     446.0  T
   6    -59.0836918 -0.147153E-10  0.869E-06    2.24    2003.4  T
     SCC iter.                  ...        0 min,  0.012 sec
     gradient                   ...        0 min,  0.055 sec
 * total energy  :   -58.5462999 Eh     change       -0.1159525E-04 Eh
   gradient norm :     0.0017523 Eh/α   predicted    -0.6822214E-05 ( -41.16%)
   displ. norm   :     0.1439817 α      lambda       -0.2534031E-04
   maximum displ.:     0.0788458 α      in ANC's #3, #1, #4, ...

........................................................................
.............................. CYCLE   15 ..............................
........................................................................
   1    -59.0834242 -0.590834E+02  0.650E-03    2.24       0.0  T
   2    -59.0834259 -0.163387E-05  0.347E-03    2.24       5.0  T
   3    -59.0834260 -0.968861E-07  0.190E-03    2.25       9.2  T
   4    -59.0834260  0.117311E-08  0.844E-04    2.25      20.6  T
   5    -59.0834260 -0.512972E-08  0.163E-04    2.25     106.7  T
   6    -59.0834260 -0.430575E-09  0.463E-05    2.25     375.8  T
     SCC iter.                  ...        0 min,  0.011 sec
     gradient                   ...        0 min,  0.055 sec
 * total energy  :   -58.5463175 Eh     change       -0.1765476E-04 Eh
   gradient norm :     0.0016523 Eh/α   predicted    -0.1279119E-04 ( -27.55%)
   displ. norm   :     0.0245536 α      lambda       -0.4488394E-05
   maximum displ.:     0.0153542 α      in ANC's #1, #3, #10, ...

........................................................................
.............................. CYCLE   16 ..............................
........................................................................
   1    -59.0834392 -0.590834E+02  0.963E-04    2.24       0.0  T
   2    -59.0834392 -0.334367E-07  0.423E-04    2.24      41.1  T
   3    -59.0834392 -0.190075E-08  0.226E-04    2.24      77.0  T
   4    -59.0834392 -0.878373E-10  0.105E-04    2.24     165.5  T
   5    -59.0834392 -0.680700E-10  0.247E-05    2.24     706.2  T
     SCC iter.                  ...        0 min,  0.010 sec
     gradient                   ...        0 min,  0.055 sec
 * total energy  :   -58.5463230 Eh     change       -0.5474565E-05 Eh
   gradient norm :     0.0011036 Eh/α   predicted    -0.2247524E-05 ( -58.95%)
   displ. norm   :     0.0593351 α      lambda       -0.8528630E-05
   maximum displ.:     0.0377677 α      in ANC's #1, #3, #10, ...

........................................................................
.............................. CYCLE   17 ..............................
........................................................................
   1    -59.0831578 -0.590832E+02  0.250E-03    2.24       0.0  T
   2    -59.0831580 -0.130662E-06  0.126E-03    2.24      13.9  T
   3    -59.0831580 -0.103981E-07  0.630E-04    2.24      27.6  T
   4    -59.0831580 -0.557350E-09  0.218E-04    2.24      79.9  T
   5    -59.0831580 -0.348933E-09  0.520E-05    2.24     334.9  T
   6    -59.0831580 -0.468958E-10  0.148E-05    2.24    1173.5  T
     SCC iter.                  ...        0 min,  0.011 sec
     gradient                   ...        0 min,  0.055 sec
 * total energy  :   -58.5463307 Eh     change       -0.7755493E-05 Eh
   gradient norm :     0.0010261 Eh/α   predicted    -0.4273123E-05 ( -44.90%)
   displ. norm   :     0.0632874 α      lambda       -0.4607202E-05
   maximum displ.:     0.0404628 α      in ANC's #1, #3, #10, ...

........................................................................
.............................. CYCLE   18 ..............................
........................................................................
   1    -59.0833032 -0.590833E+02  0.117E-03    2.24       0.0  T
   2    -59.0833032 -0.193291E-07  0.572E-04    2.24      30.4  T
   3    -59.0833032 -0.317060E-08  0.309E-04    2.24      56.3  T
   4    -59.0833032 -0.106714E-08  0.843E-05    2.24     206.6  T
   5    -59.0833032 -0.169962E-10  0.193E-05    2.24     903.4  T
     SCC iter.                  ...        0 min,  0.010 sec
     gradient                   ...        0 min,  0.055 sec
 * total energy  :   -58.5463357 Eh     change       -0.4964575E-05 Eh
   gradient norm :     0.0011928 Eh/α   predicted    -0.2308310E-05 ( -53.50%)
   displ. norm   :     0.0837194 α      lambda       -0.5211954E-05
   maximum displ.:     0.0561908 α      in ANC's #1, #3, #10, ...

........................................................................
.............................. CYCLE   19 ..............................
........................................................................
   1    -59.0831447 -0.590831E+02  0.101E-03    2.24       0.0  T
   2    -59.0831447 -0.195664E-07  0.431E-04    2.24      40.4  T
   3    -59.0831448 -0.173122E-08  0.238E-04    2.24      73.1  T
   4    -59.0831448 -0.396476E-09  0.960E-05    2.24     181.3  T
   5    -59.0831448 -0.483382E-10  0.278E-05    2.24     626.1  T
     SCC iter.                  ...        0 min,  0.010 sec
     gradient                   ...        0 min,  0.055 sec
 * total energy  :   -58.5463420 Eh     change       -0.6264414E-05 Eh
   gradient norm :     0.0009292 Eh/α   predicted    -0.2616971E-05 ( -58.22%)
   displ. norm   :     0.0998780 α      lambda       -0.5483087E-05
   maximum displ.:     0.0689203 α      in ANC's #1, #3, #2, ...

........................................................................
.............................. CYCLE   20 ..............................
........................................................................
   1    -59.0831301 -0.590831E+02  0.154E-03    2.25       0.0  T
   2    -59.0831302 -0.613572E-07  0.630E-04    2.25      27.6  T
   3    -59.0831302 -0.642894E-08  0.286E-04    2.25      60.9  T
   4    -59.0831302 -0.436941E-09  0.141E-04    2.25     123.3  T
   5    -59.0831302 -0.130171E-09  0.396E-05    2.25     439.1  T
     SCC iter.                  ...        0 min,  0.010 sec
     gradient                   ...        0 min,  0.055 sec
 * total energy  :   -58.5463480 Eh     change       -0.6022029E-05 Eh
   gradient norm :     0.0004621 Eh/α   predicted    -0.2757500E-05 ( -54.21%)
   displ. norm   :     0.0772762 α      lambda       -0.3293866E-05
   maximum displ.:     0.0545105 α      in ANC's #1, #3, #2, ...
 * RMSD in coord.:     0.3182034 α      energy gain  -0.1100680E-01 Eh

generating ANC from model Hessian ...
Using Lindh-Hessian (1995)
 Shifting diagonal of input Hessian by   9.359310385322261E-003
 Lowest  eigenvalues of input Hessian
    0.000000    0.000000    0.000000    0.000000    0.000000    0.000000
    0.010000    0.010764    0.010951    0.011743    0.013424    0.013681
    0.016433    0.016823    0.017758    0.019056    0.019169    0.019643
 Highest eigenvalues
    1.704992    1.788199    1.856845    2.053463    2.136899    2.299848
 

........................................................................
.............................. CYCLE   21 ..............................
........................................................................
   1    -59.0831378 -0.590831E+02  0.137E-03    2.25       0.0  T
   2    -59.0831378 -0.604956E-07  0.621E-04    2.25      28.0  T
   3    -59.0831378 -0.102173E-07  0.233E-04    2.25      74.6  T
   4    -59.0831378 -0.254261E-09  0.114E-04    2.25     152.9  T
   5    -59.0831378 -0.562537E-10  0.328E-05    2.25     531.4  T
     SCC iter.                  ...        0 min,  0.010 sec
     gradient                   ...        0 min,  0.055 sec
 * total energy  :   -58.5463518 Eh     change       -0.3837761E-05 Eh
   gradient norm :     0.0005507 Eh/α   predicted     0.0000000E+00 (-100.00%)
   displ. norm   :     0.0144712 α      lambda       -0.2667826E-06
   maximum displ.:     0.0092867 α      in ANC's #1, #2, #3, ...

   *** GEOMETRY OPTIMIZATION CONVERGED AFTER 21 ITERATIONS ***

------------------------------------------------------------------------
 total energy gain   :        -0.0110106 Eh       -6.9093 kcal/mol
 total RMSD          :         0.3182034 a0        0.1684 Å
 total power (kW/mol):        -1.3765919 (step)  -14.7952 (real)
------------------------------------------------------------------------

 ANCopt (total)                0 d,  0 h,  0 min,  1.954 sec
 optimizer setup                ...        0 min,  0.001 sec (  0.037%)
 model hessian                  ...        0 min,  0.043 sec (  2.195%)
 ANC generation                 ...        0 min,  0.003 sec (  0.146%)
 coordinate transformation      ...        0 min,  0.001 sec (  0.026%)
 single point calculation       ...        0 min,  1.897 sec ( 97.111%)
 optimization log               ...        0 min,  0.005 sec (  0.241%)
 hessian update                 ...        0 min,  0.000 sec (  0.022%)
 rational function              ...        0 min,  0.002 sec (  0.121%)

================
 final structure:
================
33
 xtb: 6.5.1 (579679a)
C            3.66082153376917        2.97814908086300       -0.09871938240751
O            2.50025608816332        2.15615508545681       -0.13769213601582
C            2.70975248430606        0.82915854793766        0.00037908978511
O            3.84990593144543        0.38609478502462        0.14978982664005
C            1.50853922204153        0.01468241427919       -0.04463484043600
C            1.57971189309112       -1.34676021522111        0.04666044117895
O            2.73771819867579       -2.00991321862945        0.19229018580919
C            0.32832532096736       -2.25398910068206       -0.15419596047213
C            0.33886481761191       -3.34284725547649        0.96881229594196
O            0.19323096622012       -2.69520838933875       -1.36195579854364
N           -0.83755682786825       -1.30901037941958        0.26058304635942
C           -0.79983788845388       -0.00112916968326       -0.09873382060065
C           -2.13570980397187        0.71076396935300       -0.27470042898839
C           -2.92392073444522        0.07853151657903       -1.43052840945925
C           -2.94506334499860        0.62925960651399        1.03262441746589
N           -1.87633767956091        2.10641819727935       -0.62243742967130
N            0.28396379092863        0.68819734265742       -0.21903739408338
H            4.33371026050867        2.73353714556321       -0.92623676181017
H            3.32385540727867        4.00979113222239       -0.18803850352237
H            4.19686214120650        2.84242873949269        0.84505013751194
H            3.49083862608538       -1.37444171098990        0.22824850863542
H           -0.57138685730838       -3.93436401520726        0.89229760370202
H            0.39351099065479       -2.88444262133621        1.95486034317669
H            1.19849920067646       -3.99410459638687        0.81887488938884
H           -1.72908941029054       -1.76939230053057        0.14894095863571
H           -3.12704407712597       -0.97364198224265       -1.23452528878055
H           -3.87441487922041        0.59593067863697       -1.55527857517244
H           -2.35547018124519        0.16594756077704       -2.35748478309501
H           -3.89768529029426        1.14334096507292        0.91285116850985
H           -3.14066644701142       -0.40863442270054        1.29988360961946
H           -2.39323527767028        1.10277929444644        1.84446530137349
H           -1.27170340269618        2.51266611340487        0.08503636135811
H           -2.74924377146954        2.61404720228391       -0.60484467203285
 
 Bond Distances (Angstroems)
 ---------------------------
C1-O2=1.4227         C1-H18=1.0943        C1-H19=1.0889        C1-H20=1.0938        O2-C1=1.4227         O2-C3=1.3505         
C3-O2=1.3505         C3-O4=1.2323         C3-C5=1.4520         O4-C3=1.2323         C5-C3=1.4520         C5-C6=1.3664         
C5-N17=1.4084        C6-C5=1.3664         C6-O7=1.3424         C6-C8=1.5586         O7-C6=1.3424         O7-H21=0.9861        
C8-C6=1.5586         C8-C9=1.5642         C8-O10=1.2929        C8-N11=1.5570        C9-C8=1.5642         C9-H22=1.0883        
C9-H23=1.0888        C9-H24=1.0888        O10-C8=1.2929        N11-C8=1.5570        N11-C12=1.3569       N11-H25=1.0096       
C12-N11=1.3569       C12-C13=1.5239       C12-N17=1.2901       C13-C12=1.5239       C13-C14=1.5352       C13-C15=1.5397       
C13-N16=1.4615       C14-C13=1.5352       C14-H26=1.0894       C14-H27=1.0894       C14-H28=1.0909       C15-C13=1.5397       
C15-H29=1.0891       C15-H30=1.0895       C15-H31=1.0899       N16-C13=1.4615       N16-H32=1.0155       N16-H33=1.0099       
N17-C5=1.4084        N17-C12=1.2901       H18-C1=1.0943        H19-C1=1.0889        H20-C1=1.0938        H21-O7=0.9861        
H22-C9=1.0883        H23-C9=1.0888        H24-C9=1.0888        H25-N11=1.0096       H26-C14=1.0894       H27-C14=1.0894       
H28-C14=1.0909       H29-C15=1.0891       H30-C15=1.0895       H31-C15=1.0899       H32-N16=1.0155       H33-N16=1.0099       
 C  H  Rav=1.0901 sigma=0.0019  Rmin=1.0883  Rmax=1.0943    12
 C  C  Rav=1.5057 sigma=0.0664  Rmin=1.3664  Rmax=1.5642     7
 N  H  Rav=1.0117 sigma=0.0027  Rmin=1.0096  Rmax=1.0155     3
 N  C  Rav=1.4148 sigma=0.0910  Rmin=1.2901  Rmax=1.5570     5
 O  H  Rav=0.9861 sigma=0.0000  Rmin=0.9861  Rmax=0.9861     1
 O  C  Rav=1.3282 sigma=0.0634  Rmin=1.2323  Rmax=1.4227     5
 
 selected bond angles (degree)
 --------------------
H18-C1-O2=110.59               H19-C1-O2=107.02               H19-C1-H18=109.88              H20-C1-O2=110.59               
H20-C1-H18=108.87              H20-C1-H19=109.87              C3-O2-C1=116.00                O4-C3-O2=120.61                
C5-C3-O2=114.81                C5-C3-O4=124.58                C6-C5-C3=120.91                N17-C5-C3=117.06               
N17-C5-C6=122.01               O7-C6-C5=122.99                C8-C6-C5=121.97                C8-C6-O7=114.77                
H21-O7-C6=110.15               C9-C8-C6=107.89                O10-C8-C6=113.76               O10-C8-C9=115.71               
N11-C8-C6=102.33               N11-C8-C9=103.67               N11-C8-O10=112.19              H22-C9-C8=108.80               
H23-C9-C8=110.94               H23-C9-H22=109.54              H24-C9-C8=108.83               H24-C9-H22=109.00              
H24-C9-H23=109.69              
 
 selected dihedral angles (degree)
 ---------------------------------
C3-O2-C1-H18= 62.24           C3-O2-C1-H19=181.90           C3-O2-C1-H20=301.56           O4-C3-O2-C1=  0.00            
C5-C3-O2-C1=180.06            C6-C5-C3-O2=178.24            C6-C5-C3-O4=358.30            N17-C5-C3-O2=359.78           
N17-C5-C3-O4=179.85           O7-C6-C5-C3=  0.57            O7-C6-C5-N17=178.94           C8-C6-C5-C3=186.81            
C8-C6-C5-N17=  5.19           H21-O7-C6-C5=  0.48           H21-O7-C6-C8=174.64           C9-C8-C6-C5=224.15            
C9-C8-C6-O7= 49.92            O10-C8-C6-C5= 94.35           O10-C8-C6-O7=280.11           N11-C8-C6-C5=333.10           
N11-C8-C6-O7=158.87           H22-C9-C8-C6=175.41           H22-C9-C8-O10=304.11          H22-C9-C8-N11= 67.38          
H23-C9-C8-C6= 54.83           H23-C9-C8-O10=183.54          H23-C9-C8-N11=306.80          H24-C9-C8-C6=294.06           
H24-C9-C8-O10= 62.76          H24-C9-C8-N11=186.03          
           -------------------------------------------------
          |                Final Singlepoint                |
           -------------------------------------------------

          ...................................................
          :                      SETUP                      :
          :.................................................:
          :  # basis functions                 100          :
          :  # atomic orbitals                 100          :
          :  # shells                           66          :
          :  # electrons                        96          :
          :  # halogen bonds                     0          :
          :  max. iterations                   250          :
          :  Hamiltonian                  GFN1-xTB          :
          :  restarted?                      false          :
          :  GBSA solvation                   true          :
          :  PC potential                    false          :
          :  electronic temp.          300.0000000     K    :
          :  accuracy                    1.0000000          :
          :  -> integral cutoff          0.2500000E+02      :
          :  -> integral neglect         0.1000000E-07      :
          :  -> SCF convergence          0.1000000E-05 Eh   :
          :  -> wf. convergence          0.2000000E-04 e    :
          :  Broyden damping             0.4000000          :
          ...................................................

 iter      E             dE          RMSdq      gap      omega  full diag
   1    -59.0831378 -0.590831E+02  0.815E-06    2.25       0.0  T
   2    -59.0831378 -0.952127E-12  0.424E-06    2.25    4104.0  T
   3    -59.0831378 -0.170530E-12  0.209E-06    2.25    8330.5  T

   *** convergence criteria satisfied after 3 iterations ***

         #    Occupation            Energy/Eh            Energy/eV
      -------------------------------------------------------------
         1        2.0000           -0.8087030             -22.0059
       ...           ...                  ...                  ...
        42        2.0000           -0.4365494             -11.8791
        43        2.0000           -0.4155647             -11.3081
        44        2.0000           -0.3894987             -10.5988
        45        2.0000           -0.3864783             -10.5166
        46        2.0000           -0.3636181              -9.8946
        47        2.0000           -0.3486512              -9.4873
        48        2.0000           -0.3457458              -9.4082 (HOMO)
        49                         -0.2632080              -7.1623 (LUMO)
        50                         -0.2149295              -5.8485
        51                         -0.1322864              -3.5997
        52                         -0.1264823              -3.4418
        53                         -0.1109865              -3.0201
       ...                                ...                  ...
       100                          0.6965450              18.9540
      -------------------------------------------------------------
                  HL-Gap            0.0825378 Eh            2.2460 eV
             Fermi-level           -0.3044769 Eh           -8.2852 eV

 SCC (total)                   0 d,  0 h,  0 min,  0.087 sec
 SCC setup                      ...        0 min,  0.001 sec (  1.559%)
 Dispersion                     ...        0 min,  0.000 sec (  0.253%)
 classical contributions        ...        0 min,  0.000 sec (  0.079%)
 integral evaluation            ...        0 min,  0.024 sec ( 27.648%)
 iterations                     ...        0 min,  0.006 sec (  7.145%)
 molecular gradient             ...        0 min,  0.055 sec ( 62.680%)
 printout                       ...        0 min,  0.001 sec (  0.594%)

         :::::::::::::::::::::::::::::::::::::::::::::::::::::
         ::                     SUMMARY                     ::
         :::::::::::::::::::::::::::::::::::::::::::::::::::::
         :: total energy             -58.546351832337 Eh    ::
         :: total w/o Gsasa/hb       -58.528730916738 Eh    ::
         :: gradient norm              0.000551050294 Eh/a0 ::
         :: HOMO-LUMO gap              2.245968952361 eV    ::
         ::.................................................::
         :: SCC energy               -59.083137833623 Eh    ::
         :: -> electrostatic           0.389097095249 Eh    ::
         :: -> Gsolv                  -0.113276055037 Eh    ::
         ::    -> Gelec               -0.095655139438 Eh    ::
         ::    -> Gsasa               -0.018537067422 Eh    ::
         ::    -> Ghb                 -0.006708127181 Eh    ::
         ::    -> Gshift               0.007624279005 Eh    ::
         :: repulsion energy           0.555399126108 Eh    ::
         :: dispersion energy         -0.018613124822 Eh    ::
         :: halogen bond corr.         0.000000000000 Eh    ::
         :: add. restraining           0.000000000000 Eh    ::
         :: total charge              -1.000000000000 e     ::
         :::::::::::::::::::::::::::::::::::::::::::::::::::::

           -------------------------------------------------
          |                Property Printout                |
           -------------------------------------------------

    * Orbital Energies and Occupations

         #    Occupation            Energy/Eh            Energy/eV
      -------------------------------------------------------------
         1        2.0000           -0.8087030             -22.0059
       ...           ...                  ...                  ...
        36        2.0000           -0.4756287             -12.9425
        37        2.0000           -0.4745607             -12.9135
        38        2.0000           -0.4717126             -12.8360
        39        2.0000           -0.4628307             -12.5943
        40        2.0000           -0.4545942             -12.3701
        41        2.0000           -0.4476761             -12.1819
        42        2.0000           -0.4365494             -11.8791
        43        2.0000           -0.4155647             -11.3081
        44        2.0000           -0.3894987             -10.5988
        45        2.0000           -0.3864783             -10.5166
        46        2.0000           -0.3636181              -9.8946
        47        2.0000           -0.3486512              -9.4873
        48        2.0000           -0.3457458              -9.4082 (HOMO)
        49                         -0.2632080              -7.1623 (LUMO)
        50                         -0.2149295              -5.8485
        51                         -0.1322864              -3.5997
        52                         -0.1264823              -3.4418
        53                         -0.1109865              -3.0201
        54                         -0.1055919              -2.8733
        55                         -0.0902162              -2.4549
        56                         -0.0869194              -2.3652
        57                         -0.0651071              -1.7717
        58                         -0.0638890              -1.7385
        59                         -0.0627742              -1.7082
       ...                                ...                  ...
       100                          0.6965450              18.9540
      -------------------------------------------------------------
                  HL-Gap            0.0825378 Eh            2.2460 eV
             Fermi-level           -0.3044769 Eh           -8.2852 eV

  Mulliken/CM5 charges         n(s)   n(p)   n(d)
     1C     0.17042  0.05071   0.973  2.857  0.000
     2O    -0.42668 -0.50822   1.687  4.739  0.000
     3C     0.54373  0.60539   0.983  2.474  0.000
     4O    -0.61973 -0.68495   1.734  4.885  0.000
     5C     0.00992  0.08000   1.031  2.959  0.000
     6C     0.23306  0.26419   1.070  2.697  0.000
     7O    -0.53347 -0.72533   1.704  4.830  0.000
     8C     0.39371  0.45688   1.009  2.597  0.000
     9C    -0.12637 -0.26384   1.022  3.104  0.000
    10O    -0.81111 -0.85042   1.750  5.061  0.000
    11N    -0.41734 -0.75278   1.469  3.948  0.000
    12C     0.28738  0.43948   1.015  2.697  0.000
    13C     0.14217  0.17695   1.065  2.793  0.000
    14C    -0.09588 -0.23620   1.015  3.081  0.000
    15C    -0.11104 -0.25257   1.020  3.091  0.000
    16N    -0.51361 -0.96155   1.470  4.044  0.000
    17N    -0.46099 -0.63648   1.539  3.922  0.000
    18H     0.03791  0.09944   0.962  0.000  0.000
    19H     0.03729  0.09755   0.963  0.000  0.000
    20H     0.03952  0.10154   0.960  0.000  0.000
    21H     0.38242  0.57086   0.618  0.000  0.000
    22H     0.01957  0.07619   0.980  0.000  0.000
    23H     0.00452  0.06138   0.995  0.000  0.000
    24H     0.02203  0.07953   0.978  0.000  0.000
    25H     0.20957  0.40947   0.790  0.000  0.000
    26H     0.03103  0.08695   0.969  0.000  0.000
    27H     0.02861  0.08391   0.971  0.000  0.000
    28H     0.02987  0.08615   0.970  0.000  0.000
    29H     0.03158  0.08657   0.968  0.000  0.000
    30H     0.03181  0.08800   0.968  0.000  0.000
    31H     0.03113  0.08705   0.969  0.000  0.000
    32H     0.19839  0.39258   0.802  0.000  0.000
    33H     0.20058  0.39157   0.799  0.000  0.000

Wiberg/Mayer (AO) data.
largest (>0.10) Wiberg bond orders for each atom

 ---------------------------------------------------------------------------
     #   Z sym  total        # sym  WBO       # sym  WBO       # sym  WBO
 ---------------------------------------------------------------------------
     1   6 C    3.892 --    19 H    0.987    18 H    0.980    20 H    0.980
                             2 O    0.918
     2   8 O    2.170 --     3 C    1.068     1 C    0.918     4 O    0.106
     3   6 C    3.839 --     4 O    1.541     5 C    1.106     2 O    1.068
     4   8 O    1.897 --     3 C    1.541     2 O    0.106
     5   6 C    3.946 --     6 C    1.536     3 C    1.106    17 N    1.071
     6   6 C    3.863 --     5 C    1.536     7 O    1.107     8 C    0.900
     7   8 O    2.079 --     6 C    1.107    21 H    0.789
     8   6 C    3.925 --    10 O    1.240     9 C    0.938     6 C    0.900
                            11 N    0.778
     9   6 C    3.992 --    23 H    0.991    22 H    0.987    24 H    0.986
                             8 C    0.938
    10   8 O    1.542 --     8 C    1.240
    11   7 N    3.250 --    12 C    1.218    25 H    0.924     8 C    0.778
                            17 N    0.153
    12   6 C    3.948 --    17 N    1.602    11 N    1.218    13 C    0.971
    13   6 C    3.967 --    14 C    0.989    16 N    0.987    15 C    0.981
                            12 C    0.971
    14   6 C    3.996 --    13 C    0.989    28 H    0.986    27 H    0.986
                            26 H    0.983
    15   6 C    3.995 --    31 H    0.986    29 H    0.986    30 H    0.984
                            13 C    0.981
    16   7 N    2.956 --    13 C    0.987    33 H    0.954    32 H    0.946
    17   7 N    2.970 --    12 C    1.602     5 C    1.071    11 N    0.153
    18   1 H    1.012 --     1 C    0.980
    19   1 H    1.015 --     1 C    0.987
    20   1 H    1.013 --     1 C    0.980
    21   1 H    0.876 --     7 O    0.789
    22   1 H    1.013 --     9 C    0.987
    23   1 H    1.014 --     9 C    0.991
    24   1 H    1.016 --     9 C    0.986
    25   1 H    0.972 --    11 N    0.924
    26   1 H    1.005 --    14 C    0.983
    27   1 H    1.004 --    14 C    0.986
    28   1 H    1.010 --    14 C    0.986
    29   1 H    1.005 --    15 C    0.986
    30   1 H    1.006 --    15 C    0.984
    31   1 H    1.007 --    15 C    0.986
    32   1 H    0.983 --    16 N    0.946
    33   1 H    0.968 --    16 N    0.954
 ---------------------------------------------------------------------------

Topologies differ in total number of bonds
Writing topology from bond orders to xtbtopo.mol

 dipole moment from electron density (au)
     X       Y       Z   
  -2.4821   3.5508   2.6320  total (Debye):   12.885

           -------------------------------------------------
          |                Geometry Summary                 |
           -------------------------------------------------

      molecular mass/u    :      242.2521403
   center of mass at/Å    :        0.5039847      -0.1315338      -0.1036627
  moments of inertia/u·Å² :        0.8749163E+03   0.1291191E+04   0.1958821E+04
rotational constants/cm⁻¹ :        0.1926771E-01   0.1305588E-01   0.8606008E-02

 * 27 selected distances

     #   Z          #   Z                                           value/Å
     1   6 C        2   8 O                                       1.4227106
     2   8 O        3   6 C                                       1.3505083
     3   6 C        4   8 O                                       1.2323065
     5   6 C        6   6 C                                       1.3663553
     6   6 C        7   8 O                                       1.3423706
     8   6 C       10   8 O                                       1.2929072
    11   7 N       12   6 C                                       1.3568658
    13   6 C       14   6 C                                       1.5352306
    13   6 C       15   6 C                                       1.5397386 (max)
    13   6 C       16   7 N                                       1.4615218
    12   6 C       17   7 N                                       1.2900660
     1   6 C       18   1 H                                       1.0942575
     1   6 C       19   1 H                                       1.0889489
     1   6 C       20   1 H                                       1.0938284
     7   8 O       21   1 H                                       0.9860566 (min)
     9   6 C       22   1 H                                       1.0882577
     9   6 C       23   1 H                                       1.0887663
     9   6 C       24   1 H                                       1.0888475
    11   7 N       25   1 H                                       1.0095771
    14   6 C       26   1 H                                       1.0893785
    14   6 C       27   1 H                                       1.0893594
    14   6 C       28   1 H                                       1.0908831
    15   6 C       29   1 H                                       1.0890886
    15   6 C       30   1 H                                       1.0894550
    15   6 C       31   1 H                                       1.0898720
    16   7 N       32   1 H                                       1.0154503
    16   7 N       33   1 H                                       1.0099317

 * 6 distinct bonds (by element types)

   Z      Z             #   av. dist./Å        max./Å        min./Å
   1 H    6 C          12     1.0900786     1.0942575     1.0882577
   6 C    6 C           3     1.4804415     1.5397386     1.3663553
   1 H    7 N           3     1.0116530     1.0154503     1.0095771
   6 C    7 N           3     1.3694846     1.4615218     1.2900660
   1 H    8 O           1     0.9860566     0.9860566     0.9860566
   6 C    8 O           5     1.3281606     1.4227106     1.2323065


optimized geometry written to: xtbopt.xyz


           -------------------------------------------------
          | TOTAL ENERGY              -58.546351832337 Eh   |
          | GRADIENT NORM               0.000551050294 Eh/α |
          | HOMO-LUMO GAP               2.245968952361 eV   |
           -------------------------------------------------

------------------------------------------------------------------------
 * finished run on 2023/06/20 at 15:00:29.354     
------------------------------------------------------------------------
 total:
 * wall-time:     0 d,  0 h,  0 min,  2.289 sec
 *  cpu-time:     0 d,  0 h,  0 min,  2.165 sec
 * ratio c/w:     0.946 speedup
 SCF:
 * wall-time:     0 d,  0 h,  0 min,  0.111 sec
 *  cpu-time:     0 d,  0 h,  0 min,  0.103 sec
 * ratio c/w:     0.934 speedup
 ANC optimizer:
 * wall-time:     0 d,  0 h,  0 min,  2.058 sec
 *  cpu-time:     0 d,  0 h,  0 min,  2.022 sec
 * ratio c/w:     0.983 speedup

