      -----------------------------------------------------------      
     |                   =====================                   |     
     |                           x T B                           |     
     |                   =====================                   |     
     |                         S. Grimme                         |     
     |          Mulliken Center for Theoretical Chemistry        |     
     |                    University of Bonn                     |     
      -----------------------------------------------------------      

   * xtb version 6.5.1 (579679a) compiled by 'ehlert@majestix' on 2022-07-11

   xtb is free software: you can redistribute it and/or modify it under
   the terms of the GNU Lesser General Public License as published by
   the Free Software Foundation, either version 3 of the License, or
   (at your option) any later version.
   
   xtb is distributed in the hope that it will be useful,
   but WITHOUT ANY WARRANTY; without even the implied warranty of
   MERCHANTABILITY or FITNESS FOR A PARTICULAR PURPOSE.  See the
   GNU Lesser General Public License for more details.
   
   Cite this work as:
   * C. Bannwarth, E. Caldeweyher, S. Ehlert, A. Hansen, P. Pracht,
     J. Seibert, S. Spicher, S. Grimme, WIREs Comput. Mol. Sci., 2020, 11,
     e01493. DOI: 10.1002/wcms.1493
   
   for GFN2-xTB:
   * C. Bannwarth, S. Ehlert and S. Grimme., J. Chem. Theory Comput., 2019,
     15, 1652-1671. DOI: 10.1021/acs.jctc.8b01176
   for GFN1-xTB:
   * S. Grimme, C. Bannwarth, P. Shushkov, J. Chem. Theory Comput., 2017,
     13, 1989-2009. DOI: 10.1021/acs.jctc.7b00118
   for GFN0-xTB:
   * P. Pracht, E. Caldeweyher, S. Ehlert, S. Grimme, ChemRxiv, 2019, preprint.
     DOI: 10.26434/chemrxiv.8326202.v1
   for GFN-FF:
   * S. Spicher and S. Grimme, Angew. Chem. Int. Ed., 2020, 59, 15665-15673.
     DOI: 10.1002/anie.202004239
   
   for ALPB and GBSA implicit solvation:
   * S. Ehlert, M. Stahn, S. Spicher, S. Grimme, J. Chem. Theory Comput.,
     2021, 17, 4250-4261. DOI: 10.1021/acs.jctc.1c00471
   
   for DFT-D4:
   * E. Caldeweyher, C. Bannwarth and S. Grimme, J. Chem. Phys., 2017,
     147, 034112. DOI: 10.1063/1.4993215
   * E. Caldeweyher, S. Ehlert, A. Hansen, H. Neugebauer, S. Spicher,
     C. Bannwarth and S. Grimme, J. Chem. Phys., 2019, 150, 154122.
     DOI: 10.1063/1.5090222
   * E. Caldeweyher, J.-M. Mewes, S. Ehlert and S. Grimme, Phys. Chem. Chem. Phys.
     2020, 22, 8499-8512. DOI: 10.1039/D0CP00502A
   
   for sTDA-xTB:
   * S. Grimme and C. Bannwarth, J. Chem. Phys., 2016, 145, 054103.
     DOI: 10.1063/1.4959605
   
   in the mass-spec context:
   * V. Asgeirsson, C. Bauer and S. Grimme, Chem. Sci., 2017, 8, 4879.
     DOI: 10.1039/c7sc00601b
   * J. Koopman and S. Grimme, ACS Omega 2019, 4, 12, 15120-15133.
     DOI: 10.1021/acsomega.9b02011
   
   for metadynamics refer to:
   * S. Grimme, J. Chem. Theory Comput., 2019, 155, 2847-2862
     DOI: 10.1021/acs.jctc.9b00143
   
   for SPH calculations refer to:
   * S. Spicher and S. Grimme, J. Chem. Theory Comput., 2021, 17, 1701-1714
     DOI: 10.1021/acs.jctc.0c01306
   
   with help from (in alphabetical order)
   P. Atkinson, C. Bannwarth, F. Bohle, G. Brandenburg, E. Caldeweyher
   M. Checinski, S. Dohm, S. Ehlert, S. Ehrlich, I. Gerasimov, C. Hölzer
   A. Katbashev, J. Koopman, C. Lavigne, S. Lehtola, F. März, M. Müller,
   F. Musil, H. Neugebauer, J. Pisarek, C. Plett, P. Pracht, F. Pultar,
   J. Seibert, P. Shushkov, S. Spicher, M. Stahn, M. Steiner, T. Strunk,
   J. Stückrath, T. Rose, and J. Unsleber
   
 * started run on 2023/06/20 at 15:12:17.594     

           -------------------------------------------------
          |                Calculation Setup                |
           -------------------------------------------------

          program call               : /lustre/hpc/kemi/ree/PhD/git/ReactivityQM/dep/xtb-6.5.1/bin/xtb --gfn 1 /lustre/hpc/kemi/ree/PhD/git/ReactivityQM/calculations/R03/reac01/conf05/R03_reac01_conf05_gfn1.xyz --opt --vfukui --chrg 0 --uhf 0 --alpb DMSO
          hostname                   : node068
          coordinate file            : /lustre/hpc/kemi/ree/PhD/git/ReactivityQM/calculations/R03/reac01/conf05/R03_reac01_conf05_gfn1.xyz
          omp threads                :                     1

   ID    Z sym.   atoms
    1    7 N      1
    2    6 C      2-6, 8, 9
    3    9 F      7
    4    1 H      10-17

           -------------------------------------------------
          |                 G F N 1 - x T B                 |
           -------------------------------------------------

        Reference                      10.1021/acs.jctc.7b00118
      * Hamiltonian:
        H0-scaling (s, p, d)           1.850000    2.250000    2.000000
        zeta-weighting                 0.000000
      * Dispersion:
        s8                             2.400000
        a1                             0.630000
        a2                             5.000000
        s9                             0.000000
      * Repulsion:
        kExp                           1.500000
        rExp                           1.000000
      * Coulomb:
        alpha                          2.000000
        third order                    atomic
        anisotropic                    false
      * Halogen bond correction:
        rad-scale                      1.300000
        damping                        0.440000

      * Solvation model:               ALPB
        Solvent                        DMSO
        Parameter file                 internal GFN1-xTB/ALPB
        Dielectric constant                4.6680E+01
        Reference state                gsolv [1 M gas/solution]
        Free energy shift                  7.6243E-03 Eh       4.7843E+00 kcal/mol
        Temperature                        2.9815E+02 K
        Density                            1.1000E+00 kg/L
        Solvent mass                       7.8130E+01 g/mol
        Interaction kernel             P16
        Born radius scaling (c1)           1.7672E+00
        Born radii integrator          GBOBC
        Born offset                        0.0000E+00 a0       0.0000E+00 AA
        H-bond correction              true
        Ion screening                  false
        Surface tension                    1.0000E-05 Eh       1.5569E+01 dyn/cm
        Grid points                               230 per atom

          ...................................................
          :                      SETUP                      :
          :.................................................:
          :  # basis functions                  52          :
          :  # atomic orbitals                  52          :
          :  # shells                           34          :
          :  # electrons                        48          :
          :  # halogen bonds                     0          :
          :  max. iterations                   250          :
          :  Hamiltonian                  GFN1-xTB          :
          :  restarted?                      false          :
          :  GBSA solvation                   true          :
          :  PC potential                    false          :
          :  electronic temp.          300.0000000     K    :
          :  accuracy                    1.0000000          :
          :  -> integral cutoff          0.2500000E+02      :
          :  -> integral neglect         0.1000000E-07      :
          :  -> SCF convergence          0.1000000E-05 Eh   :
          :  -> wf. convergence          0.2000000E-04 e    :
          :  Broyden damping             0.4000000          :
          ...................................................

 iter      E             dE          RMSdq      gap      omega  full diag
   1    -27.7994945 -0.277995E+02  0.898E+00    4.00       0.0  T
   2    -27.8284756 -0.289811E-01  0.538E+00    3.83       1.0  T
   3    -27.8282426  0.232977E-03  0.535E-01    3.68       1.0  T
   4    -27.8299411 -0.169847E-02  0.117E-01    3.72       1.0  T
   5    -27.8300633 -0.122187E-03  0.283E-02    3.74       1.0  T
   6    -27.8300747 -0.114173E-04  0.486E-03    3.74       5.0  T
   7    -27.8300749 -0.217291E-06  0.454E-04    3.74      53.5  T
   8    -27.8300749 -0.127582E-08  0.169E-04    3.74     143.7  T
   9    -27.8300749 -0.778648E-10  0.561E-05    3.74     432.0  T

   *** convergence criteria satisfied after 9 iterations ***

         #    Occupation            Energy/Eh            Energy/eV
      -------------------------------------------------------------
         1        2.0000           -0.8558769             -23.2896
       ...           ...                  ...                  ...
        18        2.0000           -0.5022701             -13.6675
        19        2.0000           -0.4944690             -13.4552
        20        2.0000           -0.4824408             -13.1279
        21        2.0000           -0.4639166             -12.6238
        22        2.0000           -0.4467371             -12.1563
        23        2.0000           -0.4328357             -11.7781
        24        2.0000           -0.4027015             -10.9581 (HOMO)
        25                         -0.2653135              -7.2195 (LUMO)
        26                         -0.2606427              -7.0924
        27                         -0.1370569              -3.7295
        28                         -0.1097826              -2.9873
        29                         -0.1070503              -2.9130
       ...                                ...                  ...
        52                          0.6678201              18.1723
      -------------------------------------------------------------
                  HL-Gap            0.1373880 Eh            3.7385 eV
             Fermi-level           -0.3340075 Eh           -9.0888 eV

 SCC (total)                   0 d,  0 h,  0 min,  0.043 sec
 SCC setup                      ...        0 min,  0.001 sec (  1.260%)
 Dispersion                     ...        0 min,  0.000 sec (  0.165%)
 classical contributions        ...        0 min,  0.000 sec (  0.065%)
 integral evaluation            ...        0 min,  0.006 sec ( 13.828%)
 iterations                     ...        0 min,  0.008 sec ( 17.681%)
 molecular gradient             ...        0 min,  0.029 sec ( 66.734%)
 printout                       ...        0 min,  0.000 sec (  0.223%)

         :::::::::::::::::::::::::::::::::::::::::::::::::::::
         ::                     SUMMARY                     ::
         :::::::::::::::::::::::::::::::::::::::::::::::::::::
         :: total energy             -27.460763491396 Eh    ::
         :: total w/o Gsasa/hb       -27.450221489495 Eh    ::
         :: gradient norm              0.034030082001 Eh/a0 ::
         :: HOMO-LUMO gap              3.738518110688 eV    ::
         ::.................................................::
         :: SCC energy               -27.830074892360 Eh    ::
         :: -> electrostatic           0.040028631141 Eh    ::
         :: -> Gsolv                  -0.015450797720 Eh    ::
         ::    -> Gelec               -0.004908795820 Eh    ::
         ::    -> Gsasa               -0.013429758777 Eh    ::
         ::    -> Ghb                 -0.004736522128 Eh    ::
         ::    -> Gshift               0.007624279005 Eh    ::
         :: repulsion energy           0.377038785908 Eh    ::
         :: dispersion energy         -0.007727384944 Eh    ::
         :: halogen bond corr.         0.000000000000 Eh    ::
         :: add. restraining           0.000000000000 Eh    ::
         :: total charge              -0.000000000000 e     ::
         :::::::::::::::::::::::::::::::::::::::::::::::::::::

      ----------------------------------------------------------- 
     |                   =====================                   |
     |                        A N C O P T                        |
     |                   =====================                   |
     |               Approximate Normal Coordinate               |
     |                Rational Function Optimizer                |
      ----------------------------------------------------------- 

          ...................................................
          :                      SETUP                      :
          :.................................................:
          :   optimization level            normal          :
          :   max. optcycles                   200          :
          :   ANC micro-cycles                  20          :
          :   degrees of freedom                45          :
          :.................................................:
          :   RF solver                   davidson          :
          :   write xtbopt.log                true          :
          :   linear?                        false          :
          :   energy convergence         0.5000000E-05 Eh   :
          :   grad. convergence          0.1000000E-02 Eh/α :
          :   maximium RF displ.         1.0000000          :
          :   Hlow (freq-cutoff)         0.1000000E-01      :
          :   Hmax (freq-cutoff)         5.0000000          :
          :   S6 in model hess.         20.0000000          :
          ...................................................

generating ANC from model Hessian ...
Using Lindh-Hessian (1995)
 Shifting diagonal of input Hessian by   6.541731401141053E-003
 Lowest  eigenvalues of input Hessian
    0.000000    0.000000    0.000000    0.000000    0.000000    0.000000
    0.010000    0.010096    0.018921    0.019646    0.022971    0.030656
    0.031487    0.035252    0.053548    0.070852    0.080338    0.084492
 Highest eigenvalues
    1.480407    1.616156    1.750177    1.920750    2.027509    2.134588
 

........................................................................
.............................. CYCLE    1 ..............................
........................................................................
   1    -27.8300749 -0.278301E+02  0.106E-05    3.74       0.0  T
   2    -27.8300749 -0.671463E-12  0.373E-06    3.74    6507.3  T
   3    -27.8300749 -0.568434E-13  0.176E-06    3.74   13785.0  T
     SCC iter.                  ...        0 min,  0.001 sec
     gradient                   ...        0 min,  0.007 sec
 * total energy  :   -27.4607635 Eh     change       -0.2575717E-10 Eh
   gradient norm :     0.0340301 Eh/α   predicted     0.0000000E+00 (-100.00%)
   displ. norm   :     0.1307999 α      lambda       -0.3093542E-02
   maximum displ.:     0.0602849 α      in ANC's #24, #20, #14, ...

........................................................................
.............................. CYCLE    2 ..............................
........................................................................
   1    -27.8202405 -0.278202E+02  0.402E-02    3.70       0.0  T
   2    -27.8202567 -0.161367E-04  0.225E-02    3.70       1.1  T
   3    -27.8202581 -0.143412E-05  0.128E-02    3.70       1.9  T
   4    -27.8202582 -0.104299E-06  0.124E-03    3.70      19.6  T
   5    -27.8202582 -0.136964E-07  0.259E-04    3.70      93.6  T
   6    -27.8202582 -0.282629E-09  0.870E-05    3.70     278.7  T
   7    -27.8202582 -0.227089E-10  0.164E-05    3.70    1480.8  T
     SCC iter.                  ...        0 min,  0.002 sec
     gradient                   ...        0 min,  0.007 sec
 * total energy  :   -27.4627905 Eh     change       -0.2026985E-02 Eh
   gradient norm :     0.0148394 Eh/α   predicted    -0.1573232E-02 ( -22.39%)
   displ. norm   :     0.0908976 α      lambda       -0.5791170E-03
   maximum displ.:     0.0616691 α      in ANC's #2, #4, #1, ...

........................................................................
.............................. CYCLE    3 ..............................
........................................................................
   1    -27.8176036 -0.278176E+02  0.239E-02    3.70       0.0  T
   2    -27.8176087 -0.505323E-05  0.116E-02    3.70       2.1  T
   3    -27.8176091 -0.420059E-06  0.658E-03    3.70       3.7  T
   4    -27.8176091 -0.498129E-07  0.993E-04    3.70      24.4  T
   5    -27.8176091 -0.224400E-08  0.156E-04    3.70     155.8  T
   6    -27.8176091 -0.662901E-10  0.535E-05    3.70     453.5  T
     SCC iter.                  ...        0 min,  0.002 sec
     gradient                   ...        0 min,  0.007 sec
 * total energy  :   -27.4631107 Eh     change       -0.3202295E-03 Eh
   gradient norm :     0.0043721 Eh/α   predicted    -0.2919510E-03 (  -8.83%)
   displ. norm   :     0.0467795 α      lambda       -0.3837602E-04
   maximum displ.:     0.0413520 α      in ANC's #2, #1, #4, ...

........................................................................
.............................. CYCLE    4 ..............................
........................................................................
   1    -27.8181735 -0.278182E+02  0.541E-03    3.70       0.0  T
   2    -27.8181736 -0.117968E-06  0.264E-03    3.70       9.2  T
   3    -27.8181736 -0.439124E-08  0.961E-04    3.70      25.2  T
   4    -27.8181736 -0.124498E-09  0.138E-04    3.70     175.6  T
   5    -27.8181736 -0.654019E-10  0.369E-05    3.70     658.0  T
     SCC iter.                  ...        0 min,  0.002 sec
     gradient                   ...        0 min,  0.007 sec
 * total energy  :   -27.4631391 Eh     change       -0.2835352E-04 Eh
   gradient norm :     0.0018965 Eh/α   predicted    -0.1923057E-04 ( -32.18%)
   displ. norm   :     0.0702903 α      lambda       -0.2091093E-04
   maximum displ.:     0.0621126 α      in ANC's #2, #1, #4, ...

........................................................................
.............................. CYCLE    5 ..............................
........................................................................
   1    -27.8191450 -0.278191E+02  0.695E-03    3.71       0.0  T
   2    -27.8191456 -0.566054E-06  0.360E-03    3.71       6.7  T
   3    -27.8191456 -0.330146E-07  0.180E-03    3.71      13.5  T
   4    -27.8191456 -0.266218E-08  0.602E-04    3.71      40.3  T
   5    -27.8191456 -0.845372E-09  0.100E-04    3.71     241.9  T
   6    -27.8191456 -0.814069E-10  0.178E-05    3.71    1361.2  T
     SCC iter.                  ...        0 min,  0.003 sec
     gradient                   ...        0 min,  0.012 sec
 * total energy  :   -27.4631556 Eh     change       -0.1649229E-04 Eh
   gradient norm :     0.0017236 Eh/α   predicted    -0.1047846E-04 ( -36.46%)
   displ. norm   :     0.0191297 α      lambda       -0.3302500E-05
   maximum displ.:     0.0183762 α      in ANC's #2, #6, #1, ...

........................................................................
.............................. CYCLE    6 ..............................
........................................................................
   1    -27.8188812 -0.278189E+02  0.117E-03    3.71       0.0  T
   2    -27.8188812 -0.766062E-08  0.374E-04    3.71      64.8  T
   3    -27.8188812 -0.366338E-09  0.222E-04    3.71     109.5  T
   4    -27.8188812 -0.986304E-10  0.689E-05    3.71     352.1  T
   5    -27.8188812 -0.232703E-11  0.141E-05    3.71    1723.5  T
     SCC iter.                  ...        0 min,  0.003 sec
     gradient                   ...        0 min,  0.012 sec
 * total energy  :   -27.4631593 Eh     change       -0.3758975E-05 Eh
   gradient norm :     0.0008173 Eh/α   predicted    -0.1651985E-05 ( -56.05%)
   displ. norm   :     0.0184454 α      lambda       -0.1917665E-05
   maximum displ.:     0.0171213 α      in ANC's #2, #6, #3, ...

   *** GEOMETRY OPTIMIZATION CONVERGED AFTER 6 ITERATIONS ***

------------------------------------------------------------------------
 total energy gain   :        -0.0023958 Eh       -1.5034 kcal/mol
 total RMSD          :         0.0746599 a0        0.0395 Å
 total power (kW/mol):        -1.0483703 (step)  -64.8421 (real)
------------------------------------------------------------------------

 ANCopt (total)                0 d,  0 h,  0 min,  0.097 sec
 optimizer setup                ...        0 min,  0.000 sec (  0.510%)
 model hessian                  ...        0 min,  0.002 sec (  2.179%)
 ANC generation                 ...        0 min,  0.000 sec (  0.297%)
 coordinate transformation      ...        0 min,  0.000 sec (  0.030%)
 single point calculation       ...        0 min,  0.092 sec ( 95.048%)
 optimization log               ...        0 min,  0.001 sec (  1.116%)
 hessian update                 ...        0 min,  0.000 sec (  0.039%)
 rational function              ...        0 min,  0.001 sec (  0.604%)

================
 final structure:
================
17
 xtb: 6.5.1 (579679a)
N           -2.57718521936415        0.29829090561526        0.76521095594982
C           -1.90641343629637       -0.15549128479129       -0.45458029779227
C           -0.40151381970571       -0.10681308355730       -0.29692962267649
C            0.28980787866202        1.08561135305814       -0.50765162241817
C            1.66460386851219        1.15270027812178       -0.32820711042145
C            2.32911135323046        0.00627578783696        0.06798399110877
F            3.66241908828944        0.05933654041004        0.24001478873947
C            1.67870234644474       -1.19337374089955        0.29117569879471
C            0.30324467415052       -1.23952699105893        0.10655422374626
H           -2.29250989628322        1.24969984359346        0.96002477929450
H           -2.26656197710971       -0.27338103908666        1.54035357759490
H           -2.22337943364546        0.48939204697953       -1.28016246415213
H           -2.23221682907313       -1.17853015880658       -0.66691618724660
H           -0.24898982359247        1.97208630882416       -0.82156176796827
H            2.21024017721431        2.07240138113420       -0.49412919176716
H            2.23523469603474       -2.06765080582564        0.60234666770698
H           -0.22459664746821       -2.17102534154745        0.27647258150704
 
 Bond Distances (Angstroems)
 ---------------------------
N1-C2=1.4642         N1-H10=1.0120        N1-H11=1.0120        C2-N1=1.4642         C2-C3=1.5139         C2-H12=1.0945        
C2-H13=1.0945        C3-C2=1.5139         C3-C4=1.3943         C3-C9=1.3937         C4-C3=1.3943         C4-C5=1.3881         
C4-H14=1.0838        C5-C4=1.3881         C5-C6=1.3830         C5-H15=1.0822        C6-C5=1.3830         C6-F7=1.3454         
C6-C8=1.3828         F7-C6=1.3454         C8-C6=1.3828         C8-C9=1.3886         C8-H16=1.0821        C9-C3=1.3937         
C9-C8=1.3886         C9-H17=1.0841        H10-N1=1.0120        H11-N1=1.0120        H12-C2=1.0945        H13-C2=1.0945        
H14-C4=1.0838        H15-C5=1.0822        H16-C8=1.0821        H17-C9=1.0841        
 C  H  Rav=1.0869 sigma=0.0054  Rmin=1.0821  Rmax=1.0945     6
 C  C  Rav=1.4064 sigma=0.0441  Rmin=1.3828  Rmax=1.5139     7
 N  H  Rav=1.0120 sigma=0.0000  Rmin=1.0120  Rmax=1.0120     2
 N  C  Rav=1.4642 sigma=0.0000  Rmin=1.4642  Rmax=1.4642     1
 F  C  Rav=1.3454 sigma=0.0000  Rmin=1.3454  Rmax=1.3454     1
 
 selected bond angles (degree)
 --------------------
H10-N1-C2=108.84               H11-N1-C2=108.81               H11-N1-H10=107.29              C3-C2-N1=111.02                
H12-C2-N1=108.25               H12-C2-C3=110.33               H13-C2-N1=108.36               H13-C2-C3=110.25               
H13-C2-H12=108.55              C4-C3-C2=120.31                C9-C3-C2=120.44                C9-C3-C4=119.21                
C5-C4-C3=120.85                H14-C4-C3=119.79               H14-C4-C5=119.36               C6-C5-C4=118.22                
H15-C5-C4=121.37               H15-C5-C6=120.41               F7-C6-C5=118.69                C8-C6-C5=122.64                
C8-C6-F7=118.67                C9-C8-C6=118.25                H16-C8-C6=120.36               H16-C8-C9=121.39               
C8-C9-C3=120.82                H17-C9-C3=119.84               H17-C9-C8=119.34               
 
 selected dihedral angles (degree)
 ---------------------------------
C3-C2-N1-H10= 59.70           C3-C2-N1-H11=303.09           H12-C2-N1-H10=298.46          H12-C2-N1-H11=181.84          
H13-C2-N1-H10=180.92          H13-C2-N1-H11= 64.30          C4-C3-C2-N1=276.63            C4-C3-C2-H12= 36.63           
C4-C3-C2-H13=156.53           C9-C3-C2-N1= 94.32            C9-C3-C2-H12=214.33           C9-C3-C2-H13=334.23           
C5-C4-C3-C2=178.10            C5-C4-C3-C9=  0.38            H14-C4-C3-C2=357.72           H14-C4-C3-C9=180.00           
C6-C5-C4-C3=359.85            C6-C5-C4-H14=180.23           H15-C5-C4-C3=179.69           H15-C5-C4-H14=  0.07          
F7-C6-C5-C4=179.76            F7-C6-C5-H15=359.92           C8-C6-C5-C4=359.93            C8-C6-C5-H15=180.09           
C9-C8-C6-C5=  0.05            C9-C8-C6-F7=180.22            H16-C8-C6-C5=180.11           H16-C8-C6-F7=  0.28           
C8-C9-C3-C2=181.88            C8-C9-C3-C4=359.60            H17-C9-C3-C2=  2.08           H17-C9-C3-C4=179.80           
C3-C9-C8-C6=  0.19            C3-C9-C8-H16=180.12           H17-C9-C8-C6=179.99           H17-C9-C8-H16=359.93          
           -------------------------------------------------
          |                Final Singlepoint                |
           -------------------------------------------------

          ...................................................
          :                      SETUP                      :
          :.................................................:
          :  # basis functions                  52          :
          :  # atomic orbitals                  52          :
          :  # shells                           34          :
          :  # electrons                        48          :
          :  # halogen bonds                     0          :
          :  max. iterations                   250          :
          :  Hamiltonian                  GFN1-xTB          :
          :  restarted?                      false          :
          :  GBSA solvation                   true          :
          :  PC potential                    false          :
          :  electronic temp.          300.0000000     K    :
          :  accuracy                    1.0000000          :
          :  -> integral cutoff          0.2500000E+02      :
          :  -> integral neglect         0.1000000E-07      :
          :  -> SCF convergence          0.1000000E-05 Eh   :
          :  -> wf. convergence          0.2000000E-04 e    :
          :  Broyden damping             0.4000000          :
          ...................................................

 iter      E             dE          RMSdq      gap      omega  full diag
   1    -27.8188812 -0.278189E+02  0.351E-06    3.71       0.0  T
   2    -27.8188812 -0.603961E-13  0.189E-06    3.71   12832.1  T
   3    -27.8188812  0.000000E+00  0.326E-07    3.71   74413.9  T

   *** convergence criteria satisfied after 3 iterations ***

         #    Occupation            Energy/Eh            Energy/eV
      -------------------------------------------------------------
         1        2.0000           -0.8585529             -23.3624
       ...           ...                  ...                  ...
        18        2.0000           -0.5003180             -13.6143
        19        2.0000           -0.4925771             -13.4037
        20        2.0000           -0.4843646             -13.1802
        21        2.0000           -0.4669009             -12.7050
        22        2.0000           -0.4456284             -12.1262
        23        2.0000           -0.4318476             -11.7512
        24        2.0000           -0.4040726             -10.9954 (HOMO)
        25                         -0.2678707              -7.2891 (LUMO)
        26                         -0.2598545              -7.0710
        27                         -0.1398796              -3.8063
        28                         -0.1092281              -2.9722
        29                         -0.1069653              -2.9107
       ...                                ...                  ...
        52                          0.6505053              17.7011
      -------------------------------------------------------------
                  HL-Gap            0.1362019 Eh            3.7062 eV
             Fermi-level           -0.3359717 Eh           -9.1423 eV

 SCC (total)                   0 d,  0 h,  0 min,  0.019 sec
 SCC setup                      ...        0 min,  0.000 sec (  2.638%)
 Dispersion                     ...        0 min,  0.000 sec (  0.307%)
 classical contributions        ...        0 min,  0.000 sec (  0.112%)
 integral evaluation            ...        0 min,  0.006 sec ( 33.707%)
 iterations                     ...        0 min,  0.001 sec (  7.757%)
 molecular gradient             ...        0 min,  0.010 sec ( 54.575%)
 printout                       ...        0 min,  0.000 sec (  0.799%)

         :::::::::::::::::::::::::::::::::::::::::::::::::::::
         ::                     SUMMARY                     ::
         :::::::::::::::::::::::::::::::::::::::::::::::::::::
         :: total energy             -27.463159310323 Eh    ::
         :: total w/o Gsasa/hb       -27.452767036529 Eh    ::
         :: gradient norm              0.000819195551 Eh/a0 ::
         :: HOMO-LUMO gap              3.706242736052 eV    ::
         ::.................................................::
         :: SCC energy               -27.818881210204 Eh    ::
         :: -> electrostatic           0.039713892478 Eh    ::
         :: -> Gsolv                  -0.015244660582 Eh    ::
         ::    -> Gelec               -0.004852386788 Eh    ::
         ::    -> Gsasa               -0.013463664150 Eh    ::
         ::    -> Ghb                 -0.004552888649 Eh    ::
         ::    -> Gshift               0.007624279005 Eh    ::
         :: repulsion energy           0.363461895285 Eh    ::
         :: dispersion energy         -0.007739995404 Eh    ::
         :: halogen bond corr.         0.000000000000 Eh    ::
         :: add. restraining           0.000000000000 Eh    ::
         :: total charge              -0.000000000000 e     ::
         :::::::::::::::::::::::::::::::::::::::::::::::::::::

           -------------------------------------------------
          |                Property Printout                |
           -------------------------------------------------

    * Orbital Energies and Occupations

         #    Occupation            Energy/Eh            Energy/eV
      -------------------------------------------------------------
         1        2.0000           -0.8585529             -23.3624
       ...           ...                  ...                  ...
        12        2.0000           -0.5567904             -15.1510
        13        2.0000           -0.5529825             -15.0474
        14        2.0000           -0.5362001             -14.5907
        15        2.0000           -0.5307124             -14.4414
        16        2.0000           -0.5244831             -14.2719
        17        2.0000           -0.5187901             -14.1170
        18        2.0000           -0.5003180             -13.6143
        19        2.0000           -0.4925771             -13.4037
        20        2.0000           -0.4843646             -13.1802
        21        2.0000           -0.4669009             -12.7050
        22        2.0000           -0.4456284             -12.1262
        23        2.0000           -0.4318476             -11.7512
        24        2.0000           -0.4040726             -10.9954 (HOMO)
        25                         -0.2678707              -7.2891 (LUMO)
        26                         -0.2598545              -7.0710
        27                         -0.1398796              -3.8063
        28                         -0.1092281              -2.9722
        29                         -0.1069653              -2.9107
        30                         -0.0948530              -2.5811
        31                         -0.0901431              -2.4529
        32                         -0.0886587              -2.4125
        33                         -0.0676746              -1.8415
        34                         -0.0471999              -1.2844
        35                         -0.0237240              -0.6456
       ...                                ...                  ...
        52                          0.6505053              17.7011
      -------------------------------------------------------------
                  HL-Gap            0.1362019 Eh            3.7062 eV
             Fermi-level           -0.3359717 Eh           -9.1423 eV

  Mulliken/CM5 charges         n(s)   n(p)   n(d)
     1N    -0.51297 -0.96616   1.475  4.038  0.000
     2C     0.08604  0.03556   1.007  2.907  0.000
     3C    -0.01631 -0.02777   1.092  2.924  0.000
     4C    -0.03139 -0.08437   1.062  2.969  0.000
     5C    -0.06757 -0.11854   1.058  3.009  0.000
     6C     0.24187  0.25298   1.045  2.713  0.000
     7F    -0.27871 -0.30272   1.831  5.448  0.000
     8C    -0.06766 -0.11863   1.058  3.009  0.000
     9C    -0.03214 -0.08520   1.063  2.970  0.000
    10H     0.21127  0.40016   0.789  0.000  0.000
    11H     0.21206  0.40093   0.788  0.000  0.000
    12H     0.02811  0.09277   0.972  0.000  0.000
    13H     0.02673  0.09146   0.973  0.000  0.000
    14H     0.04380  0.10126   0.956  0.000  0.000
    15H     0.05672  0.11382   0.943  0.000  0.000
    16H     0.05659  0.11370   0.943  0.000  0.000
    17H     0.04356  0.10075   0.956  0.000  0.000

Wiberg/Mayer (AO) data.
largest (>0.10) Wiberg bond orders for each atom

 ---------------------------------------------------------------------------
     #   Z sym  total        # sym  WBO       # sym  WBO       # sym  WBO
 ---------------------------------------------------------------------------
     1   7 N    2.956 --     2 C    0.987    10 H    0.949    11 H    0.949
     2   6 C    3.979 --     3 C    0.997     1 N    0.987    13 H    0.980
                            12 H    0.978
     3   6 C    3.988 --     9 C    1.416     4 C    1.413     2 C    0.997
     4   6 C    3.994 --     5 C    1.445     3 C    1.413    14 H    0.972
                             8 C    0.110
     5   6 C    3.992 --     4 C    1.445     6 C    1.400    15 H    0.970
                             9 C    0.110
     6   6 C    3.860 --     8 C    1.402     5 C    1.400     7 F    0.920
     7   9 F    1.047 --     6 C    0.920
     8   6 C    3.992 --     9 C    1.442     6 C    1.402    16 H    0.970
                             4 C    0.110
     9   6 C    3.994 --     8 C    1.442     3 C    1.416    17 H    0.972
                             5 C    0.110
    10   1 H    0.964 --     1 N    0.949
    11   1 H    0.963 --     1 N    0.949
    12   1 H    1.010 --     2 C    0.978
    13   1 H    1.010 --     2 C    0.980
    14   1 H    1.000 --     4 C    0.972
    15   1 H    0.999 --     5 C    0.970
    16   1 H    0.999 --     8 C    0.970
    17   1 H    1.000 --     9 C    0.972
 ---------------------------------------------------------------------------

Topologies differ in total number of bonds
Writing topology from bond orders to xtbtopo.mol

 dipole moment from electron density (au)
     X       Y       Z   
  -0.2999   0.0762   0.1302  total (Debye):    0.853

           -------------------------------------------------
          |                Geometry Summary                 |
           -------------------------------------------------

      molecular mass/u    :      125.1437837
   center of mass at/Å    :        0.6067615      -0.0001051       0.0153698
  moments of inertia/u·Å² :        0.1131508E+03   0.5338205E+03   0.6041039E+03
rotational constants/cm⁻¹ :        0.1489837E+00   0.3157922E-01   0.2790519E-01

 * 15 selected distances

     #   Z          #   Z                                           value/Å
     1   7 N        2   6 C                                       1.4641531 (max)
     3   6 C        4   6 C                                       1.3943478
     4   6 C        5   6 C                                       1.3880798
     5   6 C        6   6 C                                       1.3830499
     6   6 C        8   6 C                                       1.3827530
     3   6 C        9   6 C                                       1.3937449
     8   6 C        9   6 C                                       1.3885602
     1   7 N       10   1 H                                       1.0120136
     1   7 N       11   1 H                                       1.0119990 (min)
     2   6 C       12   1 H                                       1.0944990
     2   6 C       13   1 H                                       1.0944602
     4   6 C       14   1 H                                       1.0838268
     5   6 C       15   1 H                                       1.0821735
     8   6 C       16   1 H                                       1.0820888
     9   6 C       17   1 H                                       1.0840563

 * 4 distinct bonds (by element types)

   Z      Z             #   av. dist./Å        max./Å        min./Å
   1 H    6 C           6     1.0868508     1.0944990     1.0820888
   6 C    6 C           6     1.3884226     1.3943478     1.3827530
   1 H    7 N           2     1.0120063     1.0120136     1.0119990
   6 C    7 N           1     1.4641531     1.4641531     1.4641531


optimized geometry written to: xtbopt.xyz


           -------------------------------------------------
          | TOTAL ENERGY              -27.463159310323 Eh   |
          | GRADIENT NORM               0.000819195551 Eh/α |
          | HOMO-LUMO GAP               3.706242736052 eV   |
           -------------------------------------------------

------------------------------------------------------------------------
 * finished run on 2023/06/20 at 15:12:17.810     
------------------------------------------------------------------------
 total:
 * wall-time:     0 d,  0 h,  0 min,  0.216 sec
 *  cpu-time:     0 d,  0 h,  0 min,  0.156 sec
 * ratio c/w:     0.724 speedup
 SCF:
 * wall-time:     0 d,  0 h,  0 min,  0.043 sec
 *  cpu-time:     0 d,  0 h,  0 min,  0.023 sec
 * ratio c/w:     0.541 speedup
 ANC optimizer:
 * wall-time:     0 d,  0 h,  0 min,  0.119 sec
 *  cpu-time:     0 d,  0 h,  0 min,  0.116 sec
 * ratio c/w:     0.973 speedup

