      -----------------------------------------------------------      
     |                   =====================                   |     
     |                           x T B                           |     
     |                   =====================                   |     
     |                         S. Grimme                         |     
     |          Mulliken Center for Theoretical Chemistry        |     
     |                    University of Bonn                     |     
      -----------------------------------------------------------      

   * xtb version 6.5.1 (579679a) compiled by 'ehlert@majestix' on 2022-07-11

   xtb is free software: you can redistribute it and/or modify it under
   the terms of the GNU Lesser General Public License as published by
   the Free Software Foundation, either version 3 of the License, or
   (at your option) any later version.
   
   xtb is distributed in the hope that it will be useful,
   but WITHOUT ANY WARRANTY; without even the implied warranty of
   MERCHANTABILITY or FITNESS FOR A PARTICULAR PURPOSE.  See the
   GNU Lesser General Public License for more details.
   
   Cite this work as:
   * C. Bannwarth, E. Caldeweyher, S. Ehlert, A. Hansen, P. Pracht,
     J. Seibert, S. Spicher, S. Grimme, WIREs Comput. Mol. Sci., 2020, 11,
     e01493. DOI: 10.1002/wcms.1493
   
   for GFN2-xTB:
   * C. Bannwarth, S. Ehlert and S. Grimme., J. Chem. Theory Comput., 2019,
     15, 1652-1671. DOI: 10.1021/acs.jctc.8b01176
   for GFN1-xTB:
   * S. Grimme, C. Bannwarth, P. Shushkov, J. Chem. Theory Comput., 2017,
     13, 1989-2009. DOI: 10.1021/acs.jctc.7b00118
   for GFN0-xTB:
   * P. Pracht, E. Caldeweyher, S. Ehlert, S. Grimme, ChemRxiv, 2019, preprint.
     DOI: 10.26434/chemrxiv.8326202.v1
   for GFN-FF:
   * S. Spicher and S. Grimme, Angew. Chem. Int. Ed., 2020, 59, 15665-15673.
     DOI: 10.1002/anie.202004239
   
   for ALPB and GBSA implicit solvation:
   * S. Ehlert, M. Stahn, S. Spicher, S. Grimme, J. Chem. Theory Comput.,
     2021, 17, 4250-4261. DOI: 10.1021/acs.jctc.1c00471
   
   for DFT-D4:
   * E. Caldeweyher, C. Bannwarth and S. Grimme, J. Chem. Phys., 2017,
     147, 034112. DOI: 10.1063/1.4993215
   * E. Caldeweyher, S. Ehlert, A. Hansen, H. Neugebauer, S. Spicher,
     C. Bannwarth and S. Grimme, J. Chem. Phys., 2019, 150, 154122.
     DOI: 10.1063/1.5090222
   * E. Caldeweyher, J.-M. Mewes, S. Ehlert and S. Grimme, Phys. Chem. Chem. Phys.
     2020, 22, 8499-8512. DOI: 10.1039/D0CP00502A
   
   for sTDA-xTB:
   * S. Grimme and C. Bannwarth, J. Chem. Phys., 2016, 145, 054103.
     DOI: 10.1063/1.4959605
   
   in the mass-spec context:
   * V. Asgeirsson, C. Bauer and S. Grimme, Chem. Sci., 2017, 8, 4879.
     DOI: 10.1039/c7sc00601b
   * J. Koopman and S. Grimme, ACS Omega 2019, 4, 12, 15120-15133.
     DOI: 10.1021/acsomega.9b02011
   
   for metadynamics refer to:
   * S. Grimme, J. Chem. Theory Comput., 2019, 155, 2847-2862
     DOI: 10.1021/acs.jctc.9b00143
   
   for SPH calculations refer to:
   * S. Spicher and S. Grimme, J. Chem. Theory Comput., 2021, 17, 1701-1714
     DOI: 10.1021/acs.jctc.0c01306
   
   with help from (in alphabetical order)
   P. Atkinson, C. Bannwarth, F. Bohle, G. Brandenburg, E. Caldeweyher
   M. Checinski, S. Dohm, S. Ehlert, S. Ehrlich, I. Gerasimov, C. Hölzer
   A. Katbashev, J. Koopman, C. Lavigne, S. Lehtola, F. März, M. Müller,
   F. Musil, H. Neugebauer, J. Pisarek, C. Plett, P. Pracht, F. Pultar,
   J. Seibert, P. Shushkov, S. Spicher, M. Stahn, M. Steiner, T. Strunk,
   J. Stückrath, T. Rose, and J. Unsleber
   
 * started run on 2023/06/21 at 17:28:25.595     

           -------------------------------------------------
          |                Calculation Setup                |
           -------------------------------------------------

          program call               : /lustre/hpc/kemi/ree/PhD/git/ReactivityQM/dep/xtb-6.5.1/bin/xtb --gfn 1 /lustre/hpc/kemi/ree/PhD/git/ReactivityQM/calculations/R02methylcation/reac01prodE14/conf11/R02methylcation_reac01prodE14_conf11_gfn1.xyz --opt --vfukui --chrg -2 --uhf 0 --alpb DMSO
          hostname                   : node317
          coordinate file            : /lustre/hpc/kemi/ree/PhD/git/ReactivityQM/calculations/R02methylcation/reac01prodE14/conf11/R02methylcation_reac01prodE14_conf11_gfn1.xyz
          omp threads                :                     1

   ID    Z sym.   atoms
    1    6 C      1, 3, 5, 7-10, 12, 14, 17, 18, 21, 23, 24
    2    8 O      2, 4, 13, 19, 22, 25
    3    7 N      6, 11, 15, 16, 20
    4    1 H      26-42

           -------------------------------------------------
          |                 G F N 1 - x T B                 |
           -------------------------------------------------

        Reference                      10.1021/acs.jctc.7b00118
      * Hamiltonian:
        H0-scaling (s, p, d)           1.850000    2.250000    2.000000
        zeta-weighting                 0.000000
      * Dispersion:
        s8                             2.400000
        a1                             0.630000
        a2                             5.000000
        s9                             0.000000
      * Repulsion:
        kExp                           1.500000
        rExp                           1.000000
      * Coulomb:
        alpha                          2.000000
        third order                    atomic
        anisotropic                    false
      * Halogen bond correction:
        rad-scale                      1.300000
        damping                        0.440000

      * Solvation model:               ALPB
        Solvent                        DMSO
        Parameter file                 internal GFN1-xTB/ALPB
        Dielectric constant                4.6680E+01
        Reference state                gsolv [1 M gas/solution]
        Free energy shift                  7.6243E-03 Eh       4.7843E+00 kcal/mol
        Temperature                        2.9815E+02 K
        Density                            1.1000E+00 kg/L
        Solvent mass                       7.8130E+01 g/mol
        Interaction kernel             P16
        Born radius scaling (c1)           1.7672E+00
        Born radii integrator          GBOBC
        Born offset                        0.0000E+00 a0       0.0000E+00 AA
        H-bond correction              true
        Ion screening                  false
        Surface tension                    1.0000E-05 Eh       1.5569E+01 dyn/cm
        Grid points                               230 per atom

          ...................................................
          :                      SETUP                      :
          :.................................................:
          :  # basis functions                 134          :
          :  # atomic orbitals                 134          :
          :  # shells                           84          :
          :  # electrons                       136          :
          :  # halogen bonds                     0          :
          :  max. iterations                   250          :
          :  Hamiltonian                  GFN1-xTB          :
          :  restarted?                      false          :
          :  GBSA solvation                   true          :
          :  PC potential                    false          :
          :  electronic temp.          300.0000000     K    :
          :  accuracy                    1.0000000          :
          :  -> integral cutoff          0.2500000E+02      :
          :  -> integral neglect         0.1000000E-07      :
          :  -> SCF convergence          0.1000000E-05 Eh   :
          :  -> wf. convergence          0.2000000E-04 e    :
          :  Broyden damping             0.4000000          :
          ...................................................

 iter      E             dE          RMSdq      gap      omega  full diag
   1    -83.9762890 -0.839763E+02  0.871E+00    1.92       0.0  T
   2    -84.2755146 -0.299226E+00  0.520E+00    0.35       1.0  T
   3    -83.6865885  0.588926E+00  0.305E+00    0.13       1.0  T
   4    -84.2288838 -0.542295E+00  0.134E+00    1.78       1.0  T
   5    -84.2856947 -0.568109E-01  0.643E-01    0.74       1.0  T
   6    -84.2940018 -0.830709E-02  0.444E-01    0.39       1.0  T
   7    -84.2647234  0.292785E-01  0.649E-01    0.10       1.0  T
   8    -84.2360893  0.286341E-01  0.816E-01    0.10       1.0  T
   9    -84.0653757  0.170714E+00  0.141E+00    0.16       1.0  T
  10    -84.2635173 -0.198142E+00  0.619E-01    0.09       1.0  T
  11    -84.2982425 -0.347252E-01  0.286E-01    0.10       1.0  T
  12    -84.2977901  0.452386E-03  0.278E-01    0.10       1.0  T
  13    -84.3067969 -0.900672E-02  0.648E-02    0.14       1.0  T
  14    -84.3057912  0.100563E-02  0.104E-01    0.12       1.0  T
  15    -84.3066067 -0.815448E-03  0.615E-02    0.12       1.0  T
  16    -84.3069493 -0.342636E-03  0.289E-02    0.13       1.0  T
  17    -84.3070182 -0.688540E-04  0.149E-02    0.13       1.0  T
  18    -84.3070371 -0.189072E-04  0.628E-03    0.13       2.5  T
  19    -84.3070407 -0.366003E-05  0.248E-03    0.14       6.2  T
  20    -84.3070414 -0.630324E-06  0.113E-03    0.14      13.7  T
  21    -84.3070415 -0.114078E-06  0.424E-04    0.14      36.4  T
  22    -84.3070415 -0.194894E-07  0.839E-05    0.14     183.9  T
  23    -84.3070415 -0.630706E-09  0.321E-05    0.14     480.8  T

   *** convergence criteria satisfied after 23 iterations ***

         #    Occupation            Energy/Eh            Energy/eV
      -------------------------------------------------------------
         1        2.0000           -0.8291756             -22.5630
       ...           ...                  ...                  ...
        62        2.0000           -0.4026304             -10.9561
        63        2.0000           -0.3954524             -10.7608
        64        2.0000           -0.3844754             -10.4621
        65        2.0000           -0.3729177             -10.1476
        66        2.0000           -0.3019600              -8.2167
        67        2.0000           -0.2988109              -8.1311
        68        1.8639           -0.2903117              -7.8998 (HOMO)
        69        0.1362           -0.2853398              -7.7645 (LUMO)
        70                         -0.2352327              -6.4010
        71                         -0.2170924              -5.9074
        72                         -0.1718179              -4.6754
        73                         -0.1666669              -4.5352
       ...                                ...                  ...
       134                          0.7520637              20.4647
      -------------------------------------------------------------
                  HL-Gap            0.0049719 Eh            0.1353 eV
             Fermi-level           -0.2878257 Eh           -7.8321 eV

 SCC (total)                   0 d,  0 h,  0 min,  0.242 sec
 SCC setup                      ...        0 min,  0.002 sec (  0.659%)
 Dispersion                     ...        0 min,  0.000 sec (  0.120%)
 classical contributions        ...        0 min,  0.000 sec (  0.043%)
 integral evaluation            ...        0 min,  0.029 sec ( 11.899%)
 iterations                     ...        0 min,  0.129 sec ( 53.118%)
 molecular gradient             ...        0 min,  0.082 sec ( 33.774%)
 printout                       ...        0 min,  0.001 sec (  0.367%)

         :::::::::::::::::::::::::::::::::::::::::::::::::::::
         ::                     SUMMARY                     ::
         :::::::::::::::::::::::::::::::::::::::::::::::::::::
         :: total energy             -83.582342490143 Eh    ::
         :: total w/o Gsasa/hb       -83.563462388824 Eh    ::
         :: gradient norm              0.146174624576 Eh/a0 ::
         :: HOMO-LUMO gap              0.135291596108 eV    ::
         ::.................................................::
         :: SCC energy               -84.307041503129 Eh    ::
         :: -> electrostatic           0.739125172451 Eh    ::
         :: -> Gsolv                  -0.294262331841 Eh    ::
         ::    -> Gelec               -0.275382230523 Eh    ::
         ::    -> Gsasa               -0.024062174611 Eh    ::
         ::    -> Ghb                 -0.002442205712 Eh    ::
         ::    -> Gshift               0.007624279005 Eh    ::
         :: repulsion energy           0.750683413361 Eh    ::
         :: dispersion energy         -0.025984400375 Eh    ::
         :: halogen bond corr.         0.000000000000 Eh    ::
         :: add. restraining           0.000000000000 Eh    ::
         :: total charge              -2.000000000000 e     ::
         :::::::::::::::::::::::::::::::::::::::::::::::::::::

      ----------------------------------------------------------- 
     |                   =====================                   |
     |                        A N C O P T                        |
     |                   =====================                   |
     |               Approximate Normal Coordinate               |
     |                Rational Function Optimizer                |
      ----------------------------------------------------------- 

          ...................................................
          :                      SETUP                      :
          :.................................................:
          :   optimization level            normal          :
          :   max. optcycles                   200          :
          :   ANC micro-cycles                  20          :
          :   degrees of freedom               120          :
          :.................................................:
          :   RF solver                   davidson          :
          :   write xtbopt.log                true          :
          :   linear?                        false          :
          :   energy convergence         0.5000000E-05 Eh   :
          :   grad. convergence          0.1000000E-02 Eh/α :
          :   maximium RF displ.         1.0000000          :
          :   Hlow (freq-cutoff)         0.1000000E-01      :
          :   Hmax (freq-cutoff)         5.0000000          :
          :   S6 in model hess.         20.0000000          :
          ...................................................

generating ANC from model Hessian ...
Using Lindh-Hessian (1995)
 Shifting diagonal of input Hessian by   9.855578516138139E-003
 Lowest  eigenvalues of input Hessian
    0.000000    0.000000    0.000000    0.000000    0.000000    0.000000
    0.010000    0.010160    0.011195    0.011448    0.012114    0.012306
    0.012739    0.013851    0.014156    0.015378    0.015944    0.017977
 Highest eigenvalues
    1.969295    2.047298    2.113154    2.211223    2.304969    2.357238
 

........................................................................
.............................. CYCLE    1 ..............................
........................................................................
   1    -84.3070415 -0.843070E+02  0.196E-05    0.14       0.0  T
   2    -84.3070415  0.233864E-08  0.138E-04    0.14     111.7  T
   3    -84.3070415 -0.237803E-08  0.618E-06    0.14    2498.1  T
     SCC iter.                  ...        0 min,  0.012 sec
     gradient                   ...        0 min,  0.081 sec
 * total energy  :   -83.5823425 Eh     change       -0.1223555E-09 Eh
   gradient norm :     0.1461731 Eh/α   predicted     0.0000000E+00 (-100.00%)
   displ. norm   :     0.3724341 α      lambda       -0.2193001E-01
   maximum displ.:     0.1322014 α      in ANC's #18, #23, #22, ...

........................................................................
.............................. CYCLE    2 ..............................
........................................................................
   1    -84.3115460 -0.843115E+02  0.237E-01    0.31       0.0  T
   2    -83.9820617  0.329484E+00  0.165E+00    0.20       1.0  T
   3    -84.3149992 -0.332938E+00  0.154E-01    0.23       1.0  T
   4    -84.3160999 -0.110071E-02  0.108E-01    0.20       1.0  T
   5    -84.3169349 -0.834980E-03  0.681E-02    0.18       1.0  T
   6    -84.3174527 -0.517773E-03  0.127E-02    0.16       1.2  T
   7    -84.3173772  0.754495E-04  0.283E-02    0.14       1.0  T
   8    -84.3174715 -0.942712E-04  0.168E-03    0.15       9.2  T
   9    -84.3174717 -0.177488E-06  0.439E-04    0.15      35.2  T
  10    -84.3174716  0.508784E-07  0.736E-04    0.15      21.0  T
  11    -84.3174717 -0.592141E-07  0.141E-04    0.15     109.7  T
  12    -84.3174717 -0.103998E-08  0.234E-05    0.15     660.1  T
     SCC iter.                  ...        0 min,  0.044 sec
     gradient                   ...        0 min,  0.082 sec
 * total energy  :   -83.5983198 Eh     change       -0.1597734E-01 Eh
   gradient norm :     0.0744953 Eh/α   predicted    -0.1252804E-01 ( -21.59%)
   displ. norm   :     0.3958061 α      lambda       -0.1127104E-01
   maximum displ.:     0.1517566 α      in ANC's #18, #21, #23, ...

........................................................................
.............................. CYCLE    3 ..............................
........................................................................
   1    -84.3267395 -0.843267E+02  0.216E-01    0.34       0.0  T
   2    -84.0166687  0.310071E+00  0.161E+00    0.11       1.0  T
   3    -84.3290946 -0.312426E+00  0.152E-01    0.29       1.0  T
   4    -84.3295021 -0.407504E-03  0.126E-01    0.26       1.0  T
   5    -84.3299650 -0.462900E-03  0.107E-01    0.24       1.0  T
   6    -84.3304863 -0.521343E-03  0.780E-02    0.21       1.0  T
   7    -84.3310612 -0.574866E-03  0.267E-02    0.18       1.0  T
   8    -84.3311369 -0.756840E-04  0.410E-03    0.17       3.8  T
   9    -84.3311387 -0.179589E-05  0.173E-03    0.17       8.9  T
  10    -84.3311363  0.238794E-05  0.482E-03    0.16       3.2  T
  11    -84.3311385 -0.218092E-05  0.179E-03    0.17       8.6  T
  12    -84.3311388 -0.348201E-06  0.184E-04    0.17      83.9  T
  13    -84.3311388 -0.172945E-08  0.134E-04    0.17     114.9  T
     SCC iter.                  ...        0 min,  0.052 sec
     gradient                   ...        0 min,  0.082 sec
 * total energy  :   -83.6052198 Eh     change       -0.6899996E-02 Eh
   gradient norm :     0.0243015 Eh/α   predicted    -0.6518398E-02 (  -5.53%)
   displ. norm   :     0.2873296 α      lambda       -0.2158977E-02
   maximum displ.:     0.1307842 α      in ANC's #18, #4, #21, ...

........................................................................
.............................. CYCLE    4 ..............................
........................................................................
   1    -84.3350418 -0.843350E+02  0.104E-01    0.24       0.0  T
   2    -84.2219342  0.113108E+00  0.962E-01    0.06       1.0  T
   3    -84.3358587 -0.113924E+00  0.641E-02    0.22       1.0  T
   4    -84.3359146 -0.558914E-04  0.547E-02    0.21       1.0  T
   5    -84.3360793 -0.164674E-03  0.388E-02    0.20       1.0  T
   6    -84.3362139 -0.134587E-03  0.155E-02    0.18       1.0  T
   7    -84.3362392 -0.253323E-04  0.341E-03    0.18       4.5  T
   8    -84.3362402 -0.105371E-05  0.146E-03    0.18      10.6  T
   9    -84.3362404 -0.187258E-06  0.464E-04    0.18      33.2  T
  10    -84.3362404 -0.216587E-07  0.625E-05    0.18     246.9  T
  11    -84.3362404 -0.126249E-09  0.474E-05    0.18     325.6  T
     SCC iter.                  ...        0 min,  0.041 sec
     gradient                   ...        0 min,  0.082 sec
 * total energy  :   -83.6067309 Eh     change       -0.1511063E-02 Eh
   gradient norm :     0.0154603 Eh/α   predicted    -0.1168608E-02 ( -22.66%)
   displ. norm   :     0.3029395 α      lambda       -0.1178832E-02
   maximum displ.:     0.1387764 α      in ANC's #4, #18, #15, ...

........................................................................
.............................. CYCLE    5 ..............................
........................................................................
   1    -84.3383862 -0.843384E+02  0.688E-02    0.23       0.0  T
   2    -84.3151285  0.232577E-01  0.439E-01    0.08       1.0  T
   3    -84.3387789 -0.236503E-01  0.381E-02    0.21       1.0  T
   4    -84.3388297 -0.508690E-04  0.286E-02    0.21       1.0  T
   5    -84.3389056 -0.759055E-04  0.108E-02    0.19       1.4  T
   6    -84.3389171 -0.114392E-04  0.744E-04    0.19      20.7  T
   7    -84.3389169  0.202883E-06  0.140E-03    0.19      11.0  T
   8    -84.3389171 -0.209938E-06  0.352E-04    0.19      43.8  T
   9    -84.3389171 -0.141623E-07  0.291E-05    0.19     530.5  T
  10    -84.3389171  0.230060E-09  0.500E-05    0.19     308.6  T
     SCC iter.                  ...        0 min,  0.038 sec
     gradient                   ...        0 min,  0.082 sec
 * total energy  :   -83.6075080 Eh     change       -0.7771223E-03 Eh
   gradient norm :     0.0099136 Eh/α   predicted    -0.6435330E-03 ( -17.19%)
   displ. norm   :     0.2237696 α      lambda       -0.4732829E-03
   maximum displ.:     0.0995817 α      in ANC's #4, #18, #5, ...

........................................................................
.............................. CYCLE    6 ..............................
........................................................................
   1    -84.3401178 -0.843401E+02  0.210E-02    0.20       0.0  T
   2    -84.3395343  0.583492E-03  0.731E-02    0.16       1.0  T
   3    -84.3401632 -0.628831E-03  0.599E-03    0.20       2.6  T
   4    -84.3401656 -0.241736E-05  0.223E-03    0.19       6.9  T
   5    -84.3401656 -0.640782E-07  0.959E-04    0.19      16.1  T
   6    -84.3401656  0.198551E-08  0.426E-04    0.19      36.3  T
   7    -84.3401657 -0.169839E-07  0.712E-05    0.19     216.7  T
   8    -84.3401657 -0.966338E-10  0.342E-05    0.19     451.3  T
     SCC iter.                  ...        0 min,  0.030 sec
     gradient                   ...        0 min,  0.082 sec
 * total energy  :   -83.6078423 Eh     change       -0.3342517E-03 Eh
   gradient norm :     0.0078106 Eh/α   predicted    -0.2485928E-03 ( -25.63%)
   displ. norm   :     0.2393669 α      lambda       -0.3563197E-03
   maximum displ.:     0.1016075 α      in ANC's #4, #5, #6, ...

........................................................................
.............................. CYCLE    7 ..............................
........................................................................
   1    -84.3408899 -0.843409E+02  0.103E-02    0.20       0.0  T
   2    -84.3408498  0.401200E-04  0.208E-02    0.18       1.0  T
   3    -84.3408953 -0.455455E-04  0.600E-03    0.20       2.6  T
   4    -84.3408981 -0.277902E-05  0.187E-03    0.20       8.3  T
   5    -84.3408981  0.239291E-07  0.794E-04    0.20      19.4  T
   6    -84.3408981 -0.328917E-07  0.166E-04    0.20      93.0  T
   7    -84.3408981 -0.882423E-09  0.556E-05    0.20     277.7  T
     SCC iter.                  ...        0 min,  0.027 sec
     gradient                   ...        0 min,  0.082 sec
 * total energy  :   -83.6080993 Eh     change       -0.2569836E-03 Eh
   gradient norm :     0.0076244 Eh/α   predicted    -0.1883684E-03 ( -26.70%)
   displ. norm   :     0.2439085 α      lambda       -0.2875028E-03
   maximum displ.:     0.0889935 α      in ANC's #14, #5, #6, ...

........................................................................
.............................. CYCLE    8 ..............................
........................................................................
   1    -84.3411125 -0.843411E+02  0.938E-03    0.20       0.0  T
   2    -84.3411066  0.588538E-05  0.111E-02    0.20       1.4  T
   3    -84.3411122 -0.562123E-05  0.774E-03    0.19       2.0  T
   4    -84.3411178 -0.559775E-05  0.225E-03    0.20       6.9  T
   5    -84.3411179 -0.527221E-07  0.573E-04    0.20      26.9  T
   6    -84.3411179 -0.419914E-08  0.167E-04    0.20      92.5  T
   7    -84.3411179 -0.177954E-08  0.500E-05    0.20     308.5  T
     SCC iter.                  ...        0 min,  0.027 sec
     gradient                   ...        0 min,  0.082 sec
 * total energy  :   -83.6083083 Eh     change       -0.2090408E-03 Eh
   gradient norm :     0.0075326 Eh/α   predicted    -0.1523104E-03 ( -27.14%)
   displ. norm   :     0.2433081 α      lambda       -0.2339194E-03
   maximum displ.:     0.0942184 α      in ANC's #6, #14, #10, ...

........................................................................
.............................. CYCLE    9 ..............................
........................................................................
   1    -84.3409951 -0.843410E+02  0.832E-03    0.20       0.0  T
   2    -84.3409981 -0.306344E-05  0.479E-03    0.20       3.2  T
   3    -84.3409983 -0.138689E-06  0.276E-03    0.20       5.6  T
   4    -84.3409963  0.193225E-05  0.481E-03    0.20       3.2  T
   5    -84.3409986 -0.232206E-05  0.557E-04    0.20      27.7  T
   6    -84.3409986 -0.522168E-08  0.130E-04    0.20     118.6  T
   7    -84.3409986 -0.201837E-09  0.509E-05    0.20     303.0  T
     SCC iter.                  ...        0 min,  0.027 sec
     gradient                   ...        0 min,  0.082 sec
 * total energy  :   -83.6084755 Eh     change       -0.1672009E-03 Eh
   gradient norm :     0.0065653 Eh/α   predicted    -0.1238863E-03 ( -25.91%)
   displ. norm   :     0.2019112 α      lambda       -0.1680357E-03
   maximum displ.:     0.0885010 α      in ANC's #2, #6, #10, ...

........................................................................
.............................. CYCLE   10 ..............................
........................................................................
   1    -84.3412019 -0.843412E+02  0.816E-03    0.21       0.0  T
   2    -84.3411899  0.119807E-04  0.126E-02    0.20       1.2  T
   3    -84.3412038 -0.139136E-04  0.484E-03    0.21       3.2  T
   4    -84.3412062 -0.238429E-05  0.190E-03    0.20       8.1  T
   5    -84.3412063 -0.869028E-07  0.925E-04    0.20      16.7  T
   6    -84.3412063 -0.609363E-07  0.185E-04    0.20      83.5  T
   7    -84.3412063 -0.150456E-08  0.366E-05    0.20     421.1  T
     SCC iter.                  ...        0 min,  0.027 sec
     gradient                   ...        0 min,  0.082 sec
 * total energy  :   -83.6085949 Eh     change       -0.1194551E-03 Eh
   gradient norm :     0.0049321 Eh/α   predicted    -0.8744371E-04 ( -26.80%)
   displ. norm   :     0.1754693 α      lambda       -0.1130965E-03
   maximum displ.:     0.0878497 α      in ANC's #2, #10, #6, ...

........................................................................
.............................. CYCLE   11 ..............................
........................................................................
   1    -84.3411908 -0.843412E+02  0.843E-03    0.21       0.0  T
   2    -84.3411581  0.327365E-04  0.188E-02    0.20       1.0  T
   3    -84.3411963 -0.382145E-04  0.271E-03    0.21       5.7  T
   4    -84.3411968 -0.498162E-06  0.151E-03    0.21      10.2  T
   5    -84.3411968 -0.253929E-07  0.783E-04    0.21      19.7  T
   6    -84.3411969 -0.518130E-07  0.164E-04    0.21      94.3  T
   7    -84.3411969 -0.140292E-08  0.270E-05    0.21     571.9  T
     SCC iter.                  ...        0 min,  0.026 sec
     gradient                   ...        0 min,  0.082 sec
 * total energy  :   -83.6086769 Eh     change       -0.8195991E-04 Eh
   gradient norm :     0.0038756 Eh/α   predicted    -0.5829294E-04 ( -28.88%)
   displ. norm   :     0.1652184 α      lambda       -0.8508276E-04
   maximum displ.:     0.0895927 α      in ANC's #2, #7, #10, ...

........................................................................
.............................. CYCLE   12 ..............................
........................................................................
   1    -84.3415114 -0.843415E+02  0.733E-03    0.21       0.0  T
   2    -84.3414901  0.212800E-04  0.154E-02    0.20       1.0  T
   3    -84.3415153 -0.252585E-04  0.268E-03    0.21       5.8  T
   4    -84.3415158 -0.466813E-06  0.130E-03    0.21      11.9  T
   5    -84.3415158 -0.970145E-08  0.601E-04    0.21      25.7  T
   6    -84.3415158 -0.299457E-07  0.115E-04    0.21     134.7  T
   7    -84.3415158 -0.541348E-09  0.228E-05    0.21     676.9  T
     SCC iter.                  ...        0 min,  0.027 sec
     gradient                   ...        0 min,  0.082 sec
 * total energy  :   -83.6087396 Eh     change       -0.6271663E-04 Eh
   gradient norm :     0.0035278 Eh/α   predicted    -0.4370702E-04 ( -30.31%)
   displ. norm   :     0.1797764 α      lambda       -0.7603144E-04
   maximum displ.:     0.0995507 α      in ANC's #2, #7, #10, ...

........................................................................
.............................. CYCLE   13 ..............................
........................................................................
   1    -84.3414115 -0.843414E+02  0.447E-03    0.21       0.0  T
   2    -84.3414105  0.101158E-05  0.475E-03    0.21       3.2  T
   3    -84.3414115 -0.102671E-05  0.320E-03    0.22       4.8  T
   4    -84.3414125 -0.946074E-06  0.107E-03    0.21      14.4  T
   5    -84.3414125 -0.280439E-07  0.335E-04    0.21      46.1  T
   6    -84.3414125 -0.408399E-08  0.682E-05    0.21     226.3  T
   7    -84.3414125 -0.854783E-10  0.211E-05    0.21     731.5  T
     SCC iter.                  ...        0 min,  0.027 sec
     gradient                   ...        0 min,  0.082 sec
 * total energy  :   -83.6087973 Eh     change       -0.5769756E-04 Eh
   gradient norm :     0.0036245 Eh/α   predicted    -0.3924743E-04 ( -31.98%)
   displ. norm   :     0.1928663 α      lambda       -0.8019572E-04
   maximum displ.:     0.1080665 α      in ANC's #2, #7, #4, ...

........................................................................
.............................. CYCLE   14 ..............................
........................................................................
   1    -84.3419985 -0.843420E+02  0.384E-03    0.22       0.0  T
   2    -84.3419990 -0.540913E-06  0.177E-03    0.22       8.7  T
   3    -84.3419989  0.114344E-06  0.152E-03    0.22      10.2  T
   4    -84.3419990 -0.647471E-07  0.134E-03    0.22      11.5  T
   5    -84.3419991 -0.146456E-06  0.263E-04    0.22      58.6  T
   6    -84.3419991 -0.185116E-08  0.554E-05    0.22     278.3  T
   7    -84.3419991 -0.743512E-10  0.190E-05    0.22     813.6  T
     SCC iter.                  ...        0 min,  0.026 sec
     gradient                   ...        0 min,  0.082 sec
 * total energy  :   -83.6088590 Eh     change       -0.6164595E-04 Eh
   gradient norm :     0.0037918 Eh/α   predicted    -0.4159383E-04 ( -32.53%)
   displ. norm   :     0.2237886 α      lambda       -0.8299924E-04
   maximum displ.:     0.1278875 α      in ANC's #2, #7, #4, ...

........................................................................
.............................. CYCLE   15 ..............................
........................................................................
   1    -84.3409413 -0.843409E+02  0.855E-03    0.22       0.0  T
   2    -84.3409169  0.244010E-04  0.170E-02    0.23       1.0  T
   3    -84.3409479 -0.309946E-04  0.159E-03    0.22       9.7  T
   4    -84.3409479 -0.504576E-07  0.100E-03    0.22      15.4  T
   5    -84.3409479 -0.265810E-07  0.264E-04    0.22      58.4  T
   6    -84.3409479 -0.306548E-08  0.582E-05    0.22     265.3  T
   7    -84.3409479 -0.103512E-09  0.206E-05    0.22     750.5  T
     SCC iter.                  ...        0 min,  0.027 sec
     gradient                   ...        0 min,  0.082 sec
 * total energy  :   -83.6089223 Eh     change       -0.6329225E-04 Eh
   gradient norm :     0.0041151 Eh/α   predicted    -0.4357901E-04 ( -31.15%)
   displ. norm   :     0.2505581 α      lambda       -0.9459229E-04
   maximum displ.:     0.1449997 α      in ANC's #2, #7, #4, ...

........................................................................
.............................. CYCLE   16 ..............................
........................................................................
   1    -84.3423236 -0.843423E+02  0.682E-03    0.22       0.0  T
   2    -84.3423236 -0.705319E-07  0.482E-03    0.23       3.2  T
   3    -84.3423233  0.397946E-06  0.505E-03    0.22       3.1  T
   4    -84.3423256 -0.236325E-05  0.118E-03    0.22      13.0  T
   5    -84.3423256  0.116261E-07  0.553E-04    0.22      27.9  T
   6    -84.3423256 -0.188486E-07  0.779E-05    0.22     198.2  T
   7    -84.3423256 -0.304198E-09  0.275E-05    0.22     560.5  T
     SCC iter.                  ...        0 min,  0.027 sec
     gradient                   ...        0 min,  0.082 sec
 * total energy  :   -83.6089889 Eh     change       -0.6659289E-04 Eh
   gradient norm :     0.0036284 Eh/α   predicted    -0.5026883E-04 ( -24.51%)
   displ. norm   :     0.3093684 α      lambda       -0.8899332E-04
   maximum displ.:     0.1863179 α      in ANC's #2, #7, #4, ...

........................................................................
.............................. CYCLE   17 ..............................
........................................................................
   1    -84.3403156 -0.843403E+02  0.132E-02    0.22       0.0  T
   2    -84.3402745  0.411043E-04  0.231E-02    0.24       1.0  T
   3    -84.3403298 -0.552616E-04  0.313E-03    0.23       4.9  T
   4    -84.3403303 -0.557544E-06  0.146E-03    0.23      10.6  T
   5    -84.3403304 -0.608640E-07  0.520E-04    0.23      29.7  T
   6    -84.3403304 -0.154494E-07  0.123E-04    0.23     125.7  T
   7    -84.3403304 -0.291891E-09  0.467E-05    0.23     330.5  T
     SCC iter.                  ...        0 min,  0.027 sec
     gradient                   ...        0 min,  0.082 sec
 * total energy  :   -83.6090562 Eh     change       -0.6739708E-04 Eh
   gradient norm :     0.0044552 Eh/α   predicted    -0.4875662E-04 ( -27.66%)
   displ. norm   :     0.3122983 α      lambda       -0.1014126E-03
   maximum displ.:     0.1979340 α      in ANC's #2, #7, #4, ...

........................................................................
.............................. CYCLE   18 ..............................
........................................................................
   1    -84.3403289 -0.843403E+02  0.671E-03    0.23       0.0  T
   2    -84.3403295 -0.617303E-06  0.445E-03    0.24       3.5  T
   3    -84.3403294  0.137933E-06  0.438E-03    0.23       3.5  T
   4    -84.3403312 -0.178128E-05  0.917E-04    0.23      16.8  T
   5    -84.3403312  0.463901E-08  0.566E-04    0.23      27.3  T
   6    -84.3403312 -0.167078E-07  0.131E-04    0.23     117.5  T
   7    -84.3403312 -0.524423E-09  0.328E-05    0.23     470.0  T
     SCC iter.                  ...        0 min,  0.026 sec
     gradient                   ...        0 min,  0.082 sec
 * total energy  :   -83.6091373 Eh     change       -0.8104552E-04 Eh
   gradient norm :     0.0048293 Eh/α   predicted    -0.5565460E-04 ( -31.33%)
   displ. norm   :     0.3084564 α      lambda       -0.1139675E-03
   maximum displ.:     0.2005311 α      in ANC's #2, #4, #7, ...

........................................................................
.............................. CYCLE   19 ..............................
........................................................................
   1    -84.3413362 -0.843413E+02  0.585E-03    0.24       0.0  T
   2    -84.3413315  0.468366E-05  0.839E-03    0.23       1.8  T
   3    -84.3413382 -0.662800E-05  0.227E-03    0.24       6.8  T
   4    -84.3413385 -0.382467E-06  0.124E-03    0.24      12.4  T
   5    -84.3413386 -0.394688E-07  0.531E-04    0.24      29.0  T
   6    -84.3413386 -0.179639E-07  0.895E-05    0.24     172.5  T
   7    -84.3413386 -0.257828E-09  0.268E-05    0.24     575.6  T
     SCC iter.                  ...        0 min,  0.027 sec
     gradient                   ...        0 min,  0.081 sec
 * total energy  :   -83.6092273 Eh     change       -0.8999764E-04 Eh
   gradient norm :     0.0049526 Eh/α   predicted    -0.6240968E-04 ( -30.65%)
   displ. norm   :     0.3515795 α      lambda       -0.1131303E-03
   maximum displ.:     0.2329387 α      in ANC's #2, #4, #7, ...

........................................................................
.............................. CYCLE   20 ..............................
........................................................................
   1    -84.3413802 -0.843414E+02  0.982E-03    0.25       0.0  T
   2    -84.3413472  0.329718E-04  0.199E-02    0.23       1.0  T
   3    -84.3413897 -0.425073E-04  0.173E-03    0.25       8.9  T
   4    -84.3413897 -0.431699E-07  0.130E-03    0.25      11.9  T
   5    -84.3413898 -0.280544E-07  0.733E-04    0.25      21.1  T
   6    -84.3413898 -0.390155E-07  0.161E-04    0.25      95.8  T
   7    -84.3413898 -0.136187E-08  0.302E-05    0.25     510.6  T
     SCC iter.                  ...        0 min,  0.029 sec
     gradient                   ...        0 min,  0.082 sec
 * total energy  :   -83.6093129 Eh     change       -0.8560356E-04 Eh
   gradient norm :     0.0048235 Eh/α   predicted    -0.6356166E-04 ( -25.75%)
   displ. norm   :     0.3258225 α      lambda       -0.9534029E-04
   maximum displ.:     0.2163585 α      in ANC's #2, #4, #5, ...
 * RMSD in coord.:     0.5536362 α      energy gain  -0.2697041E-01 Eh

generating ANC from model Hessian ...
Using Lindh-Hessian (1995)
 Shifting diagonal of input Hessian by   9.840602837351895E-003
 Lowest  eigenvalues of input Hessian
    0.000000    0.000000    0.000000    0.000000    0.000000    0.000000
    0.010000    0.010104    0.011102    0.011359    0.011733    0.012322
    0.012607    0.013305    0.013650    0.014800    0.016069    0.018273
 Highest eigenvalues
    2.028393    2.120219    2.133198    2.180354    2.230646    2.395873
 

........................................................................
.............................. CYCLE   21 ..............................
........................................................................
   1    -84.3421352 -0.843421E+02  0.662E-03    0.25       0.0  T
   2    -84.3421293  0.586737E-05  0.878E-03    0.24       1.8  T
   3    -84.3421370 -0.763475E-05  0.317E-03    0.25       4.9  T
   4    -84.3421377 -0.697680E-06  0.964E-04    0.25      16.0  T
   5    -84.3421377 -0.162180E-08  0.336E-04    0.25      45.9  T
   6    -84.3421377 -0.545857E-08  0.617E-05    0.25     250.3  T
   7    -84.3421377 -0.840004E-10  0.276E-05    0.25     559.9  T
     SCC iter.                  ...        0 min,  0.027 sec
     gradient                   ...        0 min,  0.082 sec
 * total energy  :   -83.6093776 Eh     change       -0.6470915E-04 Eh
   gradient norm :     0.0041384 Eh/α   predicted     0.0000000E+00 (-100.00%)
   displ. norm   :     0.0237971 α      lambda       -0.2476786E-04
   maximum displ.:     0.0096710 α      in ANC's #17, #2, #25, ...

........................................................................
.............................. CYCLE   22 ..............................
........................................................................
   1    -84.3424320 -0.843424E+02  0.312E-03    0.25       0.0  T
   2    -84.3424311  0.892990E-06  0.361E-03    0.25       4.3  T
   3    -84.3424323 -0.119361E-05  0.166E-03    0.25       9.3  T
   4    -84.3424325 -0.214715E-06  0.467E-04    0.25      33.0  T
   5    -84.3424325 -0.178757E-08  0.118E-04    0.25     130.5  T
   6    -84.3424325 -0.229960E-09  0.282E-05    0.25     546.7  T
     SCC iter.                  ...        0 min,  0.024 sec
     gradient                   ...        0 min,  0.082 sec
 * total energy  :   -83.6094006 Eh     change       -0.2296298E-04 Eh
   gradient norm :     0.0020747 Eh/α   predicted    -0.1507255E-04 ( -34.36%)
   displ. norm   :     0.0467117 α      lambda       -0.2601850E-04
   maximum displ.:     0.0224551 α      in ANC's #17, #2, #5, ...

........................................................................
.............................. CYCLE   23 ..............................
........................................................................
   1    -84.3426904 -0.843427E+02  0.499E-03    0.25       0.0  T
   2    -84.3426858  0.452230E-05  0.758E-03    0.25       2.0  T
   3    -84.3426920 -0.619650E-05  0.183E-03    0.25       8.5  T
   4    -84.3426923 -0.229566E-06  0.605E-04    0.25      25.5  T
   5    -84.3426923 -0.772346E-08  0.183E-04    0.25      84.1  T
   6    -84.3426923 -0.536119E-09  0.397E-05    0.25     388.9  T
     SCC iter.                  ...        0 min,  0.023 sec
     gradient                   ...        0 min,  0.082 sec
 * total energy  :   -83.6094175 Eh     change       -0.1692686E-04 Eh
   gradient norm :     0.0010825 Eh/α   predicted    -0.1357929E-04 ( -19.78%)
   displ. norm   :     0.0565319 α      lambda       -0.8975770E-05
   maximum displ.:     0.0287969 α      in ANC's #2, #17, #5, ...

........................................................................
.............................. CYCLE   24 ..............................
........................................................................
   1    -84.3427128 -0.843427E+02  0.380E-03    0.25       0.0  T
   2    -84.3427092  0.357936E-05  0.673E-03    0.25       2.3  T
   3    -84.3427141 -0.495066E-05  0.897E-04    0.25      17.2  T
   4    -84.3427142 -0.335280E-07  0.363E-04    0.25      42.5  T
   5    -84.3427142 -0.280821E-09  0.152E-04    0.25     101.6  T
   6    -84.3427142 -0.228113E-09  0.396E-05    0.25     390.0  T
     SCC iter.                  ...        0 min,  0.023 sec
     gradient                   ...        0 min,  0.081 sec
 * total energy  :   -83.6094275 Eh     change       -0.1004230E-04 Eh
   gradient norm :     0.0016573 Eh/α   predicted    -0.4585683E-05 ( -54.34%)
   displ. norm   :     0.0979697 α      lambda       -0.1415585E-04
   maximum displ.:     0.0510663 α      in ANC's #2, #17, #5, ...

........................................................................
.............................. CYCLE   25 ..............................
........................................................................
   1    -84.3425745 -0.843426E+02  0.409E-03    0.25       0.0  T
   2    -84.3425704  0.417113E-05  0.738E-03    0.25       2.1  T
   3    -84.3425762 -0.585217E-05  0.915E-04    0.25      16.9  T
   4    -84.3425762 -0.167899E-07  0.482E-04    0.25      32.0  T
   5    -84.3425762 -0.319599E-08  0.210E-04    0.25      73.4  T
   6    -84.3425762 -0.133848E-08  0.487E-05    0.25     316.8  T
   7    -84.3425762 -0.333387E-10  0.139E-05    0.25    1108.4  T
     SCC iter.                  ...        0 min,  0.025 sec
     gradient                   ...        0 min,  0.081 sec
 * total energy  :   -83.6094444 Eh     change       -0.1690491E-04 Eh
   gradient norm :     0.0017404 Eh/α   predicted    -0.7108673E-05 ( -57.95%)
   displ. norm   :     0.1948963 α      lambda       -0.2330955E-04
   maximum displ.:     0.1037654 α      in ANC's #2, #17, #5, ...

........................................................................
.............................. CYCLE   26 ..............................
........................................................................
   1    -84.3421848 -0.843422E+02  0.406E-03    0.26       0.0  T
   2    -84.3421832  0.161645E-05  0.538E-03    0.25       2.9  T
   3    -84.3421859 -0.275434E-05  0.152E-03    0.25      10.2  T
   4    -84.3421861 -0.130337E-06  0.815E-04    0.25      18.9  T
   5    -84.3421861 -0.208545E-07  0.286E-04    0.25      53.9  T
   6    -84.3421861 -0.288108E-08  0.621E-05    0.25     248.6  T
   7    -84.3421861 -0.604956E-10  0.205E-05    0.25     753.0  T
     SCC iter.                  ...        0 min,  0.026 sec
     gradient                   ...        0 min,  0.082 sec
 * total energy  :   -83.6094704 Eh     change       -0.2597904E-04 Eh
   gradient norm :     0.0022491 Eh/α   predicted    -0.1186341E-04 ( -54.33%)
   displ. norm   :     0.1626861 α      lambda       -0.2592818E-04
   maximum displ.:     0.0899241 α      in ANC's #2, #17, #5, ...

........................................................................
.............................. CYCLE   27 ..............................
........................................................................
   1    -84.3420055 -0.843420E+02  0.234E-03    0.26       0.0  T
   2    -84.3420057 -0.184931E-06  0.111E-03    0.26      13.9  T
   3    -84.3420057 -0.312342E-07  0.588E-04    0.26      26.2  T
   4    -84.3420057  0.323067E-08  0.356E-04    0.26      43.3  T
   5    -84.3420057 -0.845759E-09  0.320E-04    0.26      48.2  T
   6    -84.3420057 -0.100162E-07  0.383E-05    0.26     403.3  T
   7    -84.3420057 -0.166409E-10  0.121E-05    0.26    1272.2  T
     SCC iter.                  ...        0 min,  0.025 sec
     gradient                   ...        0 min,  0.082 sec
 * total energy  :   -83.6094910 Eh     change       -0.2060104E-04 Eh
   gradient norm :     0.0023579 Eh/α   predicted    -0.1330735E-04 ( -35.40%)
   displ. norm   :     0.2042135 α      lambda       -0.3316986E-04
   maximum displ.:     0.1164563 α      in ANC's #2, #17, #5, ...

........................................................................
.............................. CYCLE   28 ..............................
........................................................................
   1    -84.3419487 -0.843419E+02  0.464E-03    0.26       0.0  T
   2    -84.3419454  0.327476E-05  0.694E-03    0.26       2.2  T
   3    -84.3419503 -0.487812E-05  0.127E-03    0.26      12.2  T
   4    -84.3419504 -0.894860E-07  0.529E-04    0.26      29.1  T
   5    -84.3419504 -0.396413E-08  0.221E-04    0.26      69.8  T
   6    -84.3419504 -0.303986E-08  0.601E-05    0.26     256.6  T
   7    -84.3419504 -0.876810E-10  0.168E-05    0.26     920.5  T
     SCC iter.                  ...        0 min,  0.025 sec
     gradient                   ...        0 min,  0.081 sec
 * total energy  :   -83.6095177 Eh     change       -0.2668728E-04 Eh
   gradient norm :     0.0023150 Eh/α   predicted    -0.1727766E-04 ( -35.26%)
   displ. norm   :     0.2508823 α      lambda       -0.4522824E-04
   maximum displ.:     0.1465054 α      in ANC's #2, #17, #1, ...

........................................................................
.............................. CYCLE   29 ..............................
........................................................................
   1    -84.3419846 -0.843420E+02  0.794E-03    0.25       0.0  T
   2    -84.3419705  0.141509E-04  0.139E-02    0.27       1.1  T
   3    -84.3419907 -0.202738E-04  0.129E-03    0.26      12.0  T
   4    -84.3419908 -0.227052E-07  0.709E-04    0.26      21.8  T
   5    -84.3419908 -0.911226E-08  0.296E-04    0.26      52.2  T
   6    -84.3419908 -0.558103E-08  0.736E-05    0.26     209.6  T
   7    -84.3419908 -0.721627E-10  0.280E-05    0.26     551.0  T
     SCC iter.                  ...        0 min,  0.025 sec
     gradient                   ...        0 min,  0.081 sec
 * total energy  :   -83.6095521 Eh     change       -0.3441568E-04 Eh
   gradient norm :     0.0025881 Eh/α   predicted    -0.2403915E-04 ( -30.15%)
   displ. norm   :     0.1961398 α      lambda       -0.4590150E-04
   maximum displ.:     0.1189408 α      in ANC's #2, #1, #17, ...

........................................................................
.............................. CYCLE   30 ..............................
........................................................................
   1    -84.3428132 -0.843428E+02  0.843E-03    0.26       0.0  T
   2    -84.3427945  0.186931E-04  0.157E-02    0.27       1.0  T
   3    -84.3428206 -0.261002E-04  0.137E-03    0.26      11.3  T
   4    -84.3428206 -0.283438E-08  0.804E-04    0.26      19.2  T
   5    -84.3428206 -0.151142E-07  0.288E-04    0.26      53.6  T
   6    -84.3428206 -0.457517E-08  0.651E-05    0.26     237.0  T
   7    -84.3428206 -0.110958E-09  0.259E-05    0.26     596.1  T
     SCC iter.                  ...        0 min,  0.025 sec
     gradient                   ...        0 min,  0.081 sec
 * total energy  :   -83.6095869 Eh     change       -0.3478106E-04 Eh
   gradient norm :     0.0026874 Eh/α   predicted    -0.2383736E-04 ( -31.46%)
   displ. norm   :     0.2788979 α      lambda       -0.5373556E-04
   maximum displ.:     0.1666531 α      in ANC's #2, #17, #1, ...

........................................................................
.............................. CYCLE   31 ..............................
........................................................................
   1    -84.3423161 -0.843423E+02  0.819E-03    0.26       0.0  T
   2    -84.3423001  0.159678E-04  0.147E-02    0.27       1.1  T
   3    -84.3423226 -0.224195E-04  0.142E-03    0.26      10.9  T
   4    -84.3423226 -0.161148E-07  0.892E-04    0.26      17.3  T
   5    -84.3423226 -0.301108E-07  0.320E-04    0.26      48.2  T
   6    -84.3423226 -0.351706E-08  0.744E-05    0.26     207.5  T
   7    -84.3423226 -0.105928E-09  0.293E-05    0.26     526.5  T
     SCC iter.                  ...        0 min,  0.026 sec
     gradient                   ...        0 min,  0.081 sec
 * total energy  :   -83.6096314 Eh     change       -0.4453051E-04 Eh
   gradient norm :     0.0034043 Eh/α   predicted    -0.2895931E-04 ( -34.97%)
   displ. norm   :     0.4394102 α      lambda       -0.1236458E-03
   maximum displ.:     0.2583407 α      in ANC's #2, #3, #1, ...

........................................................................
.............................. CYCLE   32 ..............................
........................................................................
   1    -84.3425424 -0.843425E+02  0.134E-02    0.25       0.0  T
   2    -84.3424971  0.452815E-04  0.246E-02    0.28       1.0  T
   3    -84.3425604 -0.632564E-04  0.229E-03    0.26       6.7  T
   4    -84.3425603  0.384273E-07  0.163E-03    0.26       9.5  T
   5    -84.3425604 -0.131072E-06  0.553E-04    0.26      27.9  T
   6    -84.3425605 -0.648068E-08  0.112E-04    0.26     137.7  T
   7    -84.3425605 -0.219615E-09  0.513E-05    0.26     300.8  T
     SCC iter.                  ...        0 min,  0.026 sec
     gradient                   ...        0 min,  0.082 sec
 * total energy  :   -83.6097216 Eh     change       -0.9018894E-04 Eh
   gradient norm :     0.0044587 Eh/α   predicted    -0.7376026E-04 ( -18.22%)
   displ. norm   :     0.4202615 α      lambda       -0.9002399E-04
   maximum displ.:     0.2542832 α      in ANC's #2, #1, #3, ...

........................................................................
.............................. CYCLE   33 ..............................
........................................................................
   1    -84.3401554 -0.843402E+02  0.913E-03    0.26       0.0  T
   2    -84.3401522  0.314700E-05  0.930E-03    0.26       1.7  T
   3    -84.3401574 -0.513587E-05  0.511E-03    0.25       3.0  T
   4    -84.3401594 -0.202315E-05  0.211E-03    0.26       7.3  T
   5    -84.3401596 -0.250306E-06  0.594E-04    0.26      26.0  T
   6    -84.3401597 -0.100816E-07  0.123E-04    0.26     125.4  T
   7    -84.3401597 -0.592664E-09  0.395E-05    0.26     390.6  T
     SCC iter.                  ...        0 min,  0.025 sec
     gradient                   ...        0 min,  0.081 sec
 * total energy  :   -83.6097678 Eh     change       -0.4616193E-04 Eh
   gradient norm :     0.0067240 Eh/α   predicted    -0.5296992E-04 (  14.75%)
   displ. norm   :     0.2649602 α      lambda       -0.1845141E-03
   maximum displ.:     0.1153717 α      in ANC's #2, #16, #15, ...

........................................................................
.............................. CYCLE   34 ..............................
........................................................................
   1    -84.3428072 -0.843428E+02  0.193E-02    0.27       0.0  T
   2    -84.3426760  0.131183E-03  0.381E-02    0.24       1.0  T
   3    -84.3428372 -0.161152E-03  0.629E-03    0.26       2.5  T
   4    -84.3428387 -0.158030E-05  0.288E-03    0.26       5.4  T
   5    -84.3428388 -0.280150E-07  0.117E-03    0.26      13.2  T
   6    -84.3428389 -0.107296E-06  0.247E-04    0.26      62.5  T
   7    -84.3428389 -0.284557E-08  0.596E-05    0.26     258.8  T
   8    -84.3428389 -0.133298E-09  0.173E-05    0.26     893.5  T
     SCC iter.                  ...        0 min,  0.029 sec
     gradient                   ...        0 min,  0.081 sec
 * total energy  :   -83.6098119 Eh     change       -0.4415621E-04 Eh
   gradient norm :     0.0056478 Eh/α   predicted    -0.9874256E-04 ( 123.62%)
   displ. norm   :     0.1224195 α      lambda       -0.9741050E-04
   maximum displ.:     0.0744286 α      in ANC's #2, #17, #1, ...

........................................................................
.............................. CYCLE   35 ..............................
........................................................................
   1    -84.3421977 -0.843422E+02  0.584E-03    0.26       0.0  T
   2    -84.3421969  0.735454E-06  0.461E-03    0.26       3.3  T
   3    -84.3421966  0.338511E-06  0.424E-03    0.26       3.6  T
   4    -84.3421982 -0.163992E-05  0.127E-03    0.26      12.1  T
   5    -84.3421983 -0.760240E-07  0.271E-04    0.26      57.0  T
   6    -84.3421983 -0.165224E-08  0.639E-05    0.26     241.3  T
   7    -84.3421983 -0.531628E-10  0.160E-05    0.26     965.1  T
     SCC iter.                  ...        0 min,  0.028 sec
     gradient                   ...        0 min,  0.081 sec
 * total energy  :   -83.6098772 Eh     change       -0.6528872E-04 Eh
   gradient norm :     0.0026592 Eh/α   predicted    -0.4943857E-04 ( -24.28%)
   displ. norm   :     0.1432292 α      lambda       -0.5337098E-04
   maximum displ.:     0.0965214 α      in ANC's #2, #1, #17, ...

........................................................................
.............................. CYCLE   36 ..............................
........................................................................
   1    -84.3422856 -0.843423E+02  0.524E-03    0.26       0.0  T
   2    -84.3422798  0.581118E-05  0.860E-03    0.25       1.8  T
   3    -84.3422876 -0.780582E-05  0.179E-03    0.26       8.6  T
   4    -84.3422878 -0.150058E-06  0.947E-04    0.26      16.3  T
   5    -84.3422878 -0.204199E-07  0.353E-04    0.26      43.7  T
   6    -84.3422878 -0.592810E-08  0.534E-05    0.26     288.8  T
   7    -84.3422878 -0.536886E-10  0.158E-05    0.26     976.1  T
     SCC iter.                  ...        0 min,  0.027 sec
     gradient                   ...        0 min,  0.081 sec
 * total energy  :   -83.6099163 Eh     change       -0.3910472E-04 Eh
   gradient norm :     0.0028606 Eh/α   predicted    -0.2723319E-04 ( -30.36%)
   displ. norm   :     0.1625870 α      lambda       -0.5002918E-04
   maximum displ.:     0.1093830 α      in ANC's #2, #1, #17, ...

........................................................................
.............................. CYCLE   37 ..............................
........................................................................
   1    -84.3428107 -0.843428E+02  0.581E-03    0.26       0.0  T
   2    -84.3428011  0.962825E-05  0.107E-02    0.25       1.4  T
   3    -84.3428137 -0.125989E-04  0.153E-03    0.26      10.1  T
   4    -84.3428138 -0.132242E-06  0.701E-04    0.26      22.0  T
   5    -84.3428138 -0.183221E-08  0.341E-04    0.26      45.3  T
   6    -84.3428138 -0.516374E-08  0.579E-05    0.26     266.5  T
   7    -84.3428138 -0.835882E-10  0.167E-05    0.26     922.8  T
     SCC iter.                  ...        0 min,  0.031 sec
     gradient                   ...        0 min,  0.081 sec
 * total energy  :   -83.6099525 Eh     change       -0.3614979E-04 Eh
   gradient norm :     0.0034535 Eh/α   predicted    -0.2567999E-04 ( -28.96%)
   displ. norm   :     0.1956776 α      lambda       -0.4184182E-04
   maximum displ.:     0.1362687 α      in ANC's #2, #1, #17, ...

........................................................................
.............................. CYCLE   38 ..............................
........................................................................
   1    -84.3423933 -0.843424E+02  0.237E-03    0.26       0.0  T
   2    -84.3423935 -0.190937E-06  0.112E-03    0.26      13.7  T
   3    -84.3423935 -0.226900E-08  0.699E-04    0.26      22.1  T
   4    -84.3423935  0.351483E-07  0.793E-04    0.26      19.5  T
   5    -84.3423935 -0.475780E-07  0.266E-04    0.26      58.0  T
   6    -84.3423935 -0.722960E-08  0.462E-05    0.26     333.6  T
   7    -84.3423935 -0.589324E-10  0.153E-05    0.26    1007.2  T
     SCC iter.                  ...        0 min,  0.031 sec
     gradient                   ...        0 min,  0.080 sec
 * total energy  :   -83.6099853 Eh     change       -0.3285536E-04 Eh
   gradient norm :     0.0034272 Eh/α   predicted    -0.2172344E-04 ( -33.88%)
   displ. norm   :     0.1884221 α      lambda       -0.5013299E-04
   maximum displ.:     0.1322751 α      in ANC's #2, #1, #7, ...

........................................................................
.............................. CYCLE   39 ..............................
........................................................................
   1    -84.3433327 -0.843433E+02  0.402E-03    0.25       0.0  T
   2    -84.3433331 -0.385328E-06  0.225E-03    0.25       6.8  T
   3    -84.3433332 -0.710293E-07  0.119E-03    0.25      13.0  T
   4    -84.3433332  0.298641E-07  0.698E-04    0.25      22.1  T
   5    -84.3433332  0.666971E-08  0.662E-04    0.25      23.3  T
   6    -84.3433332 -0.481101E-07  0.496E-05    0.25     311.0  T
   7    -84.3433332 -0.439258E-10  0.202E-05    0.25     762.2  T
     SCC iter.                  ...        0 min,  0.024 sec
     gradient                   ...        0 min,  0.108 sec
 * total energy  :   -83.6100181 Eh     change       -0.3279930E-04 Eh
   gradient norm :     0.0020396 Eh/α   predicted    -0.2596149E-04 ( -20.85%)
   displ. norm   :     0.2892700 α      lambda       -0.4403355E-04
   maximum displ.:     0.2028007 α      in ANC's #2, #1, #17, ...

........................................................................
.............................. CYCLE   40 ..............................
........................................................................
   1    -84.3412030 -0.843412E+02  0.103E-02    0.24       0.0  T
   2    -84.3411668  0.362556E-04  0.210E-02    0.26       1.0  T
   3    -84.3412144 -0.476607E-04  0.231E-03    0.25       6.7  T
   4    -84.3412145 -0.102208E-06  0.108E-03    0.25      14.3  T
   5    -84.3412146 -0.261736E-07  0.311E-04    0.25      49.7  T
   6    -84.3412146 -0.694881E-08  0.751E-05    0.25     205.4  T
   7    -84.3412146 -0.216048E-09  0.323E-05    0.25     478.4  T
     SCC iter.                  ...        0 min,  0.027 sec
     gradient                   ...        0 min,  0.078 sec
 * total energy  :   -83.6100423 Eh     change       -0.2416175E-04 Eh
   gradient norm :     0.0029160 Eh/α   predicted    -0.2385941E-04 (  -1.25%)
   displ. norm   :     0.1125107 α      lambda       -0.2667138E-04
   maximum displ.:     0.0835048 α      in ANC's #2, #1, #17, ...

........................................................................
.............................. CYCLE   41 ..............................
........................................................................
   1    -84.3422038 -0.843422E+02  0.382E-03    0.25       0.0  T
   2    -84.3422008  0.298564E-05  0.624E-03    0.25       2.5  T
   3    -84.3422049 -0.413004E-05  0.137E-03    0.25      11.3  T
   4    -84.3422050 -0.826786E-07  0.679E-04    0.25      22.7  T
   5    -84.3422050 -0.103767E-07  0.202E-04    0.25      76.5  T
   6    -84.3422050 -0.639432E-09  0.541E-05    0.25     285.0  T
   7    -84.3422050 -0.169024E-09  0.129E-05    0.25    1193.4  T
     SCC iter.                  ...        0 min,  0.027 sec
     gradient                   ...        0 min,  0.078 sec
 * total energy  :   -83.6100630 Eh     change       -0.2069509E-04 Eh
   gradient norm :     0.0020497 Eh/α   predicted    -0.1350489E-04 ( -34.74%)
   displ. norm   :     0.1961339 α      lambda       -0.3235043E-04
   maximum displ.:     0.1448314 α      in ANC's #2, #1, #17, ...

........................................................................
.............................. CYCLE   42 ..............................
........................................................................
   1    -84.3432291 -0.843432E+02  0.327E-03    0.25       0.0  T
   2    -84.3432290  0.126937E-06  0.258E-03    0.25       6.0  T
   3    -84.3432291 -0.936751E-07  0.218E-03    0.25       7.1  T
   4    -84.3432295 -0.452896E-06  0.684E-04    0.25      22.6  T
   5    -84.3432296 -0.167687E-07  0.186E-04    0.25      82.7  T
   6    -84.3432296 -0.724413E-09  0.565E-05    0.25     273.3  T
     SCC iter.                  ...        0 min,  0.024 sec
     gradient                   ...        0 min,  0.079 sec
 * total energy  :   -83.6100878 Eh     change       -0.2479267E-04 Eh
   gradient norm :     0.0021482 Eh/α   predicted    -0.1680096E-04 ( -32.23%)
   displ. norm   :     0.2712503 α      lambda       -0.3426116E-04
   maximum displ.:     0.2004056 α      in ANC's #2, #1, #17, ...
 * RMSD in coord.:     0.5929753 α      energy gain  -0.7748953E-03 Eh

generating ANC from model Hessian ...
Using Lindh-Hessian (1995)
 Shifting diagonal of input Hessian by   9.846760700680789E-003
 Lowest  eigenvalues of input Hessian
    0.000000    0.000000    0.000000    0.000000    0.000000    0.000000
    0.010000    0.010119    0.011133    0.011311    0.011700    0.012290
    0.012584    0.013285    0.013660    0.014730    0.016010    0.018287
 Highest eigenvalues
    2.026678    2.122928    2.132970    2.181016    2.232230    2.397473
 

........................................................................
.............................. CYCLE   43 ..............................
........................................................................
   1    -84.3432696 -0.843433E+02  0.377E-03    0.24       0.0  T
   2    -84.3432672  0.242568E-05  0.571E-03    0.25       2.7  T
   3    -84.3432705 -0.329539E-05  0.140E-03    0.24      11.0  T
   4    -84.3432706 -0.124861E-06  0.654E-04    0.25      23.6  T
   5    -84.3432706 -0.181962E-07  0.193E-04    0.25      79.9  T
   6    -84.3432706 -0.553371E-09  0.489E-05    0.25     315.5  T
     SCC iter.                  ...        0 min,  0.032 sec
     gradient                   ...        0 min,  0.080 sec
 * total energy  :   -83.6101130 Eh     change       -0.2518862E-04 Eh
   gradient norm :     0.0026606 Eh/α   predicted     0.0000000E+00 (-100.00%)
   displ. norm   :     0.0219515 α      lambda       -0.1465088E-04
   maximum displ.:     0.0115807 α      in ANC's #17, #6, #3, ...

........................................................................
.............................. CYCLE   44 ..............................
........................................................................
   1    -84.3434873 -0.843435E+02  0.356E-03    0.25       0.0  T
   2    -84.3434829  0.448609E-05  0.710E-03    0.24       2.2  T
   3    -84.3434886 -0.571802E-05  0.886E-04    0.25      17.4  T
   4    -84.3434886 -0.347676E-07  0.410E-04    0.25      37.6  T
   5    -84.3434886 -0.848544E-09  0.171E-04    0.25      90.1  T
   6    -84.3434886 -0.101359E-08  0.325E-05    0.25     475.3  T
     SCC iter.                  ...        0 min,  0.023 sec
     gradient                   ...        0 min,  0.079 sec
 * total energy  :   -83.6101266 Eh     change       -0.1361607E-04 Eh
   gradient norm :     0.0014565 Eh/α   predicted    -0.8444093E-05 ( -37.98%)
   displ. norm   :     0.0941650 α      lambda       -0.2758574E-04
   maximum displ.:     0.0493813 α      in ANC's #17, #6, #3, ...

........................................................................
.............................. CYCLE   45 ..............................
........................................................................
   1    -84.3436897 -0.843437E+02  0.111E-02    0.26       0.0  T
   2    -84.3436374  0.522965E-04  0.240E-02    0.23       1.0  T
   3    -84.3437031 -0.657098E-04  0.259E-03    0.25       6.0  T
   4    -84.3437035 -0.326293E-06  0.116E-03    0.25      13.3  T
   5    -84.3437034  0.832320E-08  0.695E-04    0.25      22.2  T
   6    -84.3437035 -0.243532E-07  0.114E-04    0.25     135.6  T
   7    -84.3437035 -0.343135E-09  0.271E-05    0.25     569.0  T
     SCC iter.                  ...        0 min,  0.027 sec
     gradient                   ...        0 min,  0.078 sec
 * total energy  :   -83.6101458 Eh     change       -0.1919520E-04 Eh
   gradient norm :     0.0022493 Eh/α   predicted    -0.1384759E-04 ( -27.86%)
   displ. norm   :     0.0228014 α      lambda       -0.7830045E-05
   maximum displ.:     0.0114928 α      in ANC's #6, #17, #3, ...

........................................................................
.............................. CYCLE   46 ..............................
........................................................................
   1    -84.3436172 -0.843436E+02  0.794E-04    0.25       0.0  T
   2    -84.3436172 -0.913474E-08  0.388E-04    0.25      39.8  T
   3    -84.3436172  0.426252E-08  0.309E-04    0.25      50.0  T
   4    -84.3436172  0.481603E-08  0.309E-04    0.25      49.9  T
   5    -84.3436172 -0.104509E-07  0.325E-05    0.25     474.4  T
   6    -84.3436172 -0.264464E-10  0.827E-06    0.25    1866.0  T
     SCC iter.                  ...        0 min,  0.023 sec
     gradient                   ...        0 min,  0.077 sec
 * total energy  :   -83.6101526 Eh     change       -0.6828928E-05 Eh
   gradient norm :     0.0016507 Eh/α   predicted    -0.3917214E-05 ( -42.64%)
   displ. norm   :     0.1462327 α      lambda       -0.2384677E-04
   maximum displ.:     0.0711124 α      in ANC's #6, #3, #17, ...

........................................................................
.............................. CYCLE   47 ..............................
........................................................................
   1    -84.3430233 -0.843430E+02  0.484E-03    0.25       0.0  T
   2    -84.3430212  0.212169E-05  0.544E-03    0.25       2.8  T
   3    -84.3430237 -0.247152E-05  0.279E-03    0.25       5.5  T
   4    -84.3430243 -0.661448E-06  0.764E-04    0.25      20.2  T
   5    -84.3430243 -0.836128E-08  0.182E-04    0.25      84.6  T
   6    -84.3430243 -0.914369E-09  0.486E-05    0.25     317.7  T
     SCC iter.                  ...        0 min,  0.024 sec
     gradient                   ...        0 min,  0.079 sec
 * total energy  :   -83.6101663 Eh     change       -0.1369221E-04 Eh
   gradient norm :     0.0021602 Eh/α   predicted    -0.1206225E-04 ( -11.90%)
   displ. norm   :     0.0112309 α      lambda       -0.6277091E-05
   maximum displ.:     0.0064159 α      in ANC's #3, #2, #1, ...

........................................................................
.............................. CYCLE   48 ..............................
........................................................................
   1    -84.3432510 -0.843433E+02  0.951E-04    0.25       0.0  T
   2    -84.3432509  0.965769E-07  0.122E-03    0.25      12.6  T
   3    -84.3432511 -0.133704E-06  0.449E-04    0.25      34.3  T
   4    -84.3432511 -0.830306E-08  0.222E-04    0.25      69.5  T
   5    -84.3432511 -0.126032E-08  0.545E-05    0.25     283.0  T
   6    -84.3432511 -0.113246E-09  0.119E-05    0.25    1298.6  T
     SCC iter.                  ...        0 min,  0.024 sec
     gradient                   ...        0 min,  0.079 sec
 * total energy  :   -83.6101715 Eh     change       -0.5150110E-05 Eh
   gradient norm :     0.0014165 Eh/α   predicted    -0.3145323E-05 ( -38.93%)
   displ. norm   :     0.0698417 α      lambda       -0.1171545E-04
   maximum displ.:     0.0399570 α      in ANC's #3, #17, #2, ...

........................................................................
.............................. CYCLE   49 ..............................
........................................................................
   1    -84.3438553 -0.843439E+02  0.348E-03    0.25       0.0  T
   2    -84.3438534  0.191685E-05  0.518E-03    0.25       3.0  T
   3    -84.3438561 -0.272104E-05  0.137E-03    0.25      11.3  T
   4    -84.3438562 -0.547648E-07  0.766E-04    0.25      20.1  T
   5    -84.3438562 -0.161986E-07  0.198E-04    0.25      77.8  T
   6    -84.3438562 -0.686285E-09  0.408E-05    0.25     378.4  T
     SCC iter.                  ...        0 min,  0.024 sec
     gradient                   ...        0 min,  0.078 sec
 * total energy  :   -83.6101791 Eh     change       -0.7668673E-05 Eh
   gradient norm :     0.0011333 Eh/α   predicted    -0.5870594E-05 ( -23.45%)
   displ. norm   :     0.0495006 α      lambda       -0.3402250E-05
   maximum displ.:     0.0272488 α      in ANC's #3, #17, #2, ...

........................................................................
.............................. CYCLE   50 ..............................
........................................................................
   1    -84.3435917 -0.843436E+02  0.106E-03    0.25       0.0  T
   2    -84.3435916  0.107226E-06  0.124E-03    0.25      12.5  T
   3    -84.3435917 -0.129676E-06  0.585E-04    0.25      26.4  T
   4    -84.3435918 -0.257642E-07  0.201E-04    0.25      76.7  T
   5    -84.3435918 -0.107994E-08  0.577E-05    0.25     267.4  T
   6    -84.3435918 -0.146358E-09  0.151E-05    0.25    1022.4  T
     SCC iter.                  ...        0 min,  0.024 sec
     gradient                   ...        0 min,  0.077 sec
 * total energy  :   -83.6101834 Eh     change       -0.4298708E-05 Eh
   gradient norm :     0.0006216 Eh/α   predicted    -0.1703905E-05 ( -60.36%)
   displ. norm   :     0.1220235 α      lambda       -0.7156500E-05
   maximum displ.:     0.0670051 α      in ANC's #3, #17, #2, ...

   *** GEOMETRY OPTIMIZATION CONVERGED AFTER 50 ITERATIONS ***

------------------------------------------------------------------------
 total energy gain   :        -0.0278409 Eh      -17.4705 kcal/mol
 total RMSD          :         1.0361658 a0        0.5483 Å
 total power (kW/mol):        -1.4619276 (step)   -9.6996 (real)
------------------------------------------------------------------------

 ANCopt (total)                0 d,  0 h,  0 min,  7.536 sec
 optimizer setup                ...        0 min,  0.001 sec (  0.009%)
 model hessian                  ...        0 min,  0.077 sec (  1.019%)
 ANC generation                 ...        0 min,  0.007 sec (  0.098%)
 coordinate transformation      ...        0 min,  0.002 sec (  0.026%)
 single point calculation       ...        0 min,  7.419 sec ( 98.441%)
 optimization log               ...        0 min,  0.015 sec (  0.202%)
 hessian update                 ...        0 min,  0.002 sec (  0.023%)
 rational function              ...        0 min,  0.008 sec (  0.109%)

================
 final structure:
================
42
 xtb: 6.5.1 (579679a)
C           -5.54090732073731        1.92725171761745       -1.17578460103800
O           -4.56898419284836        1.51780784206998       -0.23954240713649
C           -3.55409883734586        0.69627150165200       -0.75720258938131
O           -3.60347577860337        0.41367756162578       -1.97391903838027
C           -2.56272057038854        0.30022165236532        0.15903780909737
N           -1.63850472291852       -0.55827407514429       -0.38561187935349
C           -0.62400024448627       -0.99156095825480        0.27408980538879
C            0.34449377055236       -1.96311968630713       -0.37074364857112
C            0.68250397781128       -3.14602683815956        0.54232860973895
C           -0.25605305121433       -2.48201257913235       -1.68067106573423
N            1.57399934642718       -1.22646416024035       -0.74682359033690
C            2.59589068164754       -0.88459021625182        0.06064117894955
O            2.74678500356056       -1.23189113623635        1.23016694040108
C            3.55234475546036       -0.00552298924538       -0.64641188520757
N            3.40044875431864        0.49267299173509       -1.84435695331272
N            4.51097086792644        1.24705117290689       -2.09952937041770
C            5.26672907558510        1.16138573884297       -1.05033683639932
C            6.58411486724816        1.80139011610573       -0.83515646492719
O            4.72228809155522        0.39008223081066       -0.09384498767033
N           -0.29263409504645       -0.48882112384177        1.54433357892074
C           -1.04337370985434        0.49416468029127        2.12572542319316
O           -0.54335346269652        1.17496119395623        3.03104210043943
C           -2.55546080926708        0.52419667360395        1.70575851326332
C           -3.06732930166163        1.96254008178632        2.06355506155940
O           -3.17503529967755       -0.44348001785678        2.40081800395616
H           -6.25962502375802        2.55775112714117       -0.64975681278539
H           -6.06879803794387        1.06864471582558       -1.61055069552610
H           -5.09204718783336        2.50321116537767       -1.99506225635298
H           -0.20108580412115       -3.77505564282527        0.64901189517221
H            0.99352143080245       -2.81516878248085        1.53100578481102
H            1.48343905190127       -3.74002014143110        0.10491805223408
H            0.45151509648878       -3.13577647304389       -2.18732533479871
H           -0.50901674754443       -1.64797242852205       -2.33592192558535
H           -1.16799788577130       -3.03972568342211       -1.47021333585969
H            1.59205638495307       -0.84721020717523       -1.68222485724997
H            6.91024594380119        2.28088696647925       -1.75451313447311
H            7.31722779393269        1.05531443463985       -0.53239856312931
H            6.51616413027737        2.54882769577802       -0.04438269032082
H            0.65724675543159       -0.59892853295485        1.86811940486428
H           -4.15537931071162        1.96948329289708        2.07982230896979
H           -2.70723740462191        2.70770952129358        1.35283133881182
H           -2.71486798062703        2.22611559772850        3.06254911416869
 
 Bond Distances (Angstroems)
 ---------------------------
C1-O2=1.4103         C1-H26=1.0912        C1-H27=1.0977        C1-H28=1.0975        O2-C1=1.4103         O2-C3=1.4046         
C3-O2=1.4046         C3-O4=1.2501         C3-C5=1.4068         O4-C3=1.2501         C5-C3=1.4068         C5-N6=1.3740         
C5-C23=1.5629        N6-C5=1.3740         N6-C7=1.2854         C7-N6=1.2854         C7-C8=1.5158         C7-N20=1.4057        
C8-C7=1.5158         C8-C9=1.5321         C8-C10=1.5316        C8-N11=1.4818        C9-C8=1.5321         C9-H29=1.0899        
C9-H30=1.0880        C9-H31=1.0889        C10-C8=1.5316        C10-H32=1.0885       C10-H33=1.0904       C10-H34=1.0895       
N11-C8=1.4818        N11-C12=1.3465       N11-H35=1.0095       C12-N11=1.3465       C12-O13=1.2293       C12-C14=1.4790       
O13-C12=1.2293       C14-C12=1.4790       C14-N15=1.3063       C14-O19=1.3530       N15-C14=1.3063       N15-N16=1.3666       
N16-N15=1.3666       N16-C17=1.2959       C17-N16=1.2959       C17-C18=1.4803       C17-O19=1.3440       C18-C17=1.4803       
C18-H36=1.0870       C18-H37=1.0889       C18-H38=1.0902       O19-C14=1.3530       O19-C17=1.3440       N20-C7=1.4057        
N20-C21=1.3667       N20-H39=1.0096       C21-N20=1.3667       C21-O22=1.2382       C21-C23=1.5696       O22-C21=1.2382       
C23-C5=1.5629        C23-C21=1.5696       C23-C24=1.5681       C23-O25=1.3429       C24-C23=1.5681       C24-H40=1.0882       
C24-H41=1.0909       C24-H42=1.0916       O25-C23=1.3429       H26-C1=1.0912        H27-C1=1.0977        H28-C1=1.0975        
H29-C9=1.0899        H30-C9=1.0880        H31-C9=1.0889        H32-C10=1.0885       H33-C10=1.0904       H34-C10=1.0895       
H35-N11=1.0095       H36-C18=1.0870       H37-C18=1.0889       H38-C18=1.0902       H39-N20=1.0096       H40-C24=1.0882       
H41-C24=1.0909       H42-C24=1.0916       
 C  H  Rav=1.0906 sigma=0.0030  Rmin=1.0870  Rmax=1.0977    15
 C  C  Rav=1.5162 sigma=0.0504  Rmin=1.4068  Rmax=1.5696     9
 N  H  Rav=1.0095 sigma=0.0000  Rmin=1.0095  Rmax=1.0096     2
 N  C  Rav=1.3578 sigma=0.0611  Rmin=1.2854  Rmax=1.4818     8
 N  N  Rav=1.3666 sigma=0.0000  Rmin=1.3666  Rmax=1.3666     1
 O  C  Rav=1.3215 sigma=0.0683  Rmin=1.2293  Rmax=1.4103     8
 
 selected bond angles (degree)
 --------------------
H26-C1-O2=107.56               H27-C1-O2=111.55               H27-C1-H26=109.03              H28-C1-O2=111.48               
H28-C1-H26=109.03              H28-C1-H27=108.15              C3-O2-C1=115.03                O4-C3-O2=117.54                
C5-C3-O2=115.71                C5-C3-O4=126.73                N6-C5-C3=113.06                C23-C5-C3=127.41               
C23-C5-N6=118.60               C7-N6-C5=122.55                C8-C7-N6=120.13                N20-C7-N6=121.96               
N20-C7-C8=117.58               C9-C8-C7=112.48                C10-C8-C7=109.30               C10-C8-C9=109.55               
N11-C8-C7=108.63               N11-C8-C9=110.61               N11-C8-C10=106.06              H29-C9-C8=108.97               
H30-C9-C8=111.71               H30-C9-H29=108.56              H31-C9-C8=110.12               H31-C9-H29=108.71              
H31-C9-H30=108.70              H32-C10-C8=110.29              H33-C10-C8=110.23              H33-C10-H32=109.30             
H34-C10-C8=109.66              H34-C10-H32=109.06             H34-C10-H33=108.27             
 
 selected dihedral angles (degree)
 ---------------------------------
C3-O2-C1-H26=180.30           C3-O2-C1-H27= 60.78           C3-O2-C1-H28=299.76           O4-C3-O2-C1=  0.20            
C5-C3-O2-C1=178.84            N6-C5-C3-O2=176.71            N6-C5-C3-O4=355.21            C23-C5-C3-O2=  8.01           
C23-C5-C3-O4=186.50           C7-N6-C5-C3=177.14            C7-N6-C5-C23=346.94           C8-C7-N6-C5=178.57            
N20-C7-N6-C5=351.82           C9-C8-C7-N6=226.67            C9-C8-C7-N20= 53.13           C10-C8-C7-N6=348.58           
C10-C8-C7-N20=175.04          N11-C8-C7-N6=103.89           N11-C8-C7-N20=290.34          H29-C9-C8-C7= 68.94           
H29-C9-C8-C10=307.18          H29-C9-C8-N11=190.61          H30-C9-C8-C7=309.00           H30-C9-C8-C10=187.23          
H30-C9-C8-N11= 70.66          H31-C9-C8-C7=188.10           H31-C9-C8-C10= 66.34          H31-C9-C8-N11=309.77          
H32-C10-C8-C7=176.63          H32-C10-C8-C9=300.29          H32-C10-C8-N11= 59.69         H33-C10-C8-C7= 55.85          
H33-C10-C8-C9=179.51          H33-C10-C8-N11=298.91         H34-C10-C8-C7=296.75          H34-C10-C8-C9= 60.40          
H34-C10-C8-N11=179.81         
           -------------------------------------------------
          |                Final Singlepoint                |
           -------------------------------------------------

          ...................................................
          :                      SETUP                      :
          :.................................................:
          :  # basis functions                 134          :
          :  # atomic orbitals                 134          :
          :  # shells                           84          :
          :  # electrons                       136          :
          :  # halogen bonds                     0          :
          :  max. iterations                   250          :
          :  Hamiltonian                  GFN1-xTB          :
          :  restarted?                      false          :
          :  GBSA solvation                   true          :
          :  PC potential                    false          :
          :  electronic temp.          300.0000000     K    :
          :  accuracy                    1.0000000          :
          :  -> integral cutoff          0.2500000E+02      :
          :  -> integral neglect         0.1000000E-07      :
          :  -> SCF convergence          0.1000000E-05 Eh   :
          :  -> wf. convergence          0.2000000E-04 e    :
          :  Broyden damping             0.4000000          :
          ...................................................

 iter      E             dE          RMSdq      gap      omega  full diag
   1    -84.3435918 -0.843436E+02  0.390E-06    0.25       0.0  T
   2    -84.3435918 -0.426326E-13  0.246E-06    0.25    6272.4  T
   3    -84.3435918  0.284217E-13  0.212E-06    0.25    7279.6  T

   *** convergence criteria satisfied after 3 iterations ***

         #    Occupation            Energy/Eh            Energy/eV
      -------------------------------------------------------------
         1        2.0000           -0.8442131             -22.9722
       ...           ...                  ...                  ...
        62        2.0000           -0.3992908             -10.8653
        63        2.0000           -0.3912617             -10.6468
        64        2.0000           -0.3851996             -10.4818
        65        2.0000           -0.3702097             -10.0739
        66        2.0000           -0.3071274              -8.3574
        67        1.9944           -0.2992938              -8.1442
        68        1.9873           -0.2985079              -8.1228 (HOMO)
        69        0.0183           -0.2892594              -7.8711 (LUMO)
        70                         -0.2415406              -6.5727
        71                         -0.2130004              -5.7960
        72                         -0.1767553              -4.8098
        73                         -0.1692186              -4.6047
       ...                                ...                  ...
       134                          0.7248231              19.7234
      -------------------------------------------------------------
                  HL-Gap            0.0092486 Eh            0.2517 eV
             Fermi-level           -0.2937094 Eh           -7.9922 eV

 SCC (total)                   0 d,  0 h,  0 min,  0.127 sec
 SCC setup                      ...        0 min,  0.002 sec (  1.585%)
 Dispersion                     ...        0 min,  0.000 sec (  0.290%)
 classical contributions        ...        0 min,  0.000 sec (  0.102%)
 integral evaluation            ...        0 min,  0.034 sec ( 26.907%)
 iterations                     ...        0 min,  0.012 sec (  9.525%)
 molecular gradient             ...        0 min,  0.077 sec ( 60.793%)
 printout                       ...        0 min,  0.001 sec (  0.751%)

         :::::::::::::::::::::::::::::::::::::::::::::::::::::
         ::                     SUMMARY                     ::
         :::::::::::::::::::::::::::::::::::::::::::::::::::::
         :: total energy             -83.610183429982 Eh    ::
         :: total w/o Gsasa/hb       -83.591165885031 Eh    ::
         :: gradient norm              0.000623219332 Eh/a0 ::
         :: HOMO-LUMO gap              0.251666911468 eV    ::
         ::.................................................::
         :: SCC energy               -84.343591758868 Eh    ::
         :: -> electrostatic           0.761606443274 Eh    ::
         :: -> Gsolv                  -0.303699360045 Eh    ::
         ::    -> Gelec               -0.284681815094 Eh    ::
         ::    -> Gsasa               -0.024132177908 Eh    ::
         ::    -> Ghb                 -0.002509646048 Eh    ::
         ::    -> Gshift               0.007624279005 Eh    ::
         :: repulsion energy           0.759328959145 Eh    ::
         :: dispersion energy         -0.025920630259 Eh    ::
         :: halogen bond corr.         0.000000000000 Eh    ::
         :: add. restraining           0.000000000000 Eh    ::
         :: total charge              -1.999999999462 e     ::
         :::::::::::::::::::::::::::::::::::::::::::::::::::::

           -------------------------------------------------
          |                Property Printout                |
           -------------------------------------------------

    * Orbital Energies and Occupations

         #    Occupation            Energy/Eh            Energy/eV
      -------------------------------------------------------------
         1        2.0000           -0.8442131             -22.9722
       ...           ...                  ...                  ...
        56        2.0000           -0.4402242             -11.9791
        57        2.0000           -0.4366970             -11.8831
        58        2.0000           -0.4301253             -11.7043
        59        2.0000           -0.4278241             -11.6417
        60        2.0000           -0.4210819             -11.4582
        61        2.0000           -0.4142381             -11.2720
        62        2.0000           -0.3992908             -10.8653
        63        2.0000           -0.3912617             -10.6468
        64        2.0000           -0.3851996             -10.4818
        65        2.0000           -0.3702097             -10.0739
        66        2.0000           -0.3071274              -8.3574
        67        1.9944           -0.2992938              -8.1442
        68        1.9873           -0.2985079              -8.1228 (HOMO)
        69        0.0183           -0.2892594              -7.8711 (LUMO)
        70                         -0.2415406              -6.5727
        71                         -0.2130004              -5.7960
        72                         -0.1767553              -4.8098
        73                         -0.1692186              -4.6047
        74                         -0.1361662              -3.7053
        75                         -0.1160248              -3.1572
        76                         -0.1068898              -2.9086
        77                         -0.1054724              -2.8701
        78                         -0.1034170              -2.8141
        79                         -0.0753058              -2.0492
       ...                                ...                  ...
       134                          0.7248231              19.7234
      -------------------------------------------------------------
                  HL-Gap            0.0092486 Eh            0.2517 eV
             Fermi-level           -0.2937094 Eh           -7.9922 eV

  Mulliken/CM5 charges         n(s)   n(p)   n(d)
     1C     0.18563  0.06755   0.961  2.853  0.000
     2O    -0.47513 -0.56291   1.699  4.776  0.000
     3C     0.48572  0.54543   0.981  2.534  0.000
     4O    -0.70143 -0.74344   1.749  4.953  0.000
     5C    -0.05769  0.01745   1.060  2.998  0.000
     6N    -0.38965 -0.57579   1.535  3.855  0.000
     7C     0.19690  0.34360   0.990  2.813  0.000
     8C     0.15122  0.18891   1.067  2.781  0.000
     9C    -0.09591 -0.23560   1.013  3.082  0.000
    10C    -0.09183 -0.23064   1.015  3.077  0.000
    11N    -0.34276 -0.69224   1.436  3.907  0.000
    12C     0.44743  0.55594   0.970  2.583  0.000
    13O    -0.60365 -0.65114   1.730  4.873  0.000
    14C     0.32275  0.44630   1.011  2.666  0.000
    15N    -0.27027 -0.38003   1.572  3.699  0.000
    16N    -0.27889 -0.38680   1.567  3.712  0.000
    17C     0.38025  0.48909   1.003  2.617  0.000
    18C    -0.11072 -0.24818   1.010  3.100  0.000
    19O    -0.35238 -0.40338   1.695  4.658  0.000
    20N    -0.33935 -0.67905   1.434  3.905  0.000
    21C     0.42507  0.52701   1.038  2.537  0.000
    22O    -0.65624 -0.69877   1.748  4.909  0.000
    23C     0.25663  0.28387   1.029  2.714  0.000
    24C    -0.10850 -0.24819   1.016  3.093  0.000
    25O    -0.86347 -0.90005   1.776  5.087  0.000
    26H     0.01221  0.07224   0.988  0.000  0.000
    27H     0.01315  0.07452   0.987  0.000  0.000
    28H     0.01273  0.07425   0.987  0.000  0.000
    29H     0.02771  0.08198   0.972  0.000  0.000
    30H     0.04537  0.10836   0.955  0.000  0.000
    31H     0.03018  0.08697   0.970  0.000  0.000
    32H     0.02556  0.08138   0.974  0.000  0.000
    33H     0.03485  0.09513   0.965  0.000  0.000
    34H     0.03409  0.09020   0.966  0.000  0.000
    35H     0.23443  0.44126   0.766  0.000  0.000
    36H     0.06236  0.11825   0.938  0.000  0.000
    37H     0.07082  0.12556   0.929  0.000  0.000
    38H     0.07202  0.12627   0.928  0.000  0.000
    39H     0.22504  0.43407   0.775  0.000  0.000
    40H     0.00282  0.06265   0.997  0.000  0.000
    41H    -0.01748  0.03874   1.017  0.000  0.000
    42H     0.00039  0.05922   1.000  0.000  0.000

Wiberg/Mayer (AO) data.
largest (>0.10) Wiberg bond orders for each atom

 ---------------------------------------------------------------------------
     #   Z sym  total        # sym  WBO       # sym  WBO       # sym  WBO
 ---------------------------------------------------------------------------
     1   6 C    3.921 --    26 H    0.987    27 H    0.980    28 H    0.980
                             2 O    0.951
     2   8 O    2.085 --     1 C    0.951     3 C    0.937
     3   6 C    3.838 --     4 O    1.451     5 C    1.315     2 O    0.937
     4   8 O    1.740 --     3 C    1.451     5 C    0.101
     5   6 C    3.803 --     3 C    1.315     6 N    1.201    23 C    0.918
                             4 O    0.101
     6   7 N    3.051 --     7 C    1.597     5 C    1.201
     7   6 C    3.906 --     6 N    1.597    20 N    1.019     8 C    0.969
     8   6 C    3.924 --    10 C    1.001     9 C    0.995     7 C    0.969
                            11 N    0.894
     9   6 C    3.992 --     8 C    0.995    31 H    0.986    29 H    0.986
                            30 H    0.980
    10   6 C    3.996 --     8 C    1.001    32 H    0.988    34 H    0.984
                            33 H    0.982
    11   7 N    3.344 --    12 C    1.260    35 H    0.904     8 C    0.894
                            13 O    0.174
    12   6 C    3.891 --    13 O    1.529    11 N    1.260    14 C    1.008
    13   8 O    1.852 --    12 C    1.529    11 N    0.174
    14   6 C    3.833 --    15 N    1.571    19 O    1.045    12 C    1.008
    15   7 N    2.959 --    14 C    1.571    16 N    1.187
    16   7 N    2.979 --    17 C    1.619    15 N    1.187
    17   6 C    3.862 --    16 N    1.619    19 O    1.075    18 C    1.029
    18   6 C    3.989 --    17 C    1.029    36 H    0.983    37 H    0.969
                            38 H    0.964
    19   8 O    2.295 --    17 C    1.075    14 C    1.045
    20   7 N    3.366 --    21 C    1.182     7 C    1.019    39 H    0.903
                            22 O    0.117
    21   6 C    3.817 --    22 O    1.556    20 N    1.182    23 C    0.879
    22   8 O    1.826 --    21 C    1.556    20 N    0.117
    23   6 C    3.964 --    25 O    1.123    24 C    0.946     5 C    0.918
                            21 C    0.879
    24   6 C    3.989 --    41 H    0.990    40 H    0.987    42 H    0.985
                            23 C    0.946
    25   8 O    1.415 --    23 C    1.123
    26   1 H    1.020 --     1 C    0.987
    27   1 H    1.022 --     1 C    0.980
    28   1 H    1.022 --     1 C    0.980
    29   1 H    1.007 --     9 C    0.986
    30   1 H    1.019 --     9 C    0.980
    31   1 H    1.004 --     9 C    0.986
    32   1 H    1.004 --    10 C    0.988
    33   1 H    1.021 --    10 C    0.982
    34   1 H    1.013 --    10 C    0.984
    35   1 H    0.964 --    11 N    0.904
    36   1 H    1.000 --    18 C    0.983
    37   1 H    0.998 --    18 C    0.969
    38   1 H    0.998 --    18 C    0.964
    39   1 H    0.971 --    20 N    0.903
    40   1 H    1.034 --    24 C    0.987
    41   1 H    1.017 --    24 C    0.990
    42   1 H    1.027 --    24 C    0.985
 ---------------------------------------------------------------------------

Topologies differ in total number of bonds
Writing topology from bond orders to xtbtopo.mol

 dipole moment from electron density (au)
     X       Y       Z   
   8.8924  -0.2479  -4.4279  total (Debye):   25.257

           -------------------------------------------------
          |                Geometry Summary                 |
           -------------------------------------------------

      molecular mass/u    :      351.3152409
   center of mass at/Å    :        0.0852521       0.0390003       0.0613154
  moments of inertia/u·Å² :        0.1360080E+04   0.4607839E+04   0.4667943E+04
rotational constants/cm⁻¹ :        0.1239459E-01   0.3658469E-02   0.3611362E-02

 * 33 selected distances

     #   Z          #   Z                                           value/Å
     1   6 C        2   8 O                                       1.4102584
     3   6 C        5   6 C                                       1.4068345
     5   6 C        6   7 N                                       1.3739845
     6   7 N        7   6 C                                       1.2853651
     8   6 C        9   6 C                                       1.5320645 (max)
     8   6 C       10   6 C                                       1.5316059
    11   7 N       12   6 C                                       1.3465286
    12   6 C       13   8 O                                       1.2292997
    14   6 C       15   7 N                                       1.3062712
    16   7 N       17   6 C                                       1.2958836
    17   6 C       18   6 C                                       1.4803425
    14   6 C       19   8 O                                       1.3529972
    17   6 C       19   8 O                                       1.3439502
     7   6 C       20   7 N                                       1.4057277
    20   7 N       21   6 C                                       1.3667069
    21   6 C       22   8 O                                       1.2381852
     1   6 C       26   1 H                                       1.0912333
     1   6 C       27   1 H                                       1.0976777
     1   6 C       28   1 H                                       1.0974611
     9   6 C       29   1 H                                       1.0898576
     9   6 C       30   1 H                                       1.0879714
     9   6 C       31   1 H                                       1.0888771
    10   6 C       32   1 H                                       1.0884662
    10   6 C       33   1 H                                       1.0903979
    10   6 C       34   1 H                                       1.0894861
    11   7 N       35   1 H                                       1.0095223 (min)
    18   6 C       36   1 H                                       1.0869662
    18   6 C       37   1 H                                       1.0889197
    18   6 C       38   1 H                                       1.0902310
    20   7 N       39   1 H                                       1.0095716
    24   6 C       40   1 H                                       1.0881939
    24   6 C       41   1 H                                       1.0909043
    24   6 C       42   1 H                                       1.0916457

 * 5 distinct bonds (by element types)

   Z      Z             #   av. dist./Å        max./Å        min./Å
   1 H    6 C          15     1.0905526     1.0976777     1.0869662
   6 C    6 C           4     1.4877118     1.5320645     1.4068345
   1 H    7 N           2     1.0095469     1.0095716     1.0095223
   6 C    7 N           7     1.3400668     1.4057277     1.2853651
   6 C    8 O           5     1.3149381     1.4102584     1.2292997


optimized geometry written to: xtbopt.xyz


           -------------------------------------------------
          | TOTAL ENERGY              -83.610183429982 Eh   |
          | GRADIENT NORM               0.000623219332 Eh/α |
          | HOMO-LUMO GAP               0.251666911468 eV   |
           -------------------------------------------------

------------------------------------------------------------------------
 * finished run on 2023/06/21 at 17:28:33.597     
------------------------------------------------------------------------
 total:
 * wall-time:     0 d,  0 h,  0 min,  8.002 sec
 *  cpu-time:     0 d,  0 h,  0 min,  7.815 sec
 * ratio c/w:     0.977 speedup
 SCF:
 * wall-time:     0 d,  0 h,  0 min,  0.243 sec
 *  cpu-time:     0 d,  0 h,  0 min,  0.201 sec
 * ratio c/w:     0.830 speedup
 ANC optimizer:
 * wall-time:     0 d,  0 h,  0 min,  7.670 sec
 *  cpu-time:     0 d,  0 h,  0 min,  7.561 sec
 * ratio c/w:     0.986 speedup

