      -----------------------------------------------------------      
     |                   =====================                   |     
     |                           x T B                           |     
     |                   =====================                   |     
     |                         S. Grimme                         |     
     |          Mulliken Center for Theoretical Chemistry        |     
     |                    University of Bonn                     |     
      -----------------------------------------------------------      

   * xtb version 6.5.1 (579679a) compiled by 'ehlert@majestix' on 2022-07-11

   xtb is free software: you can redistribute it and/or modify it under
   the terms of the GNU Lesser General Public License as published by
   the Free Software Foundation, either version 3 of the License, or
   (at your option) any later version.
   
   xtb is distributed in the hope that it will be useful,
   but WITHOUT ANY WARRANTY; without even the implied warranty of
   MERCHANTABILITY or FITNESS FOR A PARTICULAR PURPOSE.  See the
   GNU Lesser General Public License for more details.
   
   Cite this work as:
   * C. Bannwarth, E. Caldeweyher, S. Ehlert, A. Hansen, P. Pracht,
     J. Seibert, S. Spicher, S. Grimme, WIREs Comput. Mol. Sci., 2020, 11,
     e01493. DOI: 10.1002/wcms.1493
   
   for GFN2-xTB:
   * C. Bannwarth, S. Ehlert and S. Grimme., J. Chem. Theory Comput., 2019,
     15, 1652-1671. DOI: 10.1021/acs.jctc.8b01176
   for GFN1-xTB:
   * S. Grimme, C. Bannwarth, P. Shushkov, J. Chem. Theory Comput., 2017,
     13, 1989-2009. DOI: 10.1021/acs.jctc.7b00118
   for GFN0-xTB:
   * P. Pracht, E. Caldeweyher, S. Ehlert, S. Grimme, ChemRxiv, 2019, preprint.
     DOI: 10.26434/chemrxiv.8326202.v1
   for GFN-FF:
   * S. Spicher and S. Grimme, Angew. Chem. Int. Ed., 2020, 59, 15665-15673.
     DOI: 10.1002/anie.202004239
   
   for ALPB and GBSA implicit solvation:
   * S. Ehlert, M. Stahn, S. Spicher, S. Grimme, J. Chem. Theory Comput.,
     2021, 17, 4250-4261. DOI: 10.1021/acs.jctc.1c00471
   
   for DFT-D4:
   * E. Caldeweyher, C. Bannwarth and S. Grimme, J. Chem. Phys., 2017,
     147, 034112. DOI: 10.1063/1.4993215
   * E. Caldeweyher, S. Ehlert, A. Hansen, H. Neugebauer, S. Spicher,
     C. Bannwarth and S. Grimme, J. Chem. Phys., 2019, 150, 154122.
     DOI: 10.1063/1.5090222
   * E. Caldeweyher, J.-M. Mewes, S. Ehlert and S. Grimme, Phys. Chem. Chem. Phys.
     2020, 22, 8499-8512. DOI: 10.1039/D0CP00502A
   
   for sTDA-xTB:
   * S. Grimme and C. Bannwarth, J. Chem. Phys., 2016, 145, 054103.
     DOI: 10.1063/1.4959605
   
   in the mass-spec context:
   * V. Asgeirsson, C. Bauer and S. Grimme, Chem. Sci., 2017, 8, 4879.
     DOI: 10.1039/c7sc00601b
   * J. Koopman and S. Grimme, ACS Omega 2019, 4, 12, 15120-15133.
     DOI: 10.1021/acsomega.9b02011
   
   for metadynamics refer to:
   * S. Grimme, J. Chem. Theory Comput., 2019, 155, 2847-2862
     DOI: 10.1021/acs.jctc.9b00143
   
   for SPH calculations refer to:
   * S. Spicher and S. Grimme, J. Chem. Theory Comput., 2021, 17, 1701-1714
     DOI: 10.1021/acs.jctc.0c01306
   
   with help from (in alphabetical order)
   P. Atkinson, C. Bannwarth, F. Bohle, G. Brandenburg, E. Caldeweyher
   M. Checinski, S. Dohm, S. Ehlert, S. Ehrlich, I. Gerasimov, C. Hölzer
   A. Katbashev, J. Koopman, C. Lavigne, S. Lehtola, F. März, M. Müller,
   F. Musil, H. Neugebauer, J. Pisarek, C. Plett, P. Pracht, F. Pultar,
   J. Seibert, P. Shushkov, S. Spicher, M. Stahn, M. Steiner, T. Strunk,
   J. Stückrath, T. Rose, and J. Unsleber
   
 * started run on 2023/06/20 at 15:05:21.921     

           -------------------------------------------------
          |                Calculation Setup                |
           -------------------------------------------------

          program call               : /lustre/hpc/kemi/ree/PhD/git/ReactivityQM/dep/xtb-6.5.1/bin/xtb --gfn 1 /lustre/hpc/kemi/ree/PhD/git/ReactivityQM/calculations/R01/reac02prodN04/conf08/R01_reac02prodN04_conf08_gfn1.xyz --opt --vfukui --chrg 1 --uhf 0 --alpb DMSO
          hostname                   : node312
          coordinate file            : /lustre/hpc/kemi/ree/PhD/git/ReactivityQM/calculations/R01/reac02prodN04/conf08/R01_reac02prodN04_conf08_gfn1.xyz
          omp threads                :                     1

   ID    Z sym.   atoms
    1    6 C      1, 3, 5, 6, 8, 11-14, 17
    2    8 O      2, 4, 7, 9
    3    7 N      10, 15, 16
    4    1 H      18-33

           -------------------------------------------------
          |                 G F N 1 - x T B                 |
           -------------------------------------------------

        Reference                      10.1021/acs.jctc.7b00118
      * Hamiltonian:
        H0-scaling (s, p, d)           1.850000    2.250000    2.000000
        zeta-weighting                 0.000000
      * Dispersion:
        s8                             2.400000
        a1                             0.630000
        a2                             5.000000
        s9                             0.000000
      * Repulsion:
        kExp                           1.500000
        rExp                           1.000000
      * Coulomb:
        alpha                          2.000000
        third order                    atomic
        anisotropic                    false
      * Halogen bond correction:
        rad-scale                      1.300000
        damping                        0.440000

      * Solvation model:               ALPB
        Solvent                        DMSO
        Parameter file                 internal GFN1-xTB/ALPB
        Dielectric constant                4.6680E+01
        Reference state                gsolv [1 M gas/solution]
        Free energy shift                  7.6243E-03 Eh       4.7843E+00 kcal/mol
        Temperature                        2.9815E+02 K
        Density                            1.1000E+00 kg/L
        Solvent mass                       7.8130E+01 g/mol
        Interaction kernel             P16
        Born radius scaling (c1)           1.7672E+00
        Born radii integrator          GBOBC
        Born offset                        0.0000E+00 a0       0.0000E+00 AA
        H-bond correction              true
        Ion screening                  false
        Surface tension                    1.0000E-05 Eh       1.5569E+01 dyn/cm
        Grid points                               230 per atom

          ...................................................
          :                      SETUP                      :
          :.................................................:
          :  # basis functions                 100          :
          :  # atomic orbitals                 100          :
          :  # shells                           66          :
          :  # electrons                        94          :
          :  # halogen bonds                     0          :
          :  max. iterations                   250          :
          :  Hamiltonian                  GFN1-xTB          :
          :  restarted?                      false          :
          :  GBSA solvation                   true          :
          :  PC potential                    false          :
          :  electronic temp.          300.0000000     K    :
          :  accuracy                    1.0000000          :
          :  -> integral cutoff          0.2500000E+02      :
          :  -> integral neglect         0.1000000E-07      :
          :  -> SCF convergence          0.1000000E-05 Eh   :
          :  -> wf. convergence          0.2000000E-04 e    :
          :  Broyden damping             0.4000000          :
          ...................................................

 iter      E             dE          RMSdq      gap      omega  full diag
   1    -58.0817126 -0.580817E+02  0.810E+00    2.20       0.0  T
   2    -58.3698161 -0.288104E+00  0.483E+00    1.56       1.0  T
   3    -58.3371401  0.326761E-01  0.176E+00    1.53       1.0  T
   4    -58.3828154 -0.456753E-01  0.429E-01    1.45       1.0  T
   5    -58.3897958 -0.698041E-02  0.585E-02    1.42       1.0  T
   6    -58.3898452 -0.494029E-04  0.201E-02    1.42       1.0  T
   7    -58.3898520 -0.681263E-05  0.470E-03    1.42       3.7  T
   8    -58.3898523 -0.275500E-06  0.148E-03    1.42      11.7  T
   9    -58.3898523 -0.268753E-07  0.517E-04    1.43      33.7  T
  10    -58.3898523 -0.289250E-08  0.120E-04    1.43     144.7  T
  11    -58.3898523 -0.293461E-09  0.430E-05    1.43     404.4  T

   *** convergence criteria satisfied after 11 iterations ***

         #    Occupation            Energy/Eh            Energy/eV
      -------------------------------------------------------------
         1        2.0000           -0.8878615             -24.1599
       ...           ...                  ...                  ...
        41        2.0000           -0.5231588             -14.2359
        42        2.0000           -0.5226858             -14.2230
        43        2.0000           -0.5182725             -14.1029
        44        2.0000           -0.5109783             -13.9044
        45        2.0000           -0.5005904             -13.6218
        46        2.0000           -0.4835051             -13.1568
        47        2.0000           -0.4409718             -11.9995 (HOMO)
        48                         -0.3885834             -10.5739 (LUMO)
        49                         -0.3662974              -9.9675
        50                         -0.2884531              -7.8492
        51                         -0.2234844              -6.0813
        52                         -0.1691112              -4.6017
       ...                                ...                  ...
       100                          0.6154663              16.7477
      -------------------------------------------------------------
                  HL-Gap            0.0523884 Eh            1.4256 eV
             Fermi-level           -0.4147776 Eh          -11.2867 eV

 SCC (total)                   0 d,  0 h,  0 min,  0.098 sec
 SCC setup                      ...        0 min,  0.002 sec (  1.629%)
 Dispersion                     ...        0 min,  0.000 sec (  0.287%)
 classical contributions        ...        0 min,  0.000 sec (  0.087%)
 integral evaluation            ...        0 min,  0.025 sec ( 25.457%)
 iterations                     ...        0 min,  0.022 sec ( 22.539%)
 molecular gradient             ...        0 min,  0.048 sec ( 48.545%)
 printout                       ...        0 min,  0.001 sec (  1.416%)

         :::::::::::::::::::::::::::::::::::::::::::::::::::::
         ::                     SUMMARY                     ::
         :::::::::::::::::::::::::::::::::::::::::::::::::::::
         :: total energy             -57.838423902759 Eh    ::
         :: total w/o Gsasa/hb       -57.817528868954 Eh    ::
         :: gradient norm              0.151886246318 Eh/a0 ::
         :: HOMO-LUMO gap              1.425560538740 eV    ::
         ::.................................................::
         :: SCC energy               -58.389852308015 Eh    ::
         :: -> electrostatic           0.315384870335 Eh    ::
         :: -> Gsolv                  -0.105992834441 Eh    ::
         ::    -> Gelec               -0.085097800636 Eh    ::
         ::    -> Gsasa               -0.017843163797 Eh    ::
         ::    -> Ghb                 -0.010676149013 Eh    ::
         ::    -> Gshift               0.007624279005 Eh    ::
         :: repulsion energy           0.571070019324 Eh    ::
         :: dispersion energy         -0.019641614067 Eh    ::
         :: halogen bond corr.         0.000000000000 Eh    ::
         :: add. restraining           0.000000000000 Eh    ::
         :: total charge               1.000000000000 e     ::
         :::::::::::::::::::::::::::::::::::::::::::::::::::::

      ----------------------------------------------------------- 
     |                   =====================                   |
     |                        A N C O P T                        |
     |                   =====================                   |
     |               Approximate Normal Coordinate               |
     |                Rational Function Optimizer                |
      ----------------------------------------------------------- 

          ...................................................
          :                      SETUP                      :
          :.................................................:
          :   optimization level            normal          :
          :   max. optcycles                   200          :
          :   ANC micro-cycles                  20          :
          :   degrees of freedom                93          :
          :.................................................:
          :   RF solver                   davidson          :
          :   write xtbopt.log                true          :
          :   linear?                        false          :
          :   energy convergence         0.5000000E-05 Eh   :
          :   grad. convergence          0.1000000E-02 Eh/α :
          :   maximium RF displ.         1.0000000          :
          :   Hlow (freq-cutoff)         0.1000000E-01      :
          :   Hmax (freq-cutoff)         5.0000000          :
          :   S6 in model hess.         20.0000000          :
          ...................................................

generating ANC from model Hessian ...
Using Lindh-Hessian (1995)
 Shifting diagonal of input Hessian by   9.336933939820878E-003
 Lowest  eigenvalues of input Hessian
    0.000000    0.000000    0.000000    0.000000    0.000000    0.000000
    0.010000    0.010234    0.011597    0.012064    0.014006    0.014676
    0.015407    0.017006    0.018338    0.018443    0.018844    0.019923
 Highest eigenvalues
    1.784716    1.939432    1.966711    2.078885    2.273011    2.382559
 

........................................................................
.............................. CYCLE    1 ..............................
........................................................................
   1    -58.3898523 -0.583899E+02  0.173E-05    1.43       0.0  T
   2    -58.3898523 -0.213163E-11  0.687E-06    1.43    2533.6  T
   3    -58.3898523 -0.206057E-12  0.589E-06    1.43    2953.8  T
     SCC iter.                  ...        0 min,  0.007 sec
     gradient                   ...        0 min,  0.051 sec
 * total energy  :   -57.8384239 Eh     change       -0.1408296E-10 Eh
   gradient norm :     0.1518857 Eh/α   predicted     0.0000000E+00 (-100.00%)
   displ. norm   :     0.3663061 α      lambda       -0.2312350E-01
   maximum displ.:     0.1757108 α      in ANC's #15, #22, #25, ...

........................................................................
.............................. CYCLE    2 ..............................
........................................................................
   1    -58.4209709 -0.584210E+02  0.132E-01    1.87       0.0  T
   2    -58.4213992 -0.428345E-03  0.580E-02    1.85       1.0  T
   3    -58.4214826 -0.834171E-04  0.276E-02    1.85       1.0  T
   4    -58.4214851 -0.247576E-05  0.109E-02    1.85       1.6  T
   5    -58.4214859 -0.839908E-06  0.144E-03    1.84      12.1  T
   6    -58.4214860 -0.592171E-07  0.475E-04    1.84      36.6  T
   7    -58.4214860 -0.289907E-08  0.169E-04    1.84     103.3  T
   8    -58.4214860 -0.155531E-09  0.378E-05    1.84     461.1  T
     SCC iter.                  ...        0 min,  0.015 sec
     gradient                   ...        0 min,  0.054 sec
 * total energy  :   -57.8553197 Eh     change       -0.1689576E-01 Eh
   gradient norm :     0.0711254 Eh/α   predicted    -0.1313550E-01 ( -22.26%)
   displ. norm   :     0.3350865 α      lambda       -0.9704114E-02
   maximum displ.:     0.1771604 α      in ANC's #15, #25, #22, ...

........................................................................
.............................. CYCLE    3 ..............................
........................................................................
   1    -58.4382293 -0.584382E+02  0.119E-01    2.21       0.0  T
   2    -58.4385935 -0.364117E-03  0.437E-02    2.19       1.0  T
   3    -58.4386371 -0.436778E-04  0.221E-02    2.19       1.0  T
   4    -58.4386386 -0.150272E-05  0.877E-03    2.19       2.0  T
   5    -58.4386391 -0.460111E-06  0.127E-03    2.19      13.7  T
   6    -58.4386391 -0.420476E-07  0.368E-04    2.19      47.3  T
   7    -58.4386391 -0.154228E-08  0.140E-04    2.19     124.5  T
   8    -58.4386391 -0.783089E-10  0.258E-05    2.19     675.4  T
     SCC iter.                  ...        0 min,  0.015 sec
     gradient                   ...        0 min,  0.055 sec
 * total energy  :   -57.8607140 Eh     change       -0.5394302E-02 Eh
   gradient norm :     0.0179572 Eh/α   predicted    -0.5398594E-02 (   0.08%)
   displ. norm   :     0.2039870 α      lambda       -0.1252489E-02
   maximum displ.:     0.1094505 α      in ANC's #15, #7, #19, ...

........................................................................
.............................. CYCLE    4 ..............................
........................................................................
   1    -58.4359820 -0.584360E+02  0.177E-02    2.22       0.0  T
   2    -58.4359933 -0.112495E-04  0.997E-03    2.22       1.7  T
   3    -58.4359953 -0.202226E-05  0.438E-03    2.23       4.0  T
   4    -58.4359953 -0.350107E-07  0.184E-03    2.23       9.5  T
   5    -58.4359954 -0.149304E-07  0.269E-04    2.23      64.7  T
   6    -58.4359954 -0.187146E-08  0.112E-04    2.23     155.2  T
   7    -58.4359954 -0.142961E-09  0.404E-05    2.23     430.7  T
     SCC iter.                  ...        0 min,  0.013 sec
     gradient                   ...        0 min,  0.055 sec
 * total energy  :   -57.8615891 Eh     change       -0.8751751E-03 Eh
   gradient norm :     0.0122228 Eh/α   predicted    -0.6523958E-03 ( -25.46%)
   displ. norm   :     0.2255376 α      lambda       -0.7883036E-03
   maximum displ.:     0.0943661 α      in ANC's #15, #7, #19, ...

........................................................................
.............................. CYCLE    5 ..............................
........................................................................
   1    -58.4340018 -0.584340E+02  0.184E-02    2.24       0.0  T
   2    -58.4340158 -0.140298E-04  0.105E-02    2.25       1.7  T
   3    -58.4340187 -0.285169E-05  0.395E-03    2.25       4.4  T
   4    -58.4340187 -0.452290E-07  0.178E-03    2.26       9.8  T
   5    -58.4340187 -0.112473E-07  0.370E-04    2.26      47.1  T
   6    -58.4340187 -0.328664E-08  0.120E-04    2.26     145.1  T
   7    -58.4340187 -0.127258E-09  0.442E-05    2.26     393.5  T
     SCC iter.                  ...        0 min,  0.013 sec
     gradient                   ...        0 min,  0.055 sec
 * total energy  :   -57.8621062 Eh     change       -0.5170629E-03 Eh
   gradient norm :     0.0088338 Eh/α   predicted    -0.4142257E-03 ( -19.89%)
   displ. norm   :     0.1911560 α      lambda       -0.3819978E-03
   maximum displ.:     0.0783099 α      in ANC's #7, #3, #13, ...

........................................................................
.............................. CYCLE    6 ..............................
........................................................................
   1    -58.4341097 -0.584341E+02  0.110E-02    2.27       0.0  T
   2    -58.4341137 -0.392529E-05  0.502E-03    2.28       3.5  T
   3    -58.4341143 -0.614692E-06  0.220E-03    2.28       7.9  T
   4    -58.4341143 -0.222346E-07  0.900E-04    2.28      19.3  T
   5    -58.4341143 -0.296701E-08  0.267E-04    2.28      65.1  T
   6    -58.4341143 -0.149621E-08  0.610E-05    2.28     285.4  T
   7    -58.4341143 -0.359819E-10  0.273E-05    2.28     637.8  T
     SCC iter.                  ...        0 min,  0.013 sec
     gradient                   ...        0 min,  0.056 sec
 * total energy  :   -57.8623802 Eh     change       -0.2739559E-03 Eh
   gradient norm :     0.0076123 Eh/α   predicted    -0.1979805E-03 ( -27.73%)
   displ. norm   :     0.2043264 α      lambda       -0.3145733E-03
   maximum displ.:     0.0953635 α      in ANC's #3, #13, #17, ...

........................................................................
.............................. CYCLE    7 ..............................
........................................................................
   1    -58.4353343 -0.584353E+02  0.835E-03    2.29       0.0  T
   2    -58.4353358 -0.152148E-05  0.408E-03    2.30       4.3  T
   3    -58.4353360 -0.207457E-06  0.225E-03    2.30       7.7  T
   4    -58.4353360 -0.170836E-07  0.593E-04    2.30      29.3  T
   5    -58.4353360 -0.380633E-08  0.204E-04    2.30      85.3  T
   6    -58.4353360 -0.909786E-09  0.523E-05    2.30     332.6  T
   7    -58.4353360 -0.218350E-10  0.197E-05    2.30     882.9  T
     SCC iter.                  ...        0 min,  0.013 sec
     gradient                   ...        0 min,  0.056 sec
 * total energy  :   -57.8626028 Eh     change       -0.2226500E-03 Eh
   gradient norm :     0.0066194 Eh/α   predicted    -0.1638558E-03 ( -26.41%)
   displ. norm   :     0.1881333 α      lambda       -0.2171404E-03
   maximum displ.:     0.1056920 α      in ANC's #3, #13, #17, ...

........................................................................
.............................. CYCLE    8 ..............................
........................................................................
   1    -58.4370488 -0.584370E+02  0.662E-03    2.31       0.0  T
   2    -58.4370494 -0.606013E-06  0.343E-03    2.31       5.1  T
   3    -58.4370494 -0.294706E-07  0.172E-03    2.31      10.1  T
   4    -58.4370494 -0.784108E-08  0.351E-04    2.31      49.6  T
   5    -58.4370494 -0.142118E-08  0.881E-05    2.31     197.6  T
   6    -58.4370494 -0.142165E-09  0.398E-05    2.31     437.5  T
     SCC iter.                  ...        0 min,  0.011 sec
     gradient                   ...        0 min,  0.055 sec
 * total energy  :   -57.8627609 Eh     change       -0.1581034E-03 Eh
   gradient norm :     0.0052362 Eh/α   predicted    -0.1124163E-03 ( -28.90%)
   displ. norm   :     0.2087947 α      lambda       -0.1731790E-03
   maximum displ.:     0.1295762 α      in ANC's #3, #17, #13, ...

........................................................................
.............................. CYCLE    9 ..............................
........................................................................
   1    -58.4375756 -0.584376E+02  0.496E-03    2.31       0.0  T
   2    -58.4375763 -0.609007E-06  0.264E-03    2.31       6.6  T
   3    -58.4375763 -0.504401E-07  0.149E-03    2.31      11.7  T
   4    -58.4375763 -0.513825E-08  0.421E-04    2.31      41.3  T
   5    -58.4375763 -0.173536E-08  0.110E-04    2.31     158.2  T
   6    -58.4375763 -0.334005E-09  0.344E-05    2.31     505.9  T
     SCC iter.                  ...        0 min,  0.012 sec
     gradient                   ...        0 min,  0.056 sec
 * total energy  :   -57.8628855 Eh     change       -0.1246265E-03 Eh
   gradient norm :     0.0055299 Eh/α   predicted    -0.9036606E-04 ( -27.49%)
   displ. norm   :     0.1940833 α      lambda       -0.1482457E-03
   maximum displ.:     0.1276853 α      in ANC's #3, #6, #10, ...

........................................................................
.............................. CYCLE   10 ..............................
........................................................................
   1    -58.4391692 -0.584392E+02  0.876E-03    2.31       0.0  T
   2    -58.4391699 -0.700817E-06  0.447E-03    2.31       3.9  T
   3    -58.4391699 -0.239334E-07  0.202E-03    2.31       8.6  T
   4    -58.4391699 -0.286636E-07  0.515E-04    2.31      33.8  T
   5    -58.4391699 -0.286199E-08  0.136E-04    2.31     128.3  T
   6    -58.4391699 -0.361297E-09  0.389E-05    2.31     447.3  T
     SCC iter.                  ...        0 min,  0.012 sec
     gradient                   ...        0 min,  0.056 sec
 * total energy  :   -57.8629782 Eh     change       -0.9267623E-04 Eh
   gradient norm :     0.0053733 Eh/α   predicted    -0.7691840E-04 ( -17.00%)
   displ. norm   :     0.2244803 α      lambda       -0.1133446E-03
   maximum displ.:     0.1409453 α      in ANC's #3, #17, #5, ...

........................................................................
.............................. CYCLE   11 ..............................
........................................................................
   1    -58.4369589 -0.584370E+02  0.734E-03    2.30       0.0  T
   2    -58.4369595 -0.590844E-06  0.370E-03    2.31       4.7  T
   3    -58.4369595 -0.339071E-07  0.166E-03    2.31      10.5  T
   4    -58.4369595 -0.122773E-07  0.443E-04    2.31      39.3  T
   5    -58.4369595 -0.142003E-08  0.120E-04    2.31     145.0  T
   6    -58.4369595 -0.280899E-09  0.313E-05    2.31     555.9  T
     SCC iter.                  ...        0 min,  0.012 sec
     gradient                   ...        0 min,  0.056 sec
 * total energy  :   -57.8630131 Eh     change       -0.3486915E-04 Eh
   gradient norm :     0.0078312 Eh/α   predicted    -0.5952835E-04 (  70.72%)
   displ. norm   :     0.0545077 α      lambda       -0.9072919E-04
   maximum displ.:     0.0255216 α      in ANC's #4, #12, #14, ...

........................................................................
.............................. CYCLE   12 ..............................
........................................................................
   1    -58.4391561 -0.584392E+02  0.715E-03    2.32       0.0  T
   2    -58.4391568 -0.725892E-06  0.338E-03    2.31       5.1  T
   3    -58.4391569 -0.803576E-07  0.180E-03    2.31       9.7  T
   4    -58.4391569 -0.217203E-07  0.441E-04    2.31      39.5  T
   5    -58.4391569 -0.177075E-08  0.169E-04    2.31     103.1  T
   6    -58.4391569 -0.476938E-09  0.186E-05    2.31     937.9  T
     SCC iter.                  ...        0 min,  0.012 sec
     gradient                   ...        0 min,  0.055 sec
 * total energy  :   -57.8630658 Eh     change       -0.5271400E-04 Eh
   gradient norm :     0.0030121 Eh/α   predicted    -0.4550926E-04 ( -13.67%)
   displ. norm   :     0.0636467 α      lambda       -0.2763157E-04
   maximum displ.:     0.0301939 α      in ANC's #3, #2, #5, ...

........................................................................
.............................. CYCLE   13 ..............................
........................................................................
   1    -58.4388862 -0.584389E+02  0.496E-03    2.31       0.0  T
   2    -58.4388865 -0.366470E-06  0.209E-03    2.31       8.3  T
   3    -58.4388866 -0.753762E-07  0.127E-03    2.31      13.7  T
   4    -58.4388866 -0.777482E-08  0.245E-04    2.31      71.0  T
   5    -58.4388866 -0.567965E-09  0.743E-05    2.31     234.2  T
   6    -58.4388866 -0.106439E-09  0.166E-05    2.31    1050.3  T
     SCC iter.                  ...        0 min,  0.012 sec
     gradient                   ...        0 min,  0.055 sec
 * total energy  :   -57.8630836 Eh     change       -0.1780465E-04 Eh
   gradient norm :     0.0024078 Eh/α   predicted    -0.1389612E-04 ( -21.95%)
   displ. norm   :     0.0679554 α      lambda       -0.2186858E-04
   maximum displ.:     0.0398785 α      in ANC's #2, #3, #6, ...

........................................................................
.............................. CYCLE   14 ..............................
........................................................................
   1    -58.4391306 -0.584391E+02  0.486E-03    2.31       0.0  T
   2    -58.4391313 -0.744624E-06  0.216E-03    2.31       8.1  T
   3    -58.4391315 -0.161346E-06  0.104E-03    2.31      16.7  T
   4    -58.4391315 -0.455313E-08  0.369E-04    2.31      47.2  T
   5    -58.4391315 -0.221895E-09  0.850E-05    2.31     204.8  T
   6    -58.4391315 -0.144382E-09  0.183E-05    2.31     949.1  T
     SCC iter.                  ...        0 min,  0.012 sec
     gradient                   ...        0 min,  0.056 sec
 * total energy  :   -57.8630963 Eh     change       -0.1267283E-04 Eh
   gradient norm :     0.0015596 Eh/α   predicted    -0.1098776E-04 ( -13.30%)
   displ. norm   :     0.0703937 α      lambda       -0.1031673E-04
   maximum displ.:     0.0428837 α      in ANC's #2, #3, #6, ...

........................................................................
.............................. CYCLE   15 ..............................
........................................................................
   1    -58.4387772 -0.584388E+02  0.321E-03    2.31       0.0  T
   2    -58.4387775 -0.288266E-06  0.140E-03    2.32      12.5  T
   3    -58.4387775 -0.424755E-07  0.768E-04    2.32      22.7  T
   4    -58.4387775 -0.257838E-08  0.239E-04    2.32      72.9  T
   5    -58.4387775 -0.279684E-09  0.516E-05    2.32     337.5  T
   6    -58.4387775 -0.431726E-10  0.137E-05    2.32    1269.5  T
     SCC iter.                  ...        0 min,  0.012 sec
     gradient                   ...        0 min,  0.056 sec
 * total energy  :   -57.8631065 Eh     change       -0.1024194E-04 Eh
   gradient norm :     0.0020592 Eh/α   predicted    -0.5174334E-05 ( -49.48%)
   displ. norm   :     0.0585383 α      lambda       -0.1284527E-04
   maximum displ.:     0.0367332 α      in ANC's #2, #3, #5, ...

........................................................................
.............................. CYCLE   16 ..............................
........................................................................
   1    -58.4388353 -0.584388E+02  0.169E-03    2.32       0.0  T
   2    -58.4388354 -0.105485E-06  0.628E-04    2.32      27.7  T
   3    -58.4388354 -0.622983E-08  0.312E-04    2.32      55.8  T
   4    -58.4388354 -0.386528E-09  0.160E-04    2.32     109.1  T
   5    -58.4388354 -0.145327E-09  0.371E-05    2.32     469.6  T
     SCC iter.                  ...        0 min,  0.010 sec
     gradient                   ...        0 min,  0.056 sec
 * total energy  :   -57.8631170 Eh     change       -0.1046587E-04 Eh
   gradient norm :     0.0016222 Eh/α   predicted    -0.6452570E-05 ( -38.35%)
   displ. norm   :     0.2111197 α      lambda       -0.2341341E-04
   maximum displ.:     0.1308437 α      in ANC's #2, #3, #5, ...

........................................................................
.............................. CYCLE   17 ..............................
........................................................................
   1    -58.4387596 -0.584388E+02  0.361E-03    2.32       0.0  T
   2    -58.4387600 -0.417969E-06  0.155E-03    2.32      11.2  T
   3    -58.4387600 -0.352833E-07  0.711E-04    2.32      24.5  T
   4    -58.4387600 -0.507100E-09  0.312E-04    2.32      55.8  T
   5    -58.4387600 -0.744052E-09  0.626E-05    2.32     278.1  T
   6    -58.4387600 -0.608011E-10  0.241E-05    2.32     721.7  T
     SCC iter.                  ...        0 min,  0.012 sec
     gradient                   ...        0 min,  0.055 sec
 * total energy  :   -57.8631327 Eh     change       -0.1569165E-04 Eh
   gradient norm :     0.0021146 Eh/α   predicted    -0.1193996E-04 ( -23.91%)
   displ. norm   :     0.0134701 α      lambda       -0.6413527E-05
   maximum displ.:     0.0059876 α      in ANC's #6, #9, #13, ...

........................................................................
.............................. CYCLE   18 ..............................
........................................................................
   1    -58.4390985 -0.584391E+02  0.119E-03    2.32       0.0  T
   2    -58.4390986 -0.582167E-07  0.482E-04    2.32      36.1  T
   3    -58.4390986 -0.273552E-08  0.245E-04    2.32      70.9  T
   4    -58.4390986 -0.132729E-10  0.106E-04    2.32     164.0  T
   5    -58.4390986 -0.962075E-10  0.228E-05    2.32     763.4  T
     SCC iter.                  ...        0 min,  0.010 sec
     gradient                   ...        0 min,  0.056 sec
 * total energy  :   -57.8631379 Eh     change       -0.5210194E-05 Eh
   gradient norm :     0.0012205 Eh/α   predicted    -0.3211634E-05 ( -38.36%)
   displ. norm   :     0.0948489 α      lambda       -0.1458211E-04
   maximum displ.:     0.0512075 α      in ANC's #5, #3, #2, ...

........................................................................
.............................. CYCLE   19 ..............................
........................................................................
   1    -58.4391625 -0.584392E+02  0.419E-03    2.32       0.0  T
   2    -58.4391632 -0.692293E-06  0.156E-03    2.32      11.2  T
   3    -58.4391632 -0.216553E-07  0.824E-04    2.32      21.1  T
   4    -58.4391632  0.430376E-10  0.328E-04    2.32      53.1  T
   5    -58.4391632 -0.114533E-08  0.780E-05    2.32     223.2  T
   6    -58.4391632 -0.111953E-09  0.184E-05    2.32     946.2  T
     SCC iter.                  ...        0 min,  0.012 sec
     gradient                   ...        0 min,  0.056 sec
 * total energy  :   -57.8631463 Eh     change       -0.8382634E-05 Eh
   gradient norm :     0.0022137 Eh/α   predicted    -0.7323356E-05 ( -12.64%)
   displ. norm   :     0.0199176 α      lambda       -0.6613715E-05
   maximum displ.:     0.0092517 α      in ANC's #2, #5, #13, ...

........................................................................
.............................. CYCLE   20 ..............................
........................................................................
   1    -58.4393172 -0.584393E+02  0.136E-03    2.32       0.0  T
   2    -58.4393173 -0.519471E-07  0.594E-04    2.32      29.3  T
   3    -58.4393173 -0.858321E-09  0.340E-04    2.32      51.2  T
   4    -58.4393173  0.193623E-10  0.728E-05    2.32     239.1  T
   5    -58.4393173 -0.112536E-09  0.176E-05    2.32     990.8  T
     SCC iter.                  ...        0 min,  0.011 sec
     gradient                   ...        0 min,  0.055 sec
 * total energy  :   -57.8631512 Eh     change       -0.4936037E-05 Eh
   gradient norm :     0.0015158 Eh/α   predicted    -0.3312889E-05 ( -32.88%)
   displ. norm   :     0.1095390 α      lambda       -0.1189446E-04
   maximum displ.:     0.0670838 α      in ANC's #5, #2, #3, ...
 * RMSD in coord.:     0.3550853 α      energy gain  -0.2472730E-01 Eh

generating ANC from model Hessian ...
Using Lindh-Hessian (1995)
 Shifting diagonal of input Hessian by   9.397083580954098E-003
 Lowest  eigenvalues of input Hessian
    0.000000    0.000000    0.000000    0.000000    0.000000    0.000000
    0.010000    0.010017    0.011316    0.012400    0.013761    0.014747
    0.015879    0.017930    0.018448    0.019087    0.019426    0.020286
 Highest eigenvalues
    1.883517    2.026437    2.074620    2.201995    2.382343    2.488222
 

........................................................................
.............................. CYCLE   21 ..............................
........................................................................
   1    -58.4389226 -0.584389E+02  0.271E-03    2.32       0.0  T
   2    -58.4389229 -0.314093E-06  0.109E-03    2.32      15.9  T
   3    -58.4389229 -0.102816E-07  0.576E-04    2.32      30.2  T
   4    -58.4389229 -0.226947E-10  0.226E-04    2.32      77.1  T
   5    -58.4389229 -0.572228E-09  0.618E-05    2.32     281.9  T
   6    -58.4389229 -0.445723E-10  0.135E-05    2.32    1286.9  T
     SCC iter.                  ...        0 min,  0.011 sec
     gradient                   ...        0 min,  0.056 sec
 * total energy  :   -57.8631603 Eh     change       -0.9071043E-05 Eh
   gradient norm :     0.0015864 Eh/α   predicted     0.0000000E+00 (-100.00%)
   displ. norm   :     0.0228796 α      lambda       -0.5790867E-05
   maximum displ.:     0.0163991 α      in ANC's #5, #14, #3, ...

........................................................................
.............................. CYCLE   22 ..............................
........................................................................
   1    -58.4393488 -0.584393E+02  0.167E-03    2.33       0.0  T
   2    -58.4393489 -0.902795E-07  0.663E-04    2.33      26.2  T
   3    -58.4393489 -0.167452E-08  0.379E-04    2.33      45.9  T
   4    -58.4393489  0.310436E-10  0.111E-04    2.33     156.8  T
   5    -58.4393489 -0.274476E-09  0.292E-05    2.33     596.3  T
     SCC iter.                  ...        0 min,  0.009 sec
     gradient                   ...        0 min,  0.055 sec
 * total energy  :   -57.8631666 Eh     change       -0.6290440E-05 Eh
   gradient norm :     0.0007035 Eh/α   predicted    -0.3576495E-05 ( -43.14%)
   displ. norm   :     0.0386977 α      lambda       -0.5810849E-05
   maximum displ.:     0.0307640 α      in ANC's #5, #3, #1, ...

........................................................................
.............................. CYCLE   23 ..............................
........................................................................
   1    -58.4395133 -0.584395E+02  0.148E-03    2.33       0.0  T
   2    -58.4395134 -0.865193E-07  0.429E-04    2.33      40.5  T
   3    -58.4395134 -0.243455E-08  0.233E-04    2.33      74.8  T
   4    -58.4395134 -0.160291E-09  0.101E-04    2.33     172.9  T
   5    -58.4395134 -0.591456E-10  0.251E-05    2.33     694.1  T
     SCC iter.                  ...        0 min,  0.010 sec
     gradient                   ...        0 min,  0.056 sec
 * total energy  :   -57.8631726 Eh     change       -0.6081757E-05 Eh
   gradient norm :     0.0010458 Eh/α   predicted    -0.2907671E-05 ( -52.19%)
   displ. norm   :     0.0519406 α      lambda       -0.5992948E-05
   maximum displ.:     0.0393613 α      in ANC's #5, #3, #1, ...

........................................................................
.............................. CYCLE   24 ..............................
........................................................................
   1    -58.4393043 -0.584393E+02  0.129E-03    2.32       0.0  T
   2    -58.4393043 -0.295201E-07  0.487E-04    2.32      35.7  T
   3    -58.4393043 -0.275816E-08  0.302E-04    2.32      57.7  T
   4    -58.4393043 -0.531301E-09  0.873E-05    2.32     199.5  T
   5    -58.4393043 -0.489280E-10  0.244E-05    2.32     712.8  T
     SCC iter.                  ...        0 min,  0.010 sec
     gradient                   ...        0 min,  0.055 sec
 * total energy  :   -57.8631797 Eh     change       -0.7012317E-05 Eh
   gradient norm :     0.0008592 Eh/α   predicted    -0.3001086E-05 ( -57.20%)
   displ. norm   :     0.0601407 α      lambda       -0.5309760E-05
   maximum displ.:     0.0462241 α      in ANC's #5, #1, #3, ...

........................................................................
.............................. CYCLE   25 ..............................
........................................................................
   1    -58.4392602 -0.584393E+02  0.108E-03    2.32       0.0  T
   2    -58.4392603 -0.339105E-07  0.413E-04    2.32      42.1  T
   3    -58.4392603 -0.154289E-08  0.228E-04    2.32      76.3  T
   4    -58.4392603 -0.122412E-09  0.886E-05    2.32     196.5  T
   5    -58.4392603 -0.967688E-10  0.262E-05    2.32     663.2  T
     SCC iter.                  ...        0 min,  0.010 sec
     gradient                   ...        0 min,  0.056 sec
 * total energy  :   -57.8631857 Eh     change       -0.6007156E-05 Eh
   gradient norm :     0.0005656 Eh/α   predicted    -0.2660642E-05 ( -55.71%)
   displ. norm   :     0.0492384 α      lambda       -0.3234189E-05
   maximum displ.:     0.0387661 α      in ANC's #5, #18, #8, ...

........................................................................
.............................. CYCLE   26 ..............................
........................................................................
   1    -58.4392663 -0.584393E+02  0.860E-04    2.32       0.0  T
   2    -58.4392664 -0.291706E-07  0.255E-04    2.32      68.2  T
   3    -58.4392664 -0.906304E-09  0.127E-04    2.32     136.7  T
   4    -58.4392664 -0.961791E-10  0.662E-05    2.32     263.1  T
     SCC iter.                  ...        0 min,  0.007 sec
     gradient                   ...        0 min,  0.049 sec
 * total energy  :   -57.8631895 Eh     change       -0.3837294E-05 Eh
   gradient norm :     0.0005585 Eh/α   predicted    -0.1627297E-05 ( -57.59%)
   displ. norm   :     0.0445811 α      lambda       -0.2604587E-05
   maximum displ.:     0.0357514 α      in ANC's #5, #18, #2, ...

   *** GEOMETRY OPTIMIZATION CONVERGED AFTER 26 ITERATIONS ***

------------------------------------------------------------------------
 total energy gain   :        -0.0247656 Eh      -15.5406 kcal/mol
 total RMSD          :         0.3631222 a0        0.1922 Å
 total power (kW/mol):        -2.5008487 (step)  -26.2140 (real)
------------------------------------------------------------------------

 ANCopt (total)                0 d,  0 h,  0 min,  2.480 sec
 optimizer setup                ...        0 min,  0.001 sec (  0.030%)
 model hessian                  ...        0 min,  0.050 sec (  2.023%)
 ANC generation                 ...        0 min,  0.003 sec (  0.101%)
 coordinate transformation      ...        0 min,  0.001 sec (  0.024%)
 single point calculation       ...        0 min,  2.415 sec ( 97.359%)
 optimization log               ...        0 min,  0.005 sec (  0.214%)
 hessian update                 ...        0 min,  0.001 sec (  0.020%)
 rational function              ...        0 min,  0.003 sec (  0.137%)

================
 final structure:
================
33
 xtb: 6.5.1 (579679a)
C            4.35397479126947        0.87148158399148        0.79978044405648
O            2.96748711792979        0.53057939737975        0.60321534354888
C            2.63441355621340       -0.72874395034039        0.78840130055684
O            3.42972657749504       -1.59110190114117        1.10188391677269
C            1.21068546940211       -1.07084103126835        0.48861476336185
C            0.92020570461339       -2.37827205875862        0.18212700118003
O            1.77565616780443       -3.37397810987987        0.27014985115688
C           -0.41031213226500       -2.74714647272058       -0.33762639647298
O           -0.78863288280582       -3.85416056465316       -0.62707880083388
N           -1.21945442584355       -1.63255798866040       -0.50280661816931
C           -0.96832676940451       -0.37450662585174       -0.13814061223288
C           -2.13489764522379        0.57959354876063       -0.40576025042741
C           -2.95451696091247        0.74733799162657        0.88244093685880
C           -1.69759424744909        1.92744955453434       -0.99779080773320
N           -2.98570384171763       -0.11051472699672       -1.37377426697777
N            0.20292346588922       -0.09332499523314        0.40895478330946
C            0.45973437002847        1.20738082925320        1.03816829140890
H            4.66690377840374        0.56764032052062        1.80021661013186
H            4.41764888162354        1.95088041723572        0.68427904486232
H            4.96301133519550        0.36358495904855        0.04958248320036
H            2.65103932865373       -3.06359301385368        0.61641408342291
H           -2.14254044632535       -1.74547591315152       -0.94333558324628
H           -2.35768566683348        1.16573870093687        1.68937723150211
H           -3.78675828198049        1.42005483981846        0.68179252459406
H           -3.34501168734441       -0.21933665255774        1.19691906389931
H           -0.89307265282753        1.78588371221663       -1.71710951106872
H           -1.37648980796819        2.62804846926556       -0.23134337372615
H           -2.55266267277193        2.36412291129793       -1.51213980294524
H           -3.93610653047110        0.22007906655761       -1.28582524508057
H           -2.67038439251622        0.09506443064698       -2.31189604092039
H           -0.47861812072719        1.63907018350610        1.36394396073156
H            1.09133279786876        1.05282082394331        1.90831091642096
H            0.95402782299705        1.86674426452692        0.32813775885863
 
 Bond Distances (Angstroems)
 ---------------------------
C1-O2=1.4412         C1-H18=1.0914        C1-H19=1.0874        C1-H20=1.0916        O2-C1=1.4412         O2-C3=1.3157         
C3-O2=1.3157         C3-O4=1.2143         C3-C5=1.4946         O4-C3=1.2143         C5-C3=1.4946         C5-C6=1.3739         
C5-N16=1.4062        C6-C5=1.3739         C6-O7=1.3157         C6-C8=1.4753         O7-C6=1.3157         O7-H21=0.9912        
C8-C6=1.4753         C8-O9=1.2052         C8-N10=1.3872        O9-C8=1.2052         N10-C8=1.3872        N10-C11=1.3337       
N10-H22=1.0290       C11-N10=1.3337       C11-C12=1.5306       C11-N16=1.3230       C12-C11=1.5306       C12-C13=1.5360       
C12-C14=1.5357       C12-N15=1.4619       C13-C12=1.5360       C13-H23=1.0874       C13-H24=1.0888       C13-H25=1.0890       
C14-C12=1.5357       C14-H26=1.0884       C14-H27=1.0869       C14-H28=1.0892       N15-C12=1.4619       N15-H29=1.0101       
N15-H30=1.0108       N16-C5=1.4062        N16-C11=1.3230       N16-C17=1.4675       C17-N16=1.4675       C17-H31=1.0830       
C17-H32=1.0863       C17-H33=1.0878       H18-C1=1.0914        H19-C1=1.0874        H20-C1=1.0916        H21-O7=0.9912        
H22-N10=1.0290       H23-C13=1.0874       H24-C13=1.0888       H25-C13=1.0890       H26-C14=1.0884       H27-C14=1.0869       
H28-C14=1.0892       H29-N15=1.0101       H30-N15=1.0108       H31-C17=1.0830       H32-C17=1.0863       H33-C17=1.0878       
 C  H  Rav=1.0881 sigma=0.0022  Rmin=1.0830  Rmax=1.0916    12
 C  C  Rav=1.4910 sigma=0.0571  Rmin=1.3739  Rmax=1.5360     6
 N  H  Rav=1.0166 sigma=0.0088  Rmin=1.0101  Rmax=1.0290     3
 N  C  Rav=1.3966 sigma=0.0561  Rmin=1.3230  Rmax=1.4675     6
 O  H  Rav=0.9912 sigma=0.0000  Rmin=0.9912  Rmax=0.9912     1
 O  C  Rav=1.2984 sigma=0.0858  Rmin=1.2052  Rmax=1.4412     5
 
 selected bond angles (degree)
 --------------------
H18-C1-O2=109.57               H19-C1-O2=106.06               H19-C1-H18=110.91              H20-C1-O2=109.45               
H20-C1-H18=109.90              H20-C1-H19=110.86              C3-O2-C1=116.79                O4-C3-O2=123.39                
C5-C3-O2=115.59                C5-C3-O4=120.87                C6-C5-C3=117.64                N16-C5-C3=122.34               
N16-C5-C6=119.82               O7-C6-C5=124.60                C8-C6-C5=120.48                C8-C6-O7=114.88                
H21-O7-C6=111.14               O9-C8-C6=126.68                N10-C8-C6=111.54               N10-C8-O9=121.76               
C11-N10-C8=127.99              H22-N10-C8=119.08              H22-N10-C11=112.92             
 
 selected dihedral angles (degree)
 ---------------------------------
C3-O2-C1-H18=304.29           C3-O2-C1-H19=184.52           C3-O2-C1-H20= 64.87           O4-C3-O2-C1=359.56            
C5-C3-O2-C1=183.95            C6-C5-C3-O2=156.47            C6-C5-C3-O4=340.74            N16-C5-C3-O2=341.58           
N16-C5-C3-O4=165.85           O7-C6-C5-C3=  7.50            O7-C6-C5-N16=182.53           C8-C6-C5-C3=190.08            
C8-C6-C5-N16=  5.11           H21-O7-C6-C5=  1.92           H21-O7-C6-C8=179.47           O9-C8-C6-C5=180.89            
O9-C8-C6-O7=  3.23            N10-C8-C6-C5=  2.48           N10-C8-C6-O7=184.82           C11-N10-C8-C6=353.22          
C11-N10-C8-O9=174.72          H22-N10-C8-C6=174.26          H22-N10-C8-O9=355.77          
           -------------------------------------------------
          |                Final Singlepoint                |
           -------------------------------------------------

          ...................................................
          :                      SETUP                      :
          :.................................................:
          :  # basis functions                 100          :
          :  # atomic orbitals                 100          :
          :  # shells                           66          :
          :  # electrons                        94          :
          :  # halogen bonds                     0          :
          :  max. iterations                   250          :
          :  Hamiltonian                  GFN1-xTB          :
          :  restarted?                      false          :
          :  GBSA solvation                   true          :
          :  PC potential                    false          :
          :  electronic temp.          300.0000000     K    :
          :  accuracy                    1.0000000          :
          :  -> integral cutoff          0.2500000E+02      :
          :  -> integral neglect         0.1000000E-07      :
          :  -> SCF convergence          0.1000000E-05 Eh   :
          :  -> wf. convergence          0.2000000E-04 e    :
          :  Broyden damping             0.4000000          :
          ...................................................

 iter      E             dE          RMSdq      gap      omega  full diag
   1    -58.4392664 -0.584393E+02  0.159E-05    2.32       0.0  T
   2    -58.4392664 -0.228795E-11  0.799E-06    2.32    2178.1  T
   3    -58.4392664 -0.163425E-12  0.463E-06    2.32    3760.6  T

   *** convergence criteria satisfied after 3 iterations ***

         #    Occupation            Energy/Eh            Energy/eV
      -------------------------------------------------------------
         1        2.0000           -0.8862888             -24.1171
       ...           ...                  ...                  ...
        41        2.0000           -0.5249977             -14.2859
        42        2.0000           -0.5208652             -14.1735
        43        2.0000           -0.5202212             -14.1559
        44        2.0000           -0.5155428             -14.0286
        45        2.0000           -0.4934311             -13.4269
        46        2.0000           -0.4757921             -12.9470
        47        2.0000           -0.4488310             -12.2133 (HOMO)
        48                         -0.3636105              -9.8943 (LUMO)
        49                         -0.3480476              -9.4709
        50                         -0.2811503              -7.6505
        51                         -0.2152448              -5.8571
        52                         -0.1681384              -4.5753
       ...                                ...                  ...
       100                          0.7141336              19.4326
      -------------------------------------------------------------
                  HL-Gap            0.0852205 Eh            2.3190 eV
             Fermi-level           -0.4062208 Eh          -11.0538 eV

 SCC (total)                   0 d,  0 h,  0 min,  0.091 sec
 SCC setup                      ...        0 min,  0.001 sec (  1.483%)
 Dispersion                     ...        0 min,  0.000 sec (  0.242%)
 classical contributions        ...        0 min,  0.000 sec (  0.083%)
 integral evaluation            ...        0 min,  0.025 sec ( 27.548%)
 iterations                     ...        0 min,  0.007 sec (  7.340%)
 molecular gradient             ...        0 min,  0.057 sec ( 62.557%)
 printout                       ...        0 min,  0.001 sec (  0.690%)

         :::::::::::::::::::::::::::::::::::::::::::::::::::::
         ::                     SUMMARY                     ::
         :::::::::::::::::::::::::::::::::::::::::::::::::::::
         :: total energy             -57.863189499657 Eh    ::
         :: total w/o Gsasa/hb       -57.842793746952 Eh    ::
         :: gradient norm              0.000559289286 Eh/a0 ::
         :: HOMO-LUMO gap              2.318967713500 eV    ::
         ::.................................................::
         :: SCC energy               -58.439266378132 Eh    ::
         :: -> electrostatic           0.306018910923 Eh    ::
         :: -> Gsolv                  -0.104688354717 Eh    ::
         ::    -> Gelec               -0.084292602012 Eh    ::
         ::    -> Gsasa               -0.017804277020 Eh    ::
         ::    -> Ghb                 -0.010215754689 Eh    ::
         ::    -> Gshift               0.007624279005 Eh    ::
         :: repulsion energy           0.595790883887 Eh    ::
         :: dispersion energy         -0.019714005411 Eh    ::
         :: halogen bond corr.         0.000000000000 Eh    ::
         :: add. restraining           0.000000000000 Eh    ::
         :: total charge               1.000000000000 e     ::
         :::::::::::::::::::::::::::::::::::::::::::::::::::::

           -------------------------------------------------
          |                Property Printout                |
           -------------------------------------------------

    * Orbital Energies and Occupations

         #    Occupation            Energy/Eh            Energy/eV
      -------------------------------------------------------------
         1        2.0000           -0.8862888             -24.1171
       ...           ...                  ...                  ...
        35        2.0000           -0.5632064             -15.3256
        36        2.0000           -0.5446420             -14.8205
        37        2.0000           -0.5390367             -14.6679
        38        2.0000           -0.5352932             -14.5661
        39        2.0000           -0.5303369             -14.4312
        40        2.0000           -0.5280907             -14.3701
        41        2.0000           -0.5249977             -14.2859
        42        2.0000           -0.5208652             -14.1735
        43        2.0000           -0.5202212             -14.1559
        44        2.0000           -0.5155428             -14.0286
        45        2.0000           -0.4934311             -13.4269
        46        2.0000           -0.4757921             -12.9470
        47        2.0000           -0.4488310             -12.2133 (HOMO)
        48                         -0.3636105              -9.8943 (LUMO)
        49                         -0.3480476              -9.4709
        50                         -0.2811503              -7.6505
        51                         -0.2152448              -5.8571
        52                         -0.1681384              -4.5753
        53                         -0.1502299              -4.0880
        54                         -0.1478902              -4.0243
        55                         -0.1407065              -3.8288
        56                         -0.1222526              -3.3267
        57                         -0.1126813              -3.0662
        58                         -0.1071796              -2.9165
       ...                                ...                  ...
       100                          0.7141336              19.4326
      -------------------------------------------------------------
                  HL-Gap            0.0852205 Eh            2.3190 eV
             Fermi-level           -0.4062208 Eh          -11.0538 eV

  Mulliken/CM5 charges         n(s)   n(p)   n(d)
     1C     0.15819  0.03636   0.990  2.852  0.000
     2O    -0.39738 -0.49157   1.684  4.713  0.000
     3C     0.58695  0.64986   0.960  2.454  0.000
     4O    -0.54268 -0.61296   1.719  4.824  0.000
     5C     0.03139  0.10012   1.046  2.922  0.000
     6C     0.26900  0.30461   1.026  2.705  0.000
     7O    -0.47911 -0.66658   1.691  4.788  0.000
     8C     0.47819  0.58163   0.982  2.539  0.000
     9O    -0.51138 -0.55054   1.718  4.794  0.000
    10N    -0.26201 -0.60318   1.439  3.823  0.000
    11C     0.28886  0.43738   1.041  2.670  0.000
    12C     0.14196  0.17412   1.073  2.785  0.000
    13C    -0.11085 -0.25299   1.027  3.084  0.000
    14C    -0.12395 -0.26713   1.029  3.095  0.000
    15N    -0.51964 -0.99272   1.479  4.041  0.000
    16N    -0.13394 -0.38990   1.446  3.688  0.000
    17C     0.03374 -0.05719   1.004  2.962  0.000
    18H     0.07069  0.13298   0.929  0.000  0.000
    19H     0.07131  0.13169   0.929  0.000  0.000
    20H     0.07008  0.13147   0.930  0.000  0.000
    21H     0.43037  0.62054   0.570  0.000  0.000
    22H     0.30440  0.51665   0.696  0.000  0.000
    23H     0.05547  0.11036   0.945  0.000  0.000
    24H     0.07626  0.13170   0.924  0.000  0.000
    25H     0.06249  0.11981   0.938  0.000  0.000
    26H     0.05715  0.11328   0.943  0.000  0.000
    27H     0.05917  0.11415   0.941  0.000  0.000
    28H     0.07679  0.13345   0.923  0.000  0.000
    29H     0.25411  0.44537   0.746  0.000  0.000
    30H     0.24600  0.43823   0.754  0.000  0.000
    31H     0.07543  0.14154   0.925  0.000  0.000
    32H     0.09112  0.16081   0.909  0.000  0.000
    33H     0.09180  0.15870   0.908  0.000  0.000

Wiberg/Mayer (AO) data.
largest (>0.10) Wiberg bond orders for each atom

 ---------------------------------------------------------------------------
     #   Z sym  total        # sym  WBO       # sym  WBO       # sym  WBO
 ---------------------------------------------------------------------------
     1   6 C    3.839 --    19 H    0.984    18 H    0.978    20 H    0.977
                             2 O    0.865
     2   8 O    2.235 --     3 C    1.156     1 C    0.865     4 O    0.135
     3   6 C    3.864 --     4 O    1.619     2 O    1.156     5 C    1.008
     4   8 O    1.974 --     3 C    1.619     2 O    0.135
     5   6 C    3.917 --     6 C    1.508    16 N    1.060     3 C    1.008
                             7 O    0.110
     6   6 C    3.925 --     5 C    1.508     7 O    1.180     8 C    1.020
     7   8 O    2.134 --     6 C    1.180    21 H    0.744     5 C    0.110
     8   6 C    3.901 --     9 O    1.676    10 N    1.079     6 C    1.020
     9   8 O    1.961 --     8 C    1.676    10 N    0.118
    10   7 N    3.495 --    11 C    1.299     8 C    1.079    22 H    0.821
                             9 O    0.118
    11   6 C    3.887 --    16 N    1.395    10 N    1.299    12 C    0.966
    12   6 C    3.952 --    15 N    0.993    14 C    0.983    13 C    0.972
                            11 C    0.966
    13   6 C    3.985 --    25 H    0.983    24 H    0.978    23 H    0.977
                            12 C    0.972
    14   6 C    3.987 --    26 H    0.984    12 C    0.983    28 H    0.978
                            27 H    0.978
    15   7 N    3.011 --    12 C    0.993    30 H    0.931    29 H    0.924
    16   7 N    3.570 --    11 C    1.395     5 C    1.060    17 C    0.908
    17   6 C    3.895 --    32 H    0.975    31 H    0.973    33 H    0.969
                            16 N    0.908
    18   1 H    1.002 --     1 C    0.978
    19   1 H    1.005 --     1 C    0.984
    20   1 H    1.001 --     1 C    0.977
    21   1 H    0.830 --     7 O    0.744
    22   1 H    0.930 --    10 N    0.821
    23   1 H    1.000 --    13 C    0.977
    24   1 H    0.994 --    13 C    0.978
    25   1 H    0.998 --    13 C    0.983
    26   1 H    0.997 --    14 C    0.984
    27   1 H    0.999 --    14 C    0.978
    28   1 H    0.997 --    14 C    0.978
    29   1 H    0.939 --    15 N    0.924
    30   1 H    0.942 --    15 N    0.931
    31   1 H    1.003 --    17 C    0.973
    32   1 H    0.998 --    17 C    0.975
    33   1 H    1.002 --    17 C    0.969
 ---------------------------------------------------------------------------

Topologies differ in total number of bonds
Writing topology from bond orders to xtbtopo.mol

 dipole moment from electron density (au)
     X       Y       Z   
  -0.6646   3.5125   0.1768  total (Debye):    9.097

           -------------------------------------------------
          |                Geometry Summary                 |
           -------------------------------------------------

      molecular mass/u    :      242.2521403
   center of mass at/Å    :        0.3064056      -0.7007761       0.1278681
  moments of inertia/u·Å² :        0.7534301E+03   0.1360902E+04   0.1966252E+04
rotational constants/cm⁻¹ :        0.2237451E-01   0.1238710E-01   0.8573487E-02

 * 30 selected distances

     #   Z          #   Z                                           value/Å
     1   6 C        2   8 O                                       1.4412497
     2   8 O        3   6 C                                       1.3157232
     3   6 C        4   8 O                                       1.2142717
     5   6 C        6   6 C                                       1.3739321
     6   6 C        7   8 O                                       1.3156650
     8   6 C        9   8 O                                       1.2051513
     8   6 C       10   7 N                                       1.3871927
    10   7 N       11   6 C                                       1.3336941
    12   6 C       13   6 C                                       1.5360263 (max)
    12   6 C       14   6 C                                       1.5357248
    12   6 C       15   7 N                                       1.4619070
     5   6 C       16   7 N                                       1.4062247
    11   6 C       16   7 N                                       1.3229527
    16   7 N       17   6 C                                       1.4675481
     1   6 C       18   1 H                                       1.0913830
     1   6 C       19   1 H                                       1.0874268
     1   6 C       20   1 H                                       1.0916417
     7   8 O       21   1 H                                       0.9912284 (min)
    10   7 N       22   1 H                                       1.0290307
    13   6 C       23   1 H                                       1.0873882
    13   6 C       24   1 H                                       1.0887762
    13   6 C       25   1 H                                       1.0889641
    14   6 C       26   1 H                                       1.0884464
    14   6 C       27   1 H                                       1.0869171
    14   6 C       28   1 H                                       1.0892111
    15   7 N       29   1 H                                       1.0100954
    15   7 N       30   1 H                                       1.0108223
    17   6 C       31   1 H                                       1.0830471
    17   6 C       32   1 H                                       1.0862568
    17   6 C       33   1 H                                       1.0877636

 * 6 distinct bonds (by element types)

   Z      Z             #   av. dist./Å        max./Å        min./Å
   1 H    6 C          12     1.0881018     1.0916417     1.0830471
   6 C    6 C           3     1.4818944     1.5360263     1.3739321
   1 H    7 N           3     1.0166495     1.0290307     1.0100954
   6 C    7 N           6     1.3965866     1.4675481     1.3229527
   1 H    8 O           1     0.9912284     0.9912284     0.9912284
   6 C    8 O           5     1.2984122     1.4412497     1.2051513


optimized geometry written to: xtbopt.xyz


           -------------------------------------------------
          | TOTAL ENERGY              -57.863189499657 Eh   |
          | GRADIENT NORM               0.000559289286 Eh/α |
          | HOMO-LUMO GAP               2.318967713500 eV   |
           -------------------------------------------------

------------------------------------------------------------------------
 * finished run on 2023/06/20 at 15:05:24.685     
------------------------------------------------------------------------
 total:
 * wall-time:     0 d,  0 h,  0 min,  2.764 sec
 *  cpu-time:     0 d,  0 h,  0 min,  2.704 sec
 * ratio c/w:     0.978 speedup
 SCF:
 * wall-time:     0 d,  0 h,  0 min,  0.099 sec
 *  cpu-time:     0 d,  0 h,  0 min,  0.097 sec
 * ratio c/w:     0.979 speedup
 ANC optimizer:
 * wall-time:     0 d,  0 h,  0 min,  2.585 sec
 *  cpu-time:     0 d,  0 h,  0 min,  2.568 sec
 * ratio c/w:     0.993 speedup

