      -----------------------------------------------------------      
     |                   =====================                   |     
     |                           x T B                           |     
     |                   =====================                   |     
     |                         S. Grimme                         |     
     |          Mulliken Center for Theoretical Chemistry        |     
     |                    University of Bonn                     |     
      -----------------------------------------------------------      

   * xtb version 6.5.1 (579679a) compiled by 'ehlert@majestix' on 2022-07-11

   xtb is free software: you can redistribute it and/or modify it under
   the terms of the GNU Lesser General Public License as published by
   the Free Software Foundation, either version 3 of the License, or
   (at your option) any later version.
   
   xtb is distributed in the hope that it will be useful,
   but WITHOUT ANY WARRANTY; without even the implied warranty of
   MERCHANTABILITY or FITNESS FOR A PARTICULAR PURPOSE.  See the
   GNU Lesser General Public License for more details.
   
   Cite this work as:
   * C. Bannwarth, E. Caldeweyher, S. Ehlert, A. Hansen, P. Pracht,
     J. Seibert, S. Spicher, S. Grimme, WIREs Comput. Mol. Sci., 2020, 11,
     e01493. DOI: 10.1002/wcms.1493
   
   for GFN2-xTB:
   * C. Bannwarth, S. Ehlert and S. Grimme., J. Chem. Theory Comput., 2019,
     15, 1652-1671. DOI: 10.1021/acs.jctc.8b01176
   for GFN1-xTB:
   * S. Grimme, C. Bannwarth, P. Shushkov, J. Chem. Theory Comput., 2017,
     13, 1989-2009. DOI: 10.1021/acs.jctc.7b00118
   for GFN0-xTB:
   * P. Pracht, E. Caldeweyher, S. Ehlert, S. Grimme, ChemRxiv, 2019, preprint.
     DOI: 10.26434/chemrxiv.8326202.v1
   for GFN-FF:
   * S. Spicher and S. Grimme, Angew. Chem. Int. Ed., 2020, 59, 15665-15673.
     DOI: 10.1002/anie.202004239
   
   for ALPB and GBSA implicit solvation:
   * S. Ehlert, M. Stahn, S. Spicher, S. Grimme, J. Chem. Theory Comput.,
     2021, 17, 4250-4261. DOI: 10.1021/acs.jctc.1c00471
   
   for DFT-D4:
   * E. Caldeweyher, C. Bannwarth and S. Grimme, J. Chem. Phys., 2017,
     147, 034112. DOI: 10.1063/1.4993215
   * E. Caldeweyher, S. Ehlert, A. Hansen, H. Neugebauer, S. Spicher,
     C. Bannwarth and S. Grimme, J. Chem. Phys., 2019, 150, 154122.
     DOI: 10.1063/1.5090222
   * E. Caldeweyher, J.-M. Mewes, S. Ehlert and S. Grimme, Phys. Chem. Chem. Phys.
     2020, 22, 8499-8512. DOI: 10.1039/D0CP00502A
   
   for sTDA-xTB:
   * S. Grimme and C. Bannwarth, J. Chem. Phys., 2016, 145, 054103.
     DOI: 10.1063/1.4959605
   
   in the mass-spec context:
   * V. Asgeirsson, C. Bauer and S. Grimme, Chem. Sci., 2017, 8, 4879.
     DOI: 10.1039/c7sc00601b
   * J. Koopman and S. Grimme, ACS Omega 2019, 4, 12, 15120-15133.
     DOI: 10.1021/acsomega.9b02011
   
   for metadynamics refer to:
   * S. Grimme, J. Chem. Theory Comput., 2019, 155, 2847-2862
     DOI: 10.1021/acs.jctc.9b00143
   
   for SPH calculations refer to:
   * S. Spicher and S. Grimme, J. Chem. Theory Comput., 2021, 17, 1701-1714
     DOI: 10.1021/acs.jctc.0c01306
   
   with help from (in alphabetical order)
   P. Atkinson, C. Bannwarth, F. Bohle, G. Brandenburg, E. Caldeweyher
   M. Checinski, S. Dohm, S. Ehlert, S. Ehrlich, I. Gerasimov, C. Hölzer
   A. Katbashev, J. Koopman, C. Lavigne, S. Lehtola, F. März, M. Müller,
   F. Musil, H. Neugebauer, J. Pisarek, C. Plett, P. Pracht, F. Pultar,
   J. Seibert, P. Shushkov, S. Spicher, M. Stahn, M. Steiner, T. Strunk,
   J. Stückrath, T. Rose, and J. Unsleber
   
 * started run on 2023/06/20 at 15:30:03.174     

           -------------------------------------------------
          |                Calculation Setup                |
           -------------------------------------------------

          program call               : /lustre/hpc/kemi/ree/PhD/git/ReactivityQM/dep/xtb-6.5.1/bin/xtb --gfn 1 /lustre/hpc/kemi/ree/PhD/git/ReactivityQM/calculations/RaltegravirCLI/reac02prodN10/conf10/RaltegravirCLI_reac02prodN10_conf10_gfn1.xyz --opt --vfukui --chrg 1 --uhf 0 --alpb DMSO
          hostname                   : node308
          coordinate file            : /lustre/hpc/kemi/ree/PhD/git/ReactivityQM/calculations/RaltegravirCLI/reac02prodN10/conf10/RaltegravirCLI_reac02prodN10_conf10_gfn1.xyz
          omp threads                :                     1

   ID    Z sym.   atoms
    1    6 C      1-5, 7, 9, 11-14, 17, 18, 20, 22-24
    2    7 N      6, 10, 15, 16
    3    8 O      8, 19, 21
    4    9 F      25
    5    1 H      26-47

           -------------------------------------------------
          |                 G F N 1 - x T B                 |
           -------------------------------------------------

        Reference                      10.1021/acs.jctc.7b00118
      * Hamiltonian:
        H0-scaling (s, p, d)           1.850000    2.250000    2.000000
        zeta-weighting                 0.000000
      * Dispersion:
        s8                             2.400000
        a1                             0.630000
        a2                             5.000000
        s9                             0.000000
      * Repulsion:
        kExp                           1.500000
        rExp                           1.000000
      * Coulomb:
        alpha                          2.000000
        third order                    atomic
        anisotropic                    false
      * Halogen bond correction:
        rad-scale                      1.300000
        damping                        0.440000

      * Solvation model:               ALPB
        Solvent                        DMSO
        Parameter file                 internal GFN1-xTB/ALPB
        Dielectric constant                4.6680E+01
        Reference state                gsolv [1 M gas/solution]
        Free energy shift                  7.6243E-03 Eh       4.7843E+00 kcal/mol
        Temperature                        2.9815E+02 K
        Density                            1.1000E+00 kg/L
        Solvent mass                       7.8130E+01 g/mol
        Interaction kernel             P16
        Born radius scaling (c1)           1.7672E+00
        Born radii integrator          GBOBC
        Born offset                        0.0000E+00 a0       0.0000E+00 AA
        H-bond correction              true
        Ion screening                  false
        Surface tension                    1.0000E-05 Eh       1.5569E+01 dyn/cm
        Grid points                               230 per atom

          ...................................................
          :                      SETUP                      :
          :.................................................:
          :  # basis functions                 144          :
          :  # atomic orbitals                 144          :
          :  # shells                           94          :
          :  # electrons                       134          :
          :  # halogen bonds                     0          :
          :  max. iterations                   250          :
          :  Hamiltonian                  GFN1-xTB          :
          :  restarted?                      false          :
          :  GBSA solvation                   true          :
          :  PC potential                    false          :
          :  electronic temp.          300.0000000     K    :
          :  accuracy                    1.0000000          :
          :  -> integral cutoff          0.2500000E+02      :
          :  -> integral neglect         0.1000000E-07      :
          :  -> SCF convergence          0.1000000E-05 Eh   :
          :  -> wf. convergence          0.2000000E-04 e    :
          :  Broyden damping             0.4000000          :
          ...................................................

 iter      E             dE          RMSdq      gap      omega  full diag
   1    -80.1024541 -0.801025E+02  0.852E+00    1.58       0.0  T
   2    -80.3369085 -0.234454E+00  0.509E+00    0.22       1.0  T
   3    -79.7121281  0.624780E+00  0.283E+00    0.32       1.0  T
   4    -80.2865724 -0.574444E+00  0.132E+00    1.66       1.0  T
   5    -80.3255981 -0.390257E-01  0.792E-01    1.22       1.0  T
   6    -80.3364963 -0.108983E-01  0.542E-01    0.96       1.0  T
   7    -80.3427787 -0.628238E-02  0.369E-01    0.70       1.0  T
   8    -80.3452740 -0.249528E-02  0.264E-01    0.50       1.0  T
   9    -79.7270981  0.618176E+00  0.258E+00    0.41       1.0  T
  10    -80.3435525 -0.616454E+00  0.338E-01    0.62       1.0  T
  11    -80.3441337 -0.581184E-03  0.313E-01    0.57       1.0  T
  12    -80.3449748 -0.841063E-03  0.275E-01    0.50       1.0  T
  13    -80.3455580 -0.583235E-03  0.246E-01    0.44       1.0  T
  14    -80.3463744 -0.816423E-03  0.202E-01    0.34       1.0  T
  15    -80.3465449 -0.170421E-03  0.193E-01    0.32       1.0  T
  16    -80.3471281 -0.583230E-03  0.167E-01    0.26       1.0  T
  17    -80.3107895  0.363386E-01  0.624E-01    0.04       1.0  T
  18    -80.3455471 -0.347577E-01  0.245E-01    0.45       1.0  T
  19    -80.3464145 -0.867413E-03  0.198E-01    0.34       1.0  T
  20    -80.3494309 -0.301637E-02  0.225E-02    0.15       1.0  T
  21    -80.3489593  0.471622E-03  0.726E-02    0.12       1.0  T
  22    -80.3486864  0.272837E-03  0.920E-02    0.19       1.0  T
  23    -80.3451650  0.352139E-02  0.209E-01    0.09       1.0  T
  24    -80.3473801 -0.221510E-02  0.154E-01    0.25       1.0  T
  25    -80.3492838 -0.190370E-02  0.443E-02    0.13       1.0  T
  26    -80.3493863 -0.102446E-03  0.307E-02    0.15       1.0  T
  27    -80.3492470  0.139298E-03  0.485E-02    0.13       1.0  T
  28    -80.3493959 -0.148908E-03  0.290E-02    0.15       1.0  T
  29    -80.3493737  0.222400E-04  0.325E-02    0.13       1.0  T
  30    -80.3494516 -0.779028E-04  0.161E-02    0.15       1.0  T
  31    -80.3494505  0.110811E-05  0.164E-02    0.14       1.0  T
  32    -80.3494734 -0.229010E-04  0.573E-03    0.14       2.5  T
  33    -80.3494731  0.219868E-06  0.590E-03    0.14       2.5  T
  34    -80.3494765 -0.331902E-05  0.730E-04    0.14      20.0  T
  35    -80.3494762  0.295678E-06  0.190E-03    0.14       7.7  T
  36    -80.3494765 -0.334632E-06  0.370E-04    0.14      39.4  T
  37    -80.3494765 -0.132293E-07  0.455E-06    0.14    3208.1  T
  38    -80.3494765  0.234479E-11  0.677E-06    0.14    2153.5  T

   *** convergence criteria satisfied after 38 iterations ***

         #    Occupation            Energy/Eh            Energy/eV
      -------------------------------------------------------------
         1        2.0000           -0.9340095             -25.4157
       ...           ...                  ...                  ...
        61        2.0000           -0.4743396             -12.9074
        62        2.0000           -0.4721838             -12.8488
        63        2.0000           -0.4597818             -12.5113
        64        2.0000           -0.4490375             -12.2189
        65        2.0000           -0.4444044             -12.0929
        66        1.9994           -0.4309840             -11.7277
        67        1.8814           -0.4258821             -11.5888 (HOMO)
        68        0.1192           -0.4206349             -11.4461 (LUMO)
        69                         -0.3258012              -8.8655
        70                         -0.3248649              -8.8400
        71                         -0.2860122              -7.7828
        72                         -0.2455105              -6.6807
       ...                                ...                  ...
       144                          0.7077763              19.2596
      -------------------------------------------------------------
                  HL-Gap            0.0052472 Eh            0.1428 eV
             Fermi-level           -0.4232560 Eh          -11.5174 eV

 SCC (total)                   0 d,  0 h,  0 min,  0.278 sec
 SCC setup                      ...        0 min,  0.002 sec (  0.757%)
 Dispersion                     ...        0 min,  0.000 sec (  0.179%)
 classical contributions        ...        0 min,  0.000 sec (  0.055%)
 integral evaluation            ...        0 min,  0.038 sec ( 13.495%)
 iterations                     ...        0 min,  0.147 sec ( 53.052%)
 molecular gradient             ...        0 min,  0.089 sec ( 32.061%)
 printout                       ...        0 min,  0.001 sec (  0.381%)

         :::::::::::::::::::::::::::::::::::::::::::::::::::::
         ::                     SUMMARY                     ::
         :::::::::::::::::::::::::::::::::::::::::::::::::::::
         :: total energy             -79.468820692325 Eh    ::
         :: total w/o Gsasa/hb       -79.439529418000 Eh    ::
         :: gradient norm              0.087294490931 Eh/a0 ::
         :: HOMO-LUMO gap              0.142783511169 eV    ::
         ::.................................................::
         :: SCC energy               -80.349476506043 Eh    ::
         :: -> electrostatic           0.329816518326 Eh    ::
         :: -> Gsolv                  -0.106866771844 Eh    ::
         ::    -> Gelec               -0.077575497518 Eh    ::
         ::    -> Gsasa               -0.025290848503 Eh    ::
         ::    -> Ghb                 -0.011624704827 Eh    ::
         ::    -> Gshift               0.007624279005 Eh    ::
         :: repulsion energy           0.909851819692 Eh    ::
         :: dispersion energy         -0.029196005974 Eh    ::
         :: halogen bond corr.         0.000000000000 Eh    ::
         :: add. restraining           0.000000000000 Eh    ::
         :: total charge               1.000000001572 e     ::
         :::::::::::::::::::::::::::::::::::::::::::::::::::::

      ----------------------------------------------------------- 
     |                   =====================                   |
     |                        A N C O P T                        |
     |                   =====================                   |
     |               Approximate Normal Coordinate               |
     |                Rational Function Optimizer                |
      ----------------------------------------------------------- 

          ...................................................
          :                      SETUP                      :
          :.................................................:
          :   optimization level            normal          :
          :   max. optcycles                   200          :
          :   ANC micro-cycles                  20          :
          :   degrees of freedom               135          :
          :.................................................:
          :   RF solver                   davidson          :
          :   write xtbopt.log                true          :
          :   linear?                        false          :
          :   energy convergence         0.5000000E-05 Eh   :
          :   grad. convergence          0.1000000E-02 Eh/α :
          :   maximium RF displ.         1.0000000          :
          :   Hlow (freq-cutoff)         0.1000000E-01      :
          :   Hmax (freq-cutoff)         5.0000000          :
          :   S6 in model hess.         20.0000000          :
          ...................................................

generating ANC from model Hessian ...
Using Lindh-Hessian (1995)
 Shifting diagonal of input Hessian by   9.792846810002649E-003
 Lowest  eigenvalues of input Hessian
    0.000000    0.000000    0.000000    0.000000    0.000000    0.000000
    0.010000    0.010072    0.010330    0.010844    0.011415    0.011729
    0.012515    0.013920    0.015211    0.015975    0.017061    0.018122
 Highest eigenvalues
    1.941495    1.966648    2.052813    2.196928    2.294408    2.398441
 

........................................................................
.............................. CYCLE    1 ..............................
........................................................................
   1    -80.3494765 -0.803495E+02  0.532E-07    0.14       0.0  T
   2    -80.3494765  0.146372E-11  0.375E-06    0.14    3885.0  T
   3    -80.3494765 -0.142109E-11  0.385E-08    0.14  100000.0  T
     SCC iter.                  ...        0 min,  0.012 sec
     gradient                   ...        0 min,  0.089 sec
 * total energy  :   -79.4688207 Eh     change       -0.4305889E-11 Eh
   gradient norm :     0.0872944 Eh/α   predicted     0.0000000E+00 (-100.00%)
   displ. norm   :     0.2896254 α      lambda       -0.1263396E-01
   maximum displ.:     0.1000168 α      in ANC's #50, #29, #28, ...

........................................................................
.............................. CYCLE    2 ..............................
........................................................................
   1    -80.3527149 -0.803527E+02  0.844E-02    0.17       0.0  T
   2    -80.2160288  0.136686E+00  0.118E+00    0.00       1.0  T
   3    -80.3530076 -0.136979E+00  0.565E-02    0.17       1.0  T
   4    -80.3531572 -0.149589E-03  0.345E-02    0.16       1.0  T
   5    -80.3532505 -0.933529E-04  0.115E-02    0.15       1.3  T
   6    -80.3532602 -0.972256E-05  0.198E-03    0.14       7.4  T
   7    -80.3532601  0.147367E-06  0.200E-03    0.14       7.3  T
   8    -80.3532604 -0.286838E-06  0.987E-04    0.14      14.8  T
   9    -80.3532605 -0.768486E-07  0.415E-04    0.15      35.1  T
  10    -80.3532605 -0.151463E-07  0.117E-04    0.15     124.5  T
  11    -80.3532605 -0.135674E-08  0.171E-05    0.15     853.7  T
     SCC iter.                  ...        0 min,  0.043 sec
     gradient                   ...        0 min,  0.089 sec
 * total energy  :   -79.4775719 Eh     change       -0.8751182E-02 Eh
   gradient norm :     0.0379380 Eh/α   predicted    -0.6850884E-02 ( -21.71%)
   displ. norm   :     0.2471268 α      lambda       -0.3839741E-02
   maximum displ.:     0.0740484 α      in ANC's #28, #4, #50, ...

........................................................................
.............................. CYCLE    3 ..............................
........................................................................
   1    -80.3577274 -0.803577E+02  0.873E-02    0.19       0.0  T
   2    -80.1303738  0.227354E+00  0.152E+00    0.03       1.0  T
   3    -80.3581574 -0.227784E+00  0.535E-02    0.17       1.0  T
   4    -80.3583206 -0.163192E-03  0.316E-02    0.16       1.0  T
   5    -80.3584119 -0.913642E-04  0.794E-03    0.15       1.8  T
   6    -80.3584121 -0.198512E-06  0.726E-03    0.15       2.0  T
   7    -80.3584120  0.131042E-06  0.716E-03    0.15       2.0  T
   8    -80.3584151 -0.310510E-05  0.434E-03    0.15       3.4  T
   9    -80.3584163 -0.117017E-05  0.256E-03    0.15       5.7  T
  10    -80.3584168 -0.474991E-06  0.126E-03    0.15      11.6  T
  11    -80.3584169 -0.148323E-06  0.185E-04    0.15      78.8  T
  12    -80.3584169 -0.284118E-08  0.625E-05    0.15     233.4  T
     SCC iter.                  ...        0 min,  0.046 sec
     gradient                   ...        0 min,  0.089 sec
 * total energy  :   -79.4797845 Eh     change       -0.2212609E-02 Eh
   gradient norm :     0.0090914 Eh/α   predicted    -0.2037619E-02 (  -7.91%)
   displ. norm   :     0.1626464 α      lambda       -0.4894590E-03
   maximum displ.:     0.0830724 α      in ANC's #4, #6, #8, ...

........................................................................
.............................. CYCLE    4 ..............................
........................................................................
   1    -80.3600781 -0.803601E+02  0.368E-02    0.17       0.0  T
   2    -80.3417353  0.183429E-01  0.433E-01    0.07       1.0  T
   3    -80.3601949 -0.184596E-01  0.130E-02    0.16       1.1  T
   4    -80.3602114 -0.164899E-04  0.253E-03    0.15       5.8  T
   5    -80.3602098  0.155168E-05  0.488E-03    0.15       3.0  T
   6    -80.3602095  0.336334E-06  0.497E-03    0.15       2.9  T
   7    -80.3602112 -0.171802E-05  0.247E-03    0.15       5.9  T
   8    -80.3602117 -0.452049E-06  0.118E-03    0.15      12.4  T
   9    -80.3602118 -0.130864E-06  0.107E-04    0.15     135.9  T
  10    -80.3602118  0.265146E-09  0.116E-04    0.15     125.8  T
     SCC iter.                  ...        0 min,  0.039 sec
     gradient                   ...        0 min,  0.089 sec
 * total energy  :   -79.4801550 Eh     change       -0.3704712E-03 Eh
   gradient norm :     0.0054703 Eh/α   predicted    -0.2512040E-03 ( -32.19%)
   displ. norm   :     0.2520902 α      lambda       -0.4622328E-03
   maximum displ.:     0.1386298 α      in ANC's #4, #6, #10, ...

........................................................................
.............................. CYCLE    5 ..............................
........................................................................
   1    -80.3615278 -0.803615E+02  0.421E-02    0.17       0.0  T
   2    -80.3330369  0.284909E-01  0.539E-01    0.06       1.0  T
   3    -80.3616915 -0.286546E-01  0.137E-02    0.16       1.1  T
   4    -80.3617114 -0.198135E-04  0.236E-03    0.15       6.2  T
   5    -80.3617063  0.505588E-05  0.792E-03    0.15       1.8  T
   6    -80.3617042  0.209409E-05  0.880E-03    0.15       1.7  T
   7    -80.3617093 -0.510953E-05  0.472E-03    0.15       3.1  T
   8    -80.3617108 -0.145770E-05  0.264E-03    0.15       5.5  T
   9    -80.3617114 -0.626183E-06  0.605E-04    0.15      24.1  T
  10    -80.3617114 -0.323251E-07  0.143E-04    0.15     102.2  T
  11    -80.3617114 -0.197089E-08  0.162E-05    0.15     899.1  T
     SCC iter.                  ...        0 min,  0.042 sec
     gradient                   ...        0 min,  0.089 sec
 * total energy  :   -79.4804652 Eh     change       -0.3102041E-03 Eh
   gradient norm :     0.0057784 Eh/α   predicted    -0.2458049E-03 ( -20.76%)
   displ. norm   :     0.1937109 α      lambda       -0.2044482E-03
   maximum displ.:     0.1137143 α      in ANC's #4, #6, #10, ...

........................................................................
.............................. CYCLE    6 ..............................
........................................................................
   1    -80.3622717 -0.803623E+02  0.241E-02    0.17       0.0  T
   2    -80.3575313  0.474034E-02  0.222E-01    0.10       1.0  T
   3    -80.3623310 -0.479964E-02  0.370E-03    0.16       3.9  T
   4    -80.3623315 -0.473642E-06  0.354E-03    0.15       4.1  T
   5    -80.3623300  0.150644E-05  0.514E-03    0.15       2.8  T
   6    -80.3623311 -0.113852E-05  0.346E-03    0.15       4.2  T
   7    -80.3623321 -0.974451E-06  0.121E-03    0.15      12.1  T
   8    -80.3623322 -0.134324E-06  0.210E-04    0.15      69.4  T
   9    -80.3623322 -0.270063E-08  0.120E-04    0.15     121.1  T
  10    -80.3623322 -0.128409E-08  0.299E-05    0.15     487.2  T
     SCC iter.                  ...        0 min,  0.039 sec
     gradient                   ...        0 min,  0.122 sec
 * total energy  :   -79.4806225 Eh     change       -0.1573420E-03 Eh
   gradient norm :     0.0056332 Eh/α   predicted    -0.1060823E-03 ( -32.58%)
   displ. norm   :     0.2583926 α      lambda       -0.2399148E-03
   maximum displ.:     0.1504663 α      in ANC's #4, #6, #10, ...

........................................................................
.............................. CYCLE    7 ..............................
........................................................................
   1    -80.3625590 -0.803626E+02  0.228E-02    0.17       0.0  T
   2    -80.3590904  0.346859E-02  0.190E-01    0.10       1.0  T
   3    -80.3626079 -0.351750E-02  0.475E-03    0.16       3.1  T
   4    -80.3626096 -0.165936E-05  0.259E-03    0.15       5.6  T
   5    -80.3626085  0.106383E-05  0.398E-03    0.15       3.7  T
   6    -80.3626093 -0.778528E-06  0.250E-03    0.15       5.8  T
   7    -80.3626098 -0.530062E-06  0.731E-04    0.16      19.9  T
   8    -80.3626099 -0.490717E-07  0.142E-04    0.16     102.9  T
   9    -80.3626099 -0.926221E-09  0.101E-04    0.16     144.2  T
     SCC iter.                  ...        0 min,  0.064 sec
     gradient                   ...        0 min,  0.092 sec
 * total energy  :   -79.4808060 Eh     change       -0.1835150E-03 Eh
   gradient norm :     0.0043176 Eh/α   predicted    -0.1279669E-03 ( -30.27%)
   displ. norm   :     0.3155052 α      lambda       -0.2494517E-03
   maximum displ.:     0.1779542 α      in ANC's #4, #11, #7, ...

........................................................................
.............................. CYCLE    8 ..............................
........................................................................
   1    -80.3622250 -0.803622E+02  0.174E-02    0.16       0.0  T
   2    -80.3610025  0.122253E-02  0.113E-01    0.12       1.0  T
   3    -80.3622474 -0.124485E-02  0.622E-03    0.16       2.3  T
   4    -80.3622503 -0.297087E-05  0.171E-03    0.16       8.5  T
   5    -80.3622503  0.753710E-07  0.139E-03    0.16      10.5  T
   6    -80.3622504 -0.106160E-06  0.694E-04    0.16      21.0  T
   7    -80.3622504 -0.401652E-07  0.176E-04    0.16      82.7  T
   8    -80.3622504 -0.273761E-08  0.254E-05    0.16     573.7  T
     SCC iter.                  ...        0 min,  0.030 sec
     gradient                   ...        0 min,  0.121 sec
 * total energy  :   -79.4809963 Eh     change       -0.1902379E-03 Eh
   gradient norm :     0.0046343 Eh/α   predicted    -0.1371422E-03 ( -27.91%)
   displ. norm   :     0.3646973 α      lambda       -0.2552858E-03
   maximum displ.:     0.1944763 α      in ANC's #4, #7, #11, ...

........................................................................
.............................. CYCLE    9 ..............................
........................................................................
   1    -80.3614951 -0.803615E+02  0.108E-02    0.16       0.0  T
   2    -80.3613375  0.157604E-03  0.407E-02    0.14       1.0  T
   3    -80.3614921 -0.154589E-03  0.106E-02    0.16       1.4  T
   4    -80.3614996 -0.748677E-05  0.437E-03    0.16       3.3  T
   5    -80.3615010 -0.139184E-05  0.107E-03    0.16      13.7  T
   6    -80.3615011 -0.611588E-07  0.146E-04    0.16      99.6  T
   7    -80.3615011 -0.741551E-09  0.614E-05    0.16     237.5  T
     SCC iter.                  ...        0 min,  0.026 sec
     gradient                   ...        0 min,  0.094 sec
 * total energy  :   -79.4811890 Eh     change       -0.1927698E-03 Eh
   gradient norm :     0.0069593 Eh/α   predicted    -0.1446222E-03 ( -24.98%)
   displ. norm   :     0.3622311 α      lambda       -0.2457349E-03
   maximum displ.:     0.1813926 α      in ANC's #4, #7, #11, ...

........................................................................
.............................. CYCLE   10 ..............................
........................................................................
   1    -80.3613041 -0.803613E+02  0.637E-03    0.16       0.0  T
   2    -80.3613019  0.223388E-05  0.736E-03    0.16       2.0  T
   3    -80.3612976  0.426697E-05  0.838E-03    0.15       1.7  T
   4    -80.3613029 -0.532961E-05  0.536E-03    0.16       2.7  T
   5    -80.3613050 -0.205929E-05  0.159E-03    0.16       9.2  T
   6    -80.3613052 -0.174331E-06  0.135E-04    0.16     108.1  T
   7    -80.3613052 -0.701647E-09  0.403E-05    0.16     362.3  T
     SCC iter.                  ...        0 min,  0.026 sec
     gradient                   ...        0 min,  0.094 sec
 * total energy  :   -79.4813773 Eh     change       -0.1882973E-03 Eh
   gradient norm :     0.0080260 Eh/α   predicted    -0.1389942E-03 ( -26.18%)
   displ. norm   :     0.3606698 α      lambda       -0.2561635E-03
   maximum displ.:     0.1790667 α      in ANC's #7, #4, #11, ...

........................................................................
.............................. CYCLE   11 ..............................
........................................................................
   1    -80.3619644 -0.803620E+02  0.749E-03    0.15       0.0  T
   2    -80.3619093  0.551090E-04  0.259E-02    0.17       1.0  T
   3    -80.3619680 -0.587055E-04  0.345E-03    0.16       4.2  T
   4    -80.3619672  0.819381E-06  0.397E-03    0.16       3.7  T
   5    -80.3619683 -0.106760E-05  0.728E-04    0.16      20.0  T
   6    -80.3619683 -0.253331E-07  0.112E-04    0.16     130.5  T
   7    -80.3619683 -0.942606E-10  0.535E-05    0.16     272.7  T
     SCC iter.                  ...        0 min,  0.026 sec
     gradient                   ...        0 min,  0.094 sec
 * total energy  :   -79.4815694 Eh     change       -0.1920878E-03 Eh
   gradient norm :     0.0068863 Eh/α   predicted    -0.1447443E-03 ( -24.65%)
   displ. norm   :     0.3471258 α      lambda       -0.2289966E-03
   maximum displ.:     0.1705023 α      in ANC's #4, #7, #11, ...

........................................................................
.............................. CYCLE   12 ..............................
........................................................................
   1    -80.3623144 -0.803623E+02  0.803E-03    0.15       0.0  T
   2    -80.3622664  0.480531E-04  0.238E-02    0.17       1.0  T
   3    -80.3623163 -0.499069E-04  0.540E-03    0.15       2.7  T
   4    -80.3623185 -0.219765E-05  0.215E-03    0.16       6.8  T
   5    -80.3623187 -0.202477E-06  0.692E-04    0.16      21.1  T
   6    -80.3623187 -0.160637E-07  0.240E-04    0.16      60.8  T
   7    -80.3623187 -0.391628E-08  0.480E-05    0.16     303.6  T
   8    -80.3623187 -0.145377E-10  0.244E-05    0.16     597.6  T
     SCC iter.                  ...        0 min,  0.030 sec
     gradient                   ...        0 min,  0.092 sec
 * total energy  :   -79.4817432 Eh     change       -0.1737749E-03 Eh
   gradient norm :     0.0054124 Eh/α   predicted    -0.1282977E-03 ( -26.17%)
   displ. norm   :     0.3412708 α      lambda       -0.2213462E-03
   maximum displ.:     0.1690765 α      in ANC's #4, #7, #5, ...

........................................................................
.............................. CYCLE   13 ..............................
........................................................................
   1    -80.3636561 -0.803637E+02  0.943E-03    0.15       0.0  T
   2    -80.3635729  0.832065E-04  0.312E-02    0.17       1.0  T
   3    -80.3636608 -0.878822E-04  0.526E-03    0.15       2.8  T
   4    -80.3636626 -0.180925E-05  0.234E-03    0.16       6.2  T
   5    -80.3636628 -0.191595E-06  0.804E-04    0.16      18.2  T
   6    -80.3636628 -0.848831E-08  0.328E-04    0.16      44.4  T
   7    -80.3636628 -0.818414E-08  0.556E-05    0.16     262.3  T
   8    -80.3636628 -0.468248E-10  0.250E-05    0.16     584.0  T
     SCC iter.                  ...        0 min,  0.030 sec
     gradient                   ...        0 min,  0.084 sec
 * total energy  :   -79.4819111 Eh     change       -0.1679507E-03 Eh
   gradient norm :     0.0053792 Eh/α   predicted    -0.1235671E-03 ( -26.43%)
   displ. norm   :     0.4550904 α      lambda       -0.2326772E-03
   maximum displ.:     0.2454719 α      in ANC's #4, #3, #7, ...

........................................................................
.............................. CYCLE   14 ..............................
........................................................................
   1    -80.3599992 -0.803600E+02  0.932E-03    0.15       0.0  T
   2    -80.3599747  0.244722E-04  0.174E-02    0.16       1.0  T
   3    -80.3599768 -0.208016E-05  0.173E-02    0.15       1.0  T
   4    -80.3600035 -0.266804E-04  0.257E-03    0.16       5.7  T
   5    -80.3600037 -0.221771E-06  0.118E-03    0.16      12.3  T
   6    -80.3600038 -0.420535E-07  0.388E-04    0.16      37.6  T
   7    -80.3600038 -0.126615E-07  0.603E-05    0.16     241.7  T
   8    -80.3600038  0.990923E-10  0.497E-05    0.16     293.4  T
     SCC iter.                  ...        0 min,  0.031 sec
     gradient                   ...        0 min,  0.085 sec
 * total energy  :   -79.4820608 Eh     change       -0.1496999E-03 Eh
   gradient norm :     0.0066263 Eh/α   predicted    -0.1404358E-03 (  -6.19%)
   displ. norm   :     0.3945117 α      lambda       -0.3946274E-03
   maximum displ.:     0.1787279 α      in ANC's #5, #3, #4, ...

........................................................................
.............................. CYCLE   15 ..............................
........................................................................
   1    -80.3679111 -0.803679E+02  0.196E-02    0.15       0.0  T
   2    -80.3678571  0.540181E-04  0.287E-02    0.17       1.0  T
   3    -80.3678092  0.479046E-04  0.363E-02    0.14       1.0  T
   4    -80.3679277 -0.118485E-03  0.590E-03    0.16       2.5  T
   5    -80.3679285 -0.795449E-06  0.182E-03    0.15       8.0  T
   6    -80.3679284  0.275916E-07  0.111E-03    0.15      13.1  T
   7    -80.3679286 -0.102855E-06  0.246E-04    0.15      59.3  T
   8    -80.3679286 -0.460062E-08  0.453E-05    0.15     321.8  T
   9    -80.3679286 -0.826930E-10  0.158E-05    0.15     924.2  T
     SCC iter.                  ...        0 min,  0.025 sec
     gradient                   ...        0 min,  0.050 sec
 * total energy  :   -79.4821778 Eh     change       -0.1170104E-03 Eh
   gradient norm :     0.0114582 Eh/α   predicted    -0.2280511E-03 (  94.90%)
   displ. norm   :     0.2555943 α      lambda       -0.2300398E-03
   maximum displ.:     0.1467449 α      in ANC's #4, #7, #3, ...

........................................................................
.............................. CYCLE   16 ..............................
........................................................................
   1    -80.3634871 -0.803635E+02  0.109E-02    0.16       0.0  T
   2    -80.3632897  0.197428E-03  0.457E-02    0.14       1.0  T
   3    -80.3634879 -0.198195E-03  0.921E-03    0.16       1.6  T
   4    -80.3634931 -0.522924E-05  0.421E-03    0.16       3.5  T
   5    -80.3634942 -0.109915E-05  0.941E-04    0.16      15.5  T
   6    -80.3634942 -0.411671E-07  0.200E-04    0.16      73.0  T
   7    -80.3634942 -0.126656E-08  0.910E-05    0.16     160.3  T
     SCC iter.                  ...        0 min,  0.019 sec
     gradient                   ...        0 min,  0.050 sec
 * total energy  :   -79.4823366 Eh     change       -0.1587354E-03 Eh
   gradient norm :     0.0058544 Eh/α   predicted    -0.1225389E-03 ( -22.80%)
   displ. norm   :     0.1873657 α      lambda       -0.1839004E-03
   maximum displ.:     0.1042659 α      in ANC's #4, #3, #10, ...

........................................................................
.............................. CYCLE   17 ..............................
........................................................................
   1    -80.3626896 -0.803627E+02  0.211E-02    0.17       0.0  T
   2    -80.3600196  0.266994E-02  0.168E-01    0.11       1.0  T
   3    -80.3627368 -0.271721E-02  0.459E-03    0.16       3.2  T
   4    -80.3627346  0.217773E-05  0.659E-03    0.15       2.2  T
   5    -80.3627335  0.112207E-05  0.696E-03    0.15       2.1  T
   6    -80.3627369 -0.340453E-05  0.269E-03    0.16       5.4  T
   7    -80.3627376 -0.650615E-06  0.552E-04    0.16      26.4  T
   8    -80.3627376 -0.296246E-07  0.586E-05    0.16     248.9  T
   9    -80.3627376  0.705214E-09  0.922E-05    0.16     158.2  T
     SCC iter.                  ...        0 min,  0.024 sec
     gradient                   ...        0 min,  0.050 sec
 * total energy  :   -79.4824545 Eh     change       -0.1179064E-03 Eh
   gradient norm :     0.0034349 Eh/α   predicted    -0.9517920E-04 ( -19.28%)
   displ. norm   :     0.3280239 α      lambda       -0.1328949E-03
   maximum displ.:     0.1748774 α      in ANC's #4, #3, #5, ...

........................................................................
.............................. CYCLE   18 ..............................
........................................................................
   1    -80.3620617 -0.803621E+02  0.993E-03    0.16       0.0  T
   2    -80.3617869  0.274803E-03  0.539E-02    0.14       1.0  T
   3    -80.3620677 -0.280799E-03  0.473E-03    0.16       3.1  T
   4    -80.3620692 -0.149206E-05  0.170E-03    0.16       8.6  T
   5    -80.3620693 -0.149195E-06  0.261E-04    0.16      55.8  T
   6    -80.3620693 -0.232609E-08  0.105E-04    0.16     139.3  T
   7    -80.3620693  0.100059E-09  0.772E-05    0.16     189.0  T
     SCC iter.                  ...        0 min,  0.030 sec
     gradient                   ...        0 min,  0.092 sec
 * total energy  :   -79.4825539 Eh     change       -0.9940410E-04 Eh
   gradient norm :     0.0051070 Eh/α   predicted    -0.7360327E-04 ( -25.96%)
   displ. norm   :     0.3484987 α      lambda       -0.1555327E-03
   maximum displ.:     0.1735801 α      in ANC's #4, #3, #5, ...

........................................................................
.............................. CYCLE   19 ..............................
........................................................................
   1    -80.3641334 -0.803641E+02  0.106E-02    0.16       0.0  T
   2    -80.3637551  0.378297E-03  0.639E-02    0.13       1.0  T
   3    -80.3641440 -0.388874E-03  0.273E-03    0.16       5.3  T
   4    -80.3641433  0.754465E-06  0.355E-03    0.16       4.1  T
   5    -80.3641438 -0.584922E-06  0.190E-03    0.16       7.7  T
   6    -80.3641441 -0.261587E-06  0.611E-04    0.16      23.9  T
   7    -80.3641441 -0.339418E-07  0.448E-05    0.16     325.3  T
   8    -80.3641441  0.160952E-09  0.524E-05    0.16     278.2  T
     SCC iter.                  ...        0 min,  0.031 sec
     gradient                   ...        0 min,  0.094 sec
 * total energy  :   -79.4826614 Eh     change       -0.1075155E-03 Eh
   gradient norm :     0.0049715 Eh/α   predicted    -0.8721335E-04 ( -18.88%)
   displ. norm   :     0.3900399 α      lambda       -0.1187306E-03
   maximum displ.:     0.2084419 α      in ANC's #4, #3, #5, ...

........................................................................
.............................. CYCLE   20 ..............................
........................................................................
   1    -80.3635108 -0.803635E+02  0.684E-03    0.16       0.0  T
   2    -80.3634808  0.299672E-04  0.185E-02    0.17       1.0  T
   3    -80.3635095 -0.287458E-04  0.705E-03    0.15       2.1  T
   4    -80.3635136 -0.410333E-05  0.138E-03    0.16      10.6  T
   5    -80.3635137 -0.267130E-07  0.728E-04    0.16      20.0  T
   6    -80.3635137 -0.135324E-07  0.307E-04    0.16      47.5  T
   7    -80.3635137 -0.707956E-08  0.492E-05    0.16     296.7  T
   8    -80.3635137 -0.306528E-10  0.275E-05    0.16     530.3  T
     SCC iter.                  ...        0 min,  0.031 sec
     gradient                   ...        0 min,  0.095 sec
 * total energy  :   -79.4827540 Eh     change       -0.9256674E-04 Eh
   gradient norm :     0.0046999 Eh/α   predicted    -0.6839915E-04 ( -26.11%)
   displ. norm   :     0.4146491 α      lambda       -0.1787714E-03
   maximum displ.:     0.2176304 α      in ANC's #4, #3, #5, ...
 * RMSD in coord.:     0.7271315 α      energy gain  -0.1393328E-01 Eh

generating ANC from model Hessian ...
Using Lindh-Hessian (1995)
 Shifting diagonal of input Hessian by   9.802068001030388E-003
 Lowest  eigenvalues of input Hessian
    0.000000    0.000000    0.000000    0.000000    0.000000    0.000000
    0.010000    0.010045    0.010320    0.010793    0.011341    0.011417
    0.012342    0.013676    0.014639    0.015697    0.017153    0.017962
 Highest eigenvalues
    1.962355    1.988382    2.054370    2.211195    2.329650    2.401238
 

........................................................................
.............................. CYCLE   21 ..............................
........................................................................
   1    -80.3667774 -0.803668E+02  0.796E-03    0.16       0.0  T
   2    -80.3667786 -0.117146E-05  0.480E-03    0.16       3.0  T
   3    -80.3667668  0.118137E-04  0.114E-02    0.16       1.3  T
   4    -80.3667783 -0.114748E-04  0.449E-03    0.15       3.2  T
   5    -80.3667796 -0.130312E-05  0.145E-03    0.16      10.0  T
   6    -80.3667797 -0.128371E-06  0.426E-04    0.16      34.3  T
   7    -80.3667797 -0.132494E-07  0.503E-05    0.16     290.1  T
   8    -80.3667797 -0.682689E-10  0.207E-05    0.16     704.7  T
     SCC iter.                  ...        0 min,  0.035 sec
     gradient                   ...        0 min,  0.094 sec
 * total energy  :   -79.4828715 Eh     change       -0.1175309E-03 Eh
   gradient norm :     0.0045921 Eh/α   predicted     0.0000000E+00 (-100.00%)
   displ. norm   :     0.0503608 α      lambda       -0.5337615E-04
   maximum displ.:     0.0216062 α      in ANC's #3, #14, #9, ...

........................................................................
.............................. CYCLE   22 ..............................
........................................................................
   1    -80.3660308 -0.803660E+02  0.321E-03    0.16       0.0  T
   2    -80.3660243  0.654196E-05  0.873E-03    0.16       1.7  T
   3    -80.3660307 -0.645599E-05  0.296E-03    0.16       4.9  T
   4    -80.3660315 -0.727275E-06  0.618E-04    0.16      23.6  T
   5    -80.3660315  0.232502E-08  0.269E-04    0.16      54.3  T
   6    -80.3660315 -0.308096E-08  0.815E-05    0.16     179.1  T
   7    -80.3660315 -0.334865E-09  0.276E-05    0.16     529.3  T
     SCC iter.                  ...        0 min,  0.028 sec
     gradient                   ...        0 min,  0.095 sec
 * total energy  :   -79.4829235 Eh     change       -0.5202350E-04 Eh
   gradient norm :     0.0016705 Eh/α   predicted    -0.3273613E-04 ( -37.07%)
   displ. norm   :     0.2116473 α      lambda       -0.1041271E-03
   maximum displ.:     0.0987450 α      in ANC's #3, #9, #14, ...

........................................................................
.............................. CYCLE   23 ..............................
........................................................................
   1    -80.3645648 -0.803646E+02  0.100E-02    0.15       0.0  T
   2    -80.3644339  0.130908E-03  0.388E-02    0.18       1.0  T
   3    -80.3645732 -0.139331E-03  0.246E-03    0.16       5.9  T
   4    -80.3645731  0.845613E-07  0.185E-03    0.16       7.9  T
   5    -80.3645733 -0.144598E-06  0.692E-04    0.16      21.1  T
   6    -80.3645733 -0.203044E-07  0.238E-04    0.16      61.3  T
   7    -80.3645733 -0.213859E-08  0.121E-04    0.16     120.8  T
   8    -80.3645733 -0.131499E-08  0.291E-05    0.16     501.4  T
     SCC iter.                  ...        0 min,  0.038 sec
     gradient                   ...        0 min,  0.095 sec
 * total energy  :   -79.4830062 Eh     change       -0.8262516E-04 Eh
   gradient norm :     0.0056077 Eh/α   predicted    -0.5310173E-04 ( -35.73%)
   displ. norm   :     0.0830926 α      lambda       -0.4826803E-04
   maximum displ.:     0.0453167 α      in ANC's #3, #4, #2, ...

........................................................................
.............................. CYCLE   24 ..............................
........................................................................
   1    -80.3649264 -0.803649E+02  0.260E-03    0.16       0.0  T
   2    -80.3649126  0.138485E-04  0.125E-02    0.16       1.2  T
   3    -80.3649270 -0.143919E-04  0.121E-03    0.16      12.0  T
   4    -80.3649270  0.782558E-08  0.110E-03    0.16      13.2  T
   5    -80.3649270 -0.876187E-07  0.138E-04    0.16     105.5  T
   6    -80.3649270 -0.651681E-09  0.280E-05    0.16     520.5  T
     SCC iter.                  ...        0 min,  0.023 sec
     gradient                   ...        0 min,  0.095 sec
 * total energy  :   -79.4830507 Eh     change       -0.4458806E-04 Eh
   gradient norm :     0.0045819 Eh/α   predicted    -0.2430099E-04 ( -45.50%)
   displ. norm   :     0.3018013 α      lambda       -0.1688354E-03
   maximum displ.:     0.1651551 α      in ANC's #3, #4, #2, ...

........................................................................
.............................. CYCLE   25 ..............................
........................................................................
   1    -80.3655378 -0.803655E+02  0.825E-03    0.15       0.0  T
   2    -80.3654337  0.104152E-03  0.349E-02    0.17       1.0  T
   3    -80.3655432 -0.109555E-03  0.349E-03    0.16       4.2  T
   4    -80.3655429  0.298818E-06  0.356E-03    0.16       4.1  T
   5    -80.3655439 -0.908714E-06  0.367E-04    0.16      39.7  T
   6    -80.3655439 -0.132934E-08  0.120E-04    0.16     121.2  T
   7    -80.3655439 -0.581053E-09  0.412E-05    0.16     354.1  T
     SCC iter.                  ...        0 min,  0.027 sec
     gradient                   ...        0 min,  0.095 sec
 * total energy  :   -79.4831763 Eh     change       -0.1255232E-03 Eh
   gradient norm :     0.0015781 Eh/α   predicted    -0.9210696E-04 ( -26.62%)
   displ. norm   :     0.4395255 α      lambda       -0.9440740E-04
   maximum displ.:     0.2519678 α      in ANC's #3, #4, #2, ...

........................................................................
.............................. CYCLE   26 ..............................
........................................................................
   1    -80.3644890 -0.803645E+02  0.842E-03    0.15       0.0  T
   2    -80.3644086  0.803492E-04  0.309E-02    0.17       1.0  T
   3    -80.3644942 -0.855756E-04  0.235E-03    0.16       6.2  T
   4    -80.3644932  0.977737E-06  0.396E-03    0.16       3.7  T
   5    -80.3644943 -0.114013E-05  0.541E-04    0.16      26.9  T
   6    -80.3644944 -0.468991E-08  0.200E-04    0.16      73.0  T
   7    -80.3644944 -0.202087E-08  0.622E-05    0.16     234.4  T
     SCC iter.                  ...        0 min,  0.027 sec
     gradient                   ...        0 min,  0.095 sec
 * total energy  :   -79.4832619 Eh     change       -0.8562430E-04 Eh
   gradient norm :     0.0029018 Eh/α   predicted    -0.5126524E-04 ( -40.13%)
   displ. norm   :     0.1168711 α      lambda       -0.4863782E-04
   maximum displ.:     0.0744239 α      in ANC's #3, #4, #2, ...

........................................................................
.............................. CYCLE   27 ..............................
........................................................................
   1    -80.3656905 -0.803657E+02  0.390E-03    0.16       0.0  T
   2    -80.3656477  0.428026E-04  0.217E-02    0.15       1.0  T
   3    -80.3656918 -0.440916E-04  0.171E-03    0.16       8.5  T
   4    -80.3656918  0.147586E-07  0.155E-03    0.16       9.4  T
   5    -80.3656919 -0.147538E-06  0.544E-04    0.16      26.8  T
   6    -80.3656919 -0.231677E-07  0.686E-05    0.16     212.7  T
   7    -80.3656919 -0.368161E-09  0.127E-05    0.16    1152.0  T
     SCC iter.                  ...        0 min,  0.027 sec
     gradient                   ...        0 min,  0.095 sec
 * total energy  :   -79.4833047 Eh     change       -0.4285669E-04 Eh
   gradient norm :     0.0025631 Eh/α   predicted    -0.2465183E-04 ( -42.48%)
   displ. norm   :     0.2433312 α      lambda       -0.9974065E-04
   maximum displ.:     0.1537733 α      in ANC's #3, #4, #2, ...

........................................................................
.............................. CYCLE   28 ..............................
........................................................................
   1    -80.3669477 -0.803669E+02  0.106E-02    0.16       0.0  T
   2    -80.3664201  0.527681E-03  0.753E-02    0.13       1.0  T
   3    -80.3669592 -0.539089E-03  0.431E-03    0.16       3.4  T
   4    -80.3669588  0.366654E-06  0.439E-03    0.16       3.3  T
   5    -80.3669599 -0.107100E-05  0.233E-03    0.16       6.3  T
   6    -80.3669603 -0.459961E-06  0.470E-04    0.16      31.0  T
   7    -80.3669603 -0.202768E-07  0.482E-05    0.16     302.9  T
   8    -80.3669603 -0.679563E-10  0.310E-05    0.16     470.0  T
     SCC iter.                  ...        0 min,  0.030 sec
     gradient                   ...        0 min,  0.095 sec
 * total energy  :   -79.4833851 Eh     change       -0.8040394E-04 Eh
   gradient norm :     0.0024638 Eh/α   predicted    -0.5282353E-04 ( -34.30%)
   displ. norm   :     0.3135625 α      lambda       -0.9133050E-04
   maximum displ.:     0.2011505 α      in ANC's #3, #4, #2, ...

........................................................................
.............................. CYCLE   29 ..............................
........................................................................
   1    -80.3665188 -0.803665E+02  0.115E-02    0.16       0.0  T
   2    -80.3659079  0.610880E-03  0.808E-02    0.13       1.0  T
   3    -80.3665327 -0.624788E-03  0.331E-03    0.16       4.4  T
   4    -80.3665323  0.339478E-06  0.353E-03    0.16       4.1  T
   5    -80.3665330 -0.635690E-06  0.198E-03    0.16       7.4  T
   6    -80.3665333 -0.315337E-06  0.552E-04    0.16      26.4  T
   7    -80.3665333 -0.271423E-07  0.370E-05    0.16     394.7  T
   8    -80.3665333  0.485585E-10  0.349E-05    0.16     417.9  T
     SCC iter.                  ...        0 min,  0.030 sec
     gradient                   ...        0 min,  0.095 sec
 * total energy  :   -79.4834600 Eh     change       -0.7488696E-04 Eh
   gradient norm :     0.0023960 Eh/α   predicted    -0.5015959E-04 ( -33.02%)
   displ. norm   :     0.2686841 α      lambda       -0.6857908E-04
   maximum displ.:     0.1763850 α      in ANC's #3, #2, #4, ...

........................................................................
.............................. CYCLE   30 ..............................
........................................................................
   1    -80.3659065 -0.803659E+02  0.761E-03    0.16       0.0  T
   2    -80.3656993  0.207173E-03  0.474E-02    0.14       1.0  T
   3    -80.3659124 -0.213028E-03  0.226E-03    0.16       6.5  T
   4    -80.3659124 -0.275105E-07  0.191E-03    0.16       7.6  T
   5    -80.3659126 -0.227287E-06  0.658E-04    0.16      22.2  T
   6    -80.3659127 -0.327923E-07  0.159E-04    0.16      91.7  T
   7    -80.3659127 -0.182804E-08  0.380E-05    0.16     383.4  T
     SCC iter.                  ...        0 min,  0.027 sec
     gradient                   ...        0 min,  0.095 sec
 * total energy  :   -79.4835197 Eh     change       -0.5963184E-04 Eh
   gradient norm :     0.0020363 Eh/α   predicted    -0.3676701E-04 ( -38.34%)
   displ. norm   :     0.2496259 α      lambda       -0.7000809E-04
   maximum displ.:     0.1673315 α      in ANC's #3, #2, #1, ...

........................................................................
.............................. CYCLE   31 ..............................
........................................................................
   1    -80.3657808 -0.803658E+02  0.465E-03    0.16       0.0  T
   2    -80.3657276  0.532198E-04  0.242E-02    0.15       1.0  T
   3    -80.3657829 -0.552763E-04  0.123E-03    0.16      11.9  T
   4    -80.3657828  0.448229E-07  0.116E-03    0.16      12.6  T
   5    -80.3657829 -0.804574E-07  0.248E-04    0.16      58.8  T
   6    -80.3657829 -0.256573E-08  0.592E-05    0.16     246.3  T
   7    -80.3657829 -0.686100E-10  0.244E-05    0.16     598.0  T
     SCC iter.                  ...        0 min,  0.027 sec
     gradient                   ...        0 min,  0.095 sec
 * total energy  :   -79.4835826 Eh     change       -0.6290555E-04 Eh
   gradient norm :     0.0016005 Eh/α   predicted    -0.3719446E-04 ( -40.87%)
   displ. norm   :     0.4992399 α      lambda       -0.9705334E-04
   maximum displ.:     0.3363624 α      in ANC's #3, #2, #1, ...

........................................................................
.............................. CYCLE   32 ..............................
........................................................................
   1    -80.3647915 -0.803648E+02  0.514E-03    0.16       0.0  T
   2    -80.3647927 -0.121744E-05  0.241E-03    0.16       6.1  T
   3    -80.3647910  0.170764E-05  0.451E-03    0.16       3.2  T
   4    -80.3647926 -0.167555E-05  0.185E-03    0.16       7.9  T
   5    -80.3647928 -0.185892E-06  0.592E-04    0.16      24.6  T
   6    -80.3647928 -0.231433E-07  0.119E-04    0.16     122.9  T
   7    -80.3647929 -0.515115E-09  0.272E-05    0.16     536.0  T
     SCC iter.                  ...        0 min,  0.027 sec
     gradient                   ...        0 min,  0.095 sec
 * total energy  :   -79.4836960 Eh     change       -0.1134027E-03 Eh
   gradient norm :     0.0025271 Eh/α   predicted    -0.5390418E-04 ( -52.47%)
   displ. norm   :     0.3278134 α      lambda       -0.8791365E-04
   maximum displ.:     0.2235536 α      in ANC's #3, #2, #1, ...

........................................................................
.............................. CYCLE   33 ..............................
........................................................................
   1    -80.3647428 -0.803647E+02  0.344E-03    0.16       0.0  T
   2    -80.3647288  0.140265E-04  0.127E-02    0.16       1.1  T
   3    -80.3647436 -0.148371E-04  0.126E-03    0.16      11.6  T
   4    -80.3647437 -0.718566E-07  0.853E-04    0.16      17.1  T
   5    -80.3647437 -0.331540E-07  0.299E-04    0.16      48.7  T
   6    -80.3647437 -0.552360E-08  0.464E-05    0.16     314.1  T
   7    -80.3647437 -0.206200E-10  0.191E-05    0.16     761.7  T
     SCC iter.                  ...        0 min,  0.027 sec
     gradient                   ...        0 min,  0.095 sec
 * total energy  :   -79.4837697 Eh     change       -0.7370992E-04 Eh
   gradient norm :     0.0028806 Eh/α   predicted    -0.4868131E-04 ( -33.96%)
   displ. norm   :     0.4958963 α      lambda       -0.1348565E-03
   maximum displ.:     0.3366531 α      in ANC's #3, #2, #1, ...

........................................................................
.............................. CYCLE   34 ..............................
........................................................................
   1    -80.3644136 -0.803644E+02  0.710E-03    0.16       0.0  T
   2    -80.3643214  0.921389E-04  0.325E-02    0.17       1.0  T
   3    -80.3644179 -0.964800E-04  0.298E-03    0.16       4.9  T
   4    -80.3644183 -0.389483E-06  0.175E-03    0.16       8.3  T
   5    -80.3644185 -0.192242E-06  0.339E-04    0.16      43.1  T
   6    -80.3644185 -0.443838E-08  0.126E-04    0.16     115.5  T
   7    -80.3644185 -0.816186E-09  0.405E-05    0.16     360.4  T
     SCC iter.                  ...        0 min,  0.027 sec
     gradient                   ...        0 min,  0.095 sec
 * total energy  :   -79.4838782 Eh     change       -0.1084787E-03 Eh
   gradient norm :     0.0034762 Eh/α   predicted    -0.8401521E-04 ( -22.55%)
   displ. norm   :     0.4694707 α      lambda       -0.1321271E-03
   maximum displ.:     0.3106094 α      in ANC's #3, #2, #1, ...

........................................................................
.............................. CYCLE   35 ..............................
........................................................................
   1    -80.3646849 -0.803647E+02  0.565E-03    0.16       0.0  T
   2    -80.3646205  0.644052E-04  0.272E-02    0.17       1.0  T
   3    -80.3646873 -0.667519E-04  0.343E-03    0.16       4.2  T
   4    -80.3646880 -0.693530E-06  0.155E-03    0.16       9.4  T
   5    -80.3646881 -0.143308E-06  0.200E-04    0.16      72.9  T
   6    -80.3646881 -0.171454E-08  0.836E-05    0.16     174.5  T
     SCC iter.                  ...        0 min,  0.023 sec
     gradient                   ...        0 min,  0.095 sec
 * total energy  :   -79.4839826 Eh     change       -0.1044660E-03 Eh
   gradient norm :     0.0037671 Eh/α   predicted    -0.8062575E-04 ( -22.82%)
   displ. norm   :     0.4474693 α      lambda       -0.1293203E-03
   maximum displ.:     0.2873503 α      in ANC's #3, #2, #1, ...

........................................................................
.............................. CYCLE   36 ..............................
........................................................................
   1    -80.3648346 -0.803648E+02  0.346E-03    0.16       0.0  T
   2    -80.3648197  0.149058E-04  0.133E-02    0.16       1.1  T
   3    -80.3648349 -0.152480E-04  0.283E-03    0.16       5.2  T
   4    -80.3648352 -0.297426E-06  0.165E-03    0.16       8.8  T
   5    -80.3648354 -0.168655E-06  0.210E-04    0.16      69.6  T
   6    -80.3648354  0.262261E-09  0.155E-04    0.16      94.1  T
   7    -80.3648354 -0.182604E-08  0.257E-05    0.16     566.6  T
     SCC iter.                  ...        0 min,  0.027 sec
     gradient                   ...        0 min,  0.095 sec
 * total energy  :   -79.4840885 Eh     change       -0.1059113E-03 Eh
   gradient norm :     0.0036271 Eh/α   predicted    -0.7760923E-04 ( -26.72%)
   displ. norm   :     0.4604564 α      lambda       -0.1508233E-03
   maximum displ.:     0.2802303 α      in ANC's #3, #2, #5, ...

........................................................................
.............................. CYCLE   37 ..............................
........................................................................
   1    -80.3674273 -0.803674E+02  0.558E-03    0.16       0.0  T
   2    -80.3673878  0.394834E-04  0.210E-02    0.15       1.0  T
   3    -80.3674282 -0.403877E-04  0.305E-03    0.16       4.8  T
   4    -80.3674286 -0.491180E-06  0.156E-03    0.16       9.3  T
   5    -80.3674287 -0.797573E-07  0.774E-04    0.16      18.8  T
   6    -80.3674288 -0.513740E-07  0.111E-04    0.16     131.4  T
   7    -80.3674288 -0.726615E-09  0.296E-05    0.16     492.4  T
     SCC iter.                  ...        0 min,  0.027 sec
     gradient                   ...        0 min,  0.096 sec
 * total energy  :   -79.4841956 Eh     change       -0.1071077E-03 Eh
   gradient norm :     0.0031523 Eh/α   predicted    -0.9140292E-04 ( -14.66%)
   displ. norm   :     0.7456348 α      lambda       -0.1609813E-03
   maximum displ.:     0.4808232 α      in ANC's #3, #2, #1, ...

........................................................................
.............................. CYCLE   38 ..............................
........................................................................
   1    -80.3603464 -0.803603E+02  0.135E-02    0.15       0.0  T
   2    -80.3601901  0.156297E-03  0.435E-02    0.18       1.0  T
   3    -80.3603560 -0.165929E-03  0.610E-03    0.16       2.4  T
   4    -80.3603556  0.384414E-06  0.437E-03    0.16       3.3  T
   5    -80.3603566 -0.939642E-06  0.608E-04    0.16      24.0  T
   6    -80.3603566 -0.147043E-07  0.324E-04    0.16      45.0  T
   7    -80.3603566 -0.614658E-08  0.105E-04    0.16     139.1  T
   8    -80.3603566 -0.510113E-09  0.346E-05    0.16     421.4  T
     SCC iter.                  ...        0 min,  0.030 sec
     gradient                   ...        0 min,  0.096 sec
 * total energy  :   -79.4842239 Eh     change       -0.2821651E-04 Eh
   gradient norm :     0.0076959 Eh/α   predicted    -0.1252433E-03 ( 343.87%)
   displ. norm   :     0.0863009 α      lambda       -0.1880890E-03
   maximum displ.:     0.0369544 α      in ANC's #5, #3, #13, ...

........................................................................
.............................. CYCLE   39 ..............................
........................................................................
   1    -80.3668095 -0.803668E+02  0.160E-02    0.17       0.0  T
   2    -80.3658291  0.980414E-03  0.103E-01    0.13       1.0  T
   3    -80.3668311 -0.100202E-02  0.628E-03    0.16       2.3  T
   4    -80.3668259  0.518563E-05  0.914E-03    0.16       1.6  T
   5    -80.3668290 -0.306899E-05  0.600E-03    0.16       2.4  T
   6    -80.3668320 -0.302803E-05  0.154E-03    0.16       9.5  T
   7    -80.3668322 -0.220367E-06  0.242E-04    0.16      60.3  T
   8    -80.3668322 -0.389507E-08  0.143E-04    0.16     101.7  T
   9    -80.3668322 -0.177387E-08  0.147E-05    0.16     995.2  T
     SCC iter.                  ...        0 min,  0.035 sec
     gradient                   ...        0 min,  0.096 sec
 * total energy  :   -79.4843191 Eh     change       -0.9526303E-04 Eh
   gradient norm :     0.0044748 Eh/α   predicted    -0.9474658E-04 (  -0.54%)
   displ. norm   :     0.2593078 α      lambda       -0.9478013E-04
   maximum displ.:     0.1547728 α      in ANC's #3, #2, #1, ...

........................................................................
.............................. CYCLE   40 ..............................
........................................................................
   1    -80.3679096 -0.803679E+02  0.688E-03    0.16       0.0  T
   2    -80.3678059  0.103718E-03  0.340E-02    0.15       1.0  T
   3    -80.3679131 -0.107225E-03  0.281E-03    0.16       5.2  T
   4    -80.3679129  0.217029E-06  0.253E-03    0.16       5.8  T
   5    -80.3679133 -0.390347E-06  0.614E-04    0.16      23.8  T
   6    -80.3679133 -0.196082E-07  0.218E-04    0.16      67.1  T
   7    -80.3679133 -0.363106E-08  0.471E-05    0.16     309.5  T
   8    -80.3679133 -0.120565E-09  0.231E-05    0.16     631.1  T
     SCC iter.                  ...        0 min,  0.030 sec
     gradient                   ...        0 min,  0.091 sec
 * total energy  :   -79.4843761 Eh     change       -0.5697067E-04 Eh
   gradient norm :     0.0028623 Eh/α   predicted    -0.5057764E-04 ( -11.22%)
   displ. norm   :     0.5202289 α      lambda       -0.9536562E-04
   maximum displ.:     0.3164839 α      in ANC's #3, #2, #1, ...

........................................................................
.............................. CYCLE   41 ..............................
........................................................................
   1    -80.3657495 -0.803657E+02  0.794E-03    0.16       0.0  T
   2    -80.3656334  0.116133E-03  0.355E-02    0.15       1.0  T
   3    -80.3657532 -0.119801E-03  0.314E-03    0.16       4.6  T
   4    -80.3657537 -0.533638E-06  0.120E-03    0.16      12.1  T
   5    -80.3657538 -0.889213E-08  0.303E-04    0.16      48.1  T
   6    -80.3657538 -0.316892E-08  0.994E-05    0.16     146.7  T
   7    -80.3657538 -0.259163E-09  0.396E-05    0.16     368.2  T
     SCC iter.                  ...        0 min,  0.027 sec
     gradient                   ...        0 min,  0.089 sec
 * total energy  :   -79.4844518 Eh     change       -0.7572510E-04 Eh
   gradient norm :     0.0034883 Eh/α   predicted    -0.6059146E-04 ( -19.98%)
   displ. norm   :     0.4649606 α      lambda       -0.1050651E-03
   maximum displ.:     0.2672110 α      in ANC's #3, #2, #4, ...

........................................................................
.............................. CYCLE   42 ..............................
........................................................................
   1    -80.3645852 -0.803646E+02  0.835E-03    0.16       0.0  T
   2    -80.3644757  0.109555E-03  0.346E-02    0.15       1.0  T
   3    -80.3645883 -0.112659E-03  0.452E-03    0.16       3.2  T
   4    -80.3645898 -0.144127E-05  0.142E-03    0.16      10.3  T
   5    -80.3645898 -0.216602E-07  0.496E-04    0.16      29.4  T
   6    -80.3645898 -0.122067E-07  0.124E-04    0.16     117.6  T
   7    -80.3645898 -0.492875E-09  0.468E-05    0.16     311.6  T
     SCC iter.                  ...        0 min,  0.027 sec
     gradient                   ...        0 min,  0.089 sec
 * total energy  :   -79.4845223 Eh     change       -0.7046115E-04 Eh
   gradient norm :     0.0043708 Eh/α   predicted    -0.6388998E-04 (  -9.33%)
   displ. norm   :     0.2718262 α      lambda       -0.9344051E-04
   maximum displ.:     0.1386834 α      in ANC's #2, #3, #4, ...
 * RMSD in coord.:     0.9765356 α      energy gain  -0.1768313E-02 Eh

generating ANC from model Hessian ...
Using Lindh-Hessian (1995)
 Shifting diagonal of input Hessian by   9.815326127555904E-003
 Lowest  eigenvalues of input Hessian
    0.000000    0.000000    0.000000    0.000000    0.000000    0.000000
    0.010000    0.010071    0.010351    0.010815    0.011505    0.011576
    0.012336    0.013864    0.014492    0.015850    0.017208    0.017739
 Highest eigenvalues
    1.962059    1.990559    2.053128    2.210734    2.326804    2.398368
 

........................................................................
.............................. CYCLE   43 ..............................
........................................................................
   1    -80.3662323 -0.803662E+02  0.740E-03    0.16       0.0  T
   2    -80.3661441  0.881299E-04  0.311E-02    0.15       1.0  T
   3    -80.3662349 -0.907224E-04  0.367E-03    0.16       4.0  T
   4    -80.3662358 -0.991986E-06  0.114E-03    0.16      12.8  T
   5    -80.3662358 -0.516361E-08  0.270E-04    0.16      54.1  T
   6    -80.3662358  0.768239E-10  0.155E-04    0.16      94.2  T
   7    -80.3662359 -0.208698E-08  0.196E-05    0.16     743.0  T
     SCC iter.                  ...        0 min,  0.028 sec
     gradient                   ...        0 min,  0.093 sec
 * total energy  :   -79.4845776 Eh     change       -0.5529020E-04 Eh
   gradient norm :     0.0047380 Eh/α   predicted     0.0000000E+00 (-100.00%)
   displ. norm   :     0.0437841 α      lambda       -0.6326032E-04
   maximum displ.:     0.0214860 α      in ANC's #6, #7, #4, ...

........................................................................
.............................. CYCLE   44 ..............................
........................................................................
   1    -80.3676272 -0.803676E+02  0.365E-03    0.16       0.0  T
   2    -80.3676199  0.734735E-05  0.918E-03    0.16       1.6  T
   3    -80.3676270 -0.712147E-05  0.317E-03    0.16       4.6  T
   4    -80.3676277 -0.752646E-06  0.828E-04    0.16      17.6  T
   5    -80.3676277  0.505787E-08  0.377E-04    0.16      38.7  T
   6    -80.3676278 -0.115640E-07  0.554E-05    0.16     263.2  T
   7    -80.3676278 -0.113545E-09  0.170E-05    0.16     860.3  T
     SCC iter.                  ...        0 min,  0.027 sec
     gradient                   ...        0 min,  0.094 sec
 * total energy  :   -79.4846253 Eh     change       -0.4771304E-04 Eh
   gradient norm :     0.0019359 Eh/α   predicted    -0.3194864E-04 ( -33.04%)
   displ. norm   :     0.1340408 α      lambda       -0.5811855E-04
   maximum displ.:     0.0688511 α      in ANC's #6, #4, #7, ...

........................................................................
.............................. CYCLE   45 ..............................
........................................................................
   1    -80.3690887 -0.803691E+02  0.771E-03    0.16       0.0  T
   2    -80.3690179  0.707771E-04  0.287E-02    0.17       1.0  T
   3    -80.3690930 -0.751281E-04  0.247E-03    0.16       5.9  T
   4    -80.3690930  0.524697E-07  0.187E-03    0.16       7.8  T
   5    -80.3690931 -0.122801E-06  0.653E-04    0.16      22.3  T
   6    -80.3690931 -0.360090E-07  0.120E-04    0.16     121.5  T
   7    -80.3690931 -0.732612E-09  0.348E-05    0.16     418.8  T
     SCC iter.                  ...        0 min,  0.027 sec
     gradient                   ...        0 min,  0.094 sec
 * total energy  :   -79.4846698 Eh     change       -0.4448629E-04 Eh
   gradient norm :     0.0031561 Eh/α   predicted    -0.2929206E-04 ( -34.15%)
   displ. norm   :     0.0522649 α      lambda       -0.2192628E-04
   maximum displ.:     0.0263055 α      in ANC's #6, #4, #2, ...

........................................................................
.............................. CYCLE   46 ..............................
........................................................................
   1    -80.3686524 -0.803687E+02  0.951E-04    0.16       0.0  T
   2    -80.3686515  0.847958E-06  0.331E-03    0.16       4.4  T
   3    -80.3686523 -0.794157E-06  0.129E-03    0.16      11.3  T
   4    -80.3686524 -0.479110E-07  0.843E-04    0.16      17.3  T
   5    -80.3686524 -0.509739E-07  0.666E-05    0.16     218.9  T
   6    -80.3686524 -0.191235E-09  0.226E-05    0.16     645.5  T
     SCC iter.                  ...        0 min,  0.024 sec
     gradient                   ...        0 min,  0.090 sec
 * total energy  :   -79.4846900 Eh     change       -0.2017980E-04 Eh
   gradient norm :     0.0024211 Eh/α   predicted    -0.1131013E-04 ( -43.95%)
   displ. norm   :     0.1706008 α      lambda       -0.6262500E-04
   maximum displ.:     0.0846849 α      in ANC's #4, #6, #2, ...

........................................................................
.............................. CYCLE   47 ..............................
........................................................................
   1    -80.3671977 -0.803672E+02  0.299E-03    0.16       0.0  T
   2    -80.3671966  0.112084E-05  0.347E-03    0.16       4.2  T
   3    -80.3671946  0.195684E-05  0.626E-03    0.16       2.3  T
   4    -80.3671976 -0.298878E-05  0.172E-03    0.16       8.5  T
   5    -80.3671978 -0.193568E-06  0.259E-04    0.16      56.3  T
   6    -80.3671978 -0.524686E-08  0.368E-05    0.16     396.0  T
   7    -80.3671978 -0.209468E-10  0.124E-05    0.16    1180.3  T
     SCC iter.                  ...        0 min,  0.027 sec
     gradient                   ...        0 min,  0.090 sec
 * total energy  :   -79.4847329 Eh     change       -0.4297455E-04 Eh
   gradient norm :     0.0015230 Eh/α   predicted    -0.3222836E-04 ( -25.01%)
   displ. norm   :     0.1951305 α      lambda       -0.2488551E-04
   maximum displ.:     0.1032301 α      in ANC's #4, #6, #2, ...

........................................................................
.............................. CYCLE   48 ..............................
........................................................................
   1    -80.3662112 -0.803662E+02  0.472E-03    0.16       0.0  T
   2    -80.3661651  0.461235E-04  0.223E-02    0.15       1.0  T
   3    -80.3662128 -0.476594E-04  0.167E-03    0.16       8.7  T
   4    -80.3662129 -0.108080E-06  0.821E-04    0.16      17.8  T
   5    -80.3662129 -0.290616E-07  0.235E-04    0.16      62.2  T
   6    -80.3662129 -0.444490E-08  0.434E-05    0.16     336.4  T
   7    -80.3662129 -0.566587E-10  0.886E-06    0.16    1646.5  T
     SCC iter.                  ...        0 min,  0.027 sec
     gradient                   ...        0 min,  0.091 sec
 * total energy  :   -79.4847540 Eh     change       -0.2102348E-04 Eh
   gradient norm :     0.0027560 Eh/α   predicted    -0.1265364E-04 ( -39.81%)
   displ. norm   :     0.0443338 α      lambda       -0.1713171E-04
   maximum displ.:     0.0270907 α      in ANC's #4, #2, #3, ...

........................................................................
.............................. CYCLE   49 ..............................
........................................................................
   1    -80.3668871 -0.803669E+02  0.367E-03    0.16       0.0  T
   2    -80.3668471  0.399904E-04  0.211E-02    0.15       1.0  T
   3    -80.3668883 -0.411744E-04  0.201E-03    0.16       7.2  T
   4    -80.3668884 -0.139827E-06  0.133E-03    0.16      11.0  T
   5    -80.3668886 -0.123634E-06  0.310E-04    0.16      47.0  T
   6    -80.3668886 -0.726575E-08  0.651E-05    0.16     223.9  T
   7    -80.3668886 -0.330786E-09  0.129E-05    0.16    1132.1  T
     SCC iter.                  ...        0 min,  0.027 sec
     gradient                   ...        0 min,  0.089 sec
 * total energy  :   -79.4847685 Eh     change       -0.1452174E-04 Eh
   gradient norm :     0.0017967 Eh/α   predicted    -0.8582978E-05 ( -40.90%)
   displ. norm   :     0.1704514 α      lambda       -0.3177960E-04
   maximum displ.:     0.1036971 α      in ANC's #4, #2, #3, ...

........................................................................
.............................. CYCLE   50 ..............................
........................................................................
   1    -80.3685672 -0.803686E+02  0.127E-02    0.17       0.0  T
   2    -80.3678590  0.708180E-03  0.876E-02    0.13       1.0  T
   3    -80.3685840 -0.725044E-03  0.494E-03    0.16       3.0  T
   4    -80.3685828  0.127199E-05  0.591E-03    0.16       2.5  T
   5    -80.3685843 -0.157431E-05  0.355E-03    0.16       4.1  T
   6    -80.3685853 -0.995976E-06  0.112E-03    0.16      13.0  T
   7    -80.3685855 -0.115037E-06  0.135E-04    0.16     108.3  T
   8    -80.3685855 -0.107065E-08  0.788E-05    0.16     185.2  T
     SCC iter.                  ...        0 min,  0.031 sec
     gradient                   ...        0 min,  0.091 sec
 * total energy  :   -79.4847933 Eh     change       -0.2479473E-04 Eh
   gradient norm :     0.0017505 Eh/α   predicted    -0.1609513E-04 ( -35.09%)
   displ. norm   :     0.0812260 α      lambda       -0.8375135E-05
   maximum displ.:     0.0485252 α      in ANC's #4, #2, #3, ...

........................................................................
.............................. CYCLE   51 ..............................
........................................................................
   1    -80.3682211 -0.803682E+02  0.252E-03    0.16       0.0  T
   2    -80.3682089  0.122661E-04  0.116E-02    0.16       1.3  T
   3    -80.3682216 -0.127467E-04  0.653E-04    0.16      22.4  T
   4    -80.3682216 -0.205416E-07  0.241E-04    0.16      60.6  T
   5    -80.3682217 -0.139906E-08  0.505E-05    0.16     288.6  T
   6    -80.3682217 -0.394067E-10  0.179E-05    0.16     816.0  T
     SCC iter.                  ...        0 min,  0.023 sec
     gradient                   ...        0 min,  0.091 sec
 * total energy  :   -79.4848042 Eh     change       -0.1092366E-04 Eh
   gradient norm :     0.0011482 Eh/α   predicted    -0.4200049E-05 ( -61.55%)
   displ. norm   :     0.1278900 α      lambda       -0.1550228E-04
   maximum displ.:     0.0729643 α      in ANC's #4, #2, #3, ...

........................................................................
.............................. CYCLE   52 ..............................
........................................................................
   1    -80.3677033 -0.803677E+02  0.156E-03    0.16       0.0  T
   2    -80.3677033  0.254930E-07  0.126E-03    0.16      11.6  T
   3    -80.3677026  0.656126E-06  0.263E-03    0.16       5.6  T
   4    -80.3677033 -0.630973E-06  0.111E-03    0.16      13.1  T
   5    -80.3677033 -0.839272E-07  0.117E-04    0.16     124.9  T
   6    -80.3677033 -0.211642E-09  0.728E-05    0.16     200.4  T
     SCC iter.                  ...        0 min,  0.023 sec
     gradient                   ...        0 min,  0.091 sec
 * total energy  :   -79.4848225 Eh     change       -0.1834955E-04 Eh
   gradient norm :     0.0005718 Eh/α   predicted    -0.7808283E-05 ( -57.45%)
   displ. norm   :     0.1916493 α      lambda       -0.1576563E-04
   maximum displ.:     0.1071243 α      in ANC's #4, #2, #3, ...

........................................................................
.............................. CYCLE   53 ..............................
........................................................................
   1    -80.3671647 -0.803672E+02  0.196E-03    0.16       0.0  T
   2    -80.3671645  0.239716E-06  0.178E-03    0.16       8.2  T
   3    -80.3671634  0.110223E-05  0.407E-03    0.16       3.6  T
   4    -80.3671648 -0.137147E-05  0.740E-04    0.16      19.7  T
   5    -80.3671648 -0.253742E-07  0.177E-04    0.16      82.5  T
   6    -80.3671648 -0.166273E-08  0.542E-05    0.16     269.3  T
     SCC iter.                  ...        0 min,  0.023 sec
     gradient                   ...        0 min,  0.091 sec
 * total energy  :   -79.4848404 Eh     change       -0.1781359E-04 Eh
   gradient norm :     0.0012083 Eh/α   predicted    -0.8013625E-05 ( -55.01%)
   displ. norm   :     0.2091937 α      lambda       -0.1333078E-04
   maximum displ.:     0.1167416 α      in ANC's #2, #4, #3, ...

........................................................................
.............................. CYCLE   54 ..............................
........................................................................
   1    -80.3670501 -0.803671E+02  0.261E-03    0.16       0.0  T
   2    -80.3670433  0.679138E-05  0.860E-03    0.16       1.7  T
   3    -80.3670500 -0.673140E-05  0.227E-03    0.16       6.4  T
   4    -80.3670504 -0.375061E-06  0.695E-04    0.16      21.0  T
   5    -80.3670504 -0.241831E-07  0.142E-04    0.16     102.7  T
   6    -80.3670504 -0.118159E-08  0.415E-05    0.16     351.8  T
     SCC iter.                  ...        0 min,  0.023 sec
     gradient                   ...        0 min,  0.091 sec
 * total energy  :   -79.4848550 Eh     change       -0.1460251E-04 Eh
   gradient norm :     0.0013823 Eh/α   predicted    -0.6797299E-05 ( -53.45%)
   displ. norm   :     0.2025522 α      lambda       -0.1262295E-04
   maximum displ.:     0.1125021 α      in ANC's #2, #4, #3, ...

........................................................................
.............................. CYCLE   55 ..............................
........................................................................
   1    -80.3672649 -0.803673E+02  0.311E-03    0.16       0.0  T
   2    -80.3672500  0.149837E-04  0.129E-02    0.16       1.1  T
   3    -80.3672655 -0.155590E-04  0.124E-03    0.16      11.7  T
   4    -80.3672656 -0.973524E-07  0.391E-04    0.16      37.3  T
   5    -80.3672656 -0.127089E-08  0.886E-05    0.16     164.6  T
   6    -80.3672656 -0.258567E-09  0.343E-05    0.16     424.8  T
     SCC iter.                  ...        0 min,  0.023 sec
     gradient                   ...        0 min,  0.091 sec
 * total energy  :   -79.4848692 Eh     change       -0.1423677E-04 Eh
   gradient norm :     0.0010691 Eh/α   predicted    -0.6427715E-05 ( -54.85%)
   displ. norm   :     0.2093851 α      lambda       -0.1418781E-04
   maximum displ.:     0.1111109 α      in ANC's #2, #3, #4, ...

........................................................................
.............................. CYCLE   56 ..............................
........................................................................
   1    -80.3677266 -0.803677E+02  0.422E-03    0.17       0.0  T
   2    -80.3676923  0.342926E-04  0.196E-02    0.15       1.0  T
   3    -80.3677280 -0.357191E-04  0.985E-04    0.16      14.8  T
   4    -80.3677280 -0.128007E-07  0.686E-04    0.16      21.3  T
   5    -80.3677280 -0.203203E-07  0.178E-04    0.16      81.9  T
   6    -80.3677280 -0.140483E-08  0.666E-05    0.16     219.1  T
     SCC iter.                  ...        0 min,  0.023 sec
     gradient                   ...        0 min,  0.091 sec
 * total energy  :   -79.4848838 Eh     change       -0.1463950E-04 Eh
   gradient norm :     0.0007153 Eh/α   predicted    -0.7232424E-05 ( -50.60%)
   displ. norm   :     0.1136296 α      lambda       -0.8979541E-05
   maximum displ.:     0.0663876 α      in ANC's #3, #2, #7, ...

........................................................................
.............................. CYCLE   57 ..............................
........................................................................
   1    -80.3682029 -0.803682E+02  0.307E-03    0.17       0.0  T
[...]
C5-C4-C3-H30=359.06           C22-C4-C3-C2=358.39           C22-C4-C3-H30=178.10          N6-C5-C4-C3=355.16            
N6-C5-C4-C22=176.10           H31-C5-C4-C3=235.13           H31-C5-C4-C22= 56.07          H32-C5-C4-C3=116.36           
H32-C5-C4-C22=297.30          C7-N6-C5-C4=267.99            C7-N6-C5-H31= 28.43           C7-N6-C5-H32=146.77           
H33-N6-C5-C4= 75.34           H33-N6-C5-H31=195.78          H33-N6-C5-H32=314.12          O8-C7-N6-C5=351.29            
O8-C7-N6-H33=184.39           C9-C7-N6-C5=172.19            C9-C7-N6-H33=  5.28           N10-C9-C7-N6=149.86           
N10-C9-C7-O8=330.76           C20-C9-C7-N6=327.25           C20-C9-C7-O8=148.15           C11-N10-C9-C7=179.10          
C11-N10-C9-C20=  1.57         
           -------------------------------------------------
          |                Final Singlepoint                |
           -------------------------------------------------

          ...................................................
          :                      SETUP                      :
          :.................................................:
          :  # basis functions                 144          :
          :  # atomic orbitals                 144          :
          :  # shells                           94          :
          :  # electrons                       134          :
          :  # halogen bonds                     0          :
          :  max. iterations                   250          :
          :  Hamiltonian                  GFN1-xTB          :
          :  restarted?                      false          :
          :  GBSA solvation                   true          :
          :  PC potential                    false          :
          :  electronic temp.          300.0000000     K    :
          :  accuracy                    1.0000000          :
          :  -> integral cutoff          0.2500000E+02      :
          :  -> integral neglect         0.1000000E-07      :
          :  -> SCF convergence          0.1000000E-05 Eh   :
          :  -> wf. convergence          0.2000000E-04 e    :
          :  Broyden damping             0.4000000          :
          ...................................................

 iter      E             dE          RMSdq      gap      omega  full diag
   1    -80.3680504 -0.803681E+02  0.693E-06    0.16       0.0  T
   2    -80.3680504 -0.170530E-12  0.428E-06    0.16    3405.0  T
   3    -80.3680504  0.103739E-10  0.113E-05    0.16    1288.1  T

   *** convergence criteria satisfied after 3 iterations ***

         #    Occupation            Energy/Eh            Energy/eV
      -------------------------------------------------------------
         1        2.0000           -0.9441686             -25.6921
       ...           ...                  ...                  ...
        61        2.0000           -0.4788362             -13.0298
        62        2.0000           -0.4733053             -12.8793
        63        2.0000           -0.4609001             -12.5417
        64        2.0000           -0.4566037             -12.4248
        65        2.0000           -0.4435229             -12.0689
        66        1.9999           -0.4294023             -11.6846
        67        1.9195           -0.4223926             -11.4939 (HOMO)
        68        0.0805           -0.4163667             -11.3299 (LUMO)
        69                         -0.3253922              -8.8544
        70                         -0.3184240              -8.6648
        71                         -0.2824561              -7.6860
        72                         -0.2470816              -6.7234
       ...                                ...                  ...
       144                          0.7082745              19.2731
      -------------------------------------------------------------
                  HL-Gap            0.0060259 Eh            0.1640 eV
             Fermi-level           -0.4193794 Eh          -11.4119 eV

 SCC (total)                   0 d,  0 h,  0 min,  0.144 sec
 SCC setup                      ...        0 min,  0.002 sec (  1.428%)
 Dispersion                     ...        0 min,  0.000 sec (  0.273%)
 classical contributions        ...        0 min,  0.000 sec (  0.092%)
 integral evaluation            ...        0 min,  0.037 sec ( 25.804%)
 iterations                     ...        0 min,  0.012 sec (  8.416%)
 molecular gradient             ...        0 min,  0.091 sec ( 63.400%)
 printout                       ...        0 min,  0.001 sec (  0.563%)

         :::::::::::::::::::::::::::::::::::::::::::::::::::::
         ::                     SUMMARY                     ::
         :::::::::::::::::::::::::::::::::::::::::::::::::::::
         :: total energy             -79.484903391334 Eh    ::
         :: total w/o Gsasa/hb       -79.456315983547 Eh    ::
         :: gradient norm              0.000378953113 Eh/a0 ::
         :: HOMO-LUMO gap              0.163974064321 eV    ::
         ::.................................................::
         :: SCC energy               -80.368050408042 Eh    ::
         :: -> electrostatic           0.328458227247 Eh    ::
         :: -> Gsolv                  -0.105415250121 Eh    ::
         ::    -> Gelec               -0.076827842334 Eh    ::
         ::    -> Gsasa               -0.024702482212 Eh    ::
         ::    -> Ghb                 -0.011509204579 Eh    ::
         ::    -> Gshift               0.007624279005 Eh    ::
         :: repulsion energy           0.913282266047 Eh    ::
         :: dispersion energy         -0.030135249338 Eh    ::
         :: halogen bond corr.         0.000000000000 Eh    ::
         :: add. restraining           0.000000000000 Eh    ::
         :: total charge               1.000000000002 e     ::
         :::::::::::::::::::::::::::::::::::::::::::::::::::::

           -------------------------------------------------
          |                Property Printout                |
           -------------------------------------------------

    * Orbital Energies and Occupations

         #    Occupation            Energy/Eh            Energy/eV
      -------------------------------------------------------------
         1        2.0000           -0.9441686             -25.6921
       ...           ...                  ...                  ...
        55        2.0000           -0.5198910             -14.1470
        56        2.0000           -0.5155409             -14.0286
        57        2.0000           -0.5089159             -13.8483
        58        2.0000           -0.5009403             -13.6313
        59        2.0000           -0.4999949             -13.6056
        60        2.0000           -0.4927058             -13.4072
        61        2.0000           -0.4788362             -13.0298
        62        2.0000           -0.4733053             -12.8793
        63        2.0000           -0.4609001             -12.5417
        64        2.0000           -0.4566037             -12.4248
        65        2.0000           -0.4435229             -12.0689
        66        1.9999           -0.4294023             -11.6846
        67        1.9195           -0.4223926             -11.4939 (HOMO)
        68        0.0805           -0.4163667             -11.3299 (LUMO)
        69                         -0.3253922              -8.8544
        70                         -0.3184240              -8.6648
        71                         -0.2824561              -7.6860
        72                         -0.2470816              -6.7234
        73                         -0.2427625              -6.6059
        74                         -0.1629790              -4.4349
        75                         -0.1574914              -4.2856
        76                         -0.1520682              -4.1380
        77                         -0.1477744              -4.0211
        78                         -0.1375587              -3.7432
       ...                                ...                  ...
       144                          0.7082745              19.2731
      -------------------------------------------------------------
                  HL-Gap            0.0060259 Eh            0.1640 eV
             Fermi-level           -0.4193794 Eh          -11.4119 eV

  Mulliken/CM5 charges         n(s)   n(p)   n(d)
     1C    -0.07282 -0.22121   1.024  3.048  0.000
     2C    -0.02719 -0.08484   1.061  2.966  0.000
     3C     0.03585 -0.01719   1.105  2.859  0.000
     4C     0.01236  0.00208   1.094  2.894  0.000
     5C     0.09459  0.05311   1.006  2.899  0.000
     6N    -0.35318 -0.71927   1.428  3.925  0.000
     7C     0.47383  0.58029   0.988  2.538  0.000
     8O    -0.58225 -0.62300   1.728  4.854  0.000
     9C     0.08203  0.16265   1.048  2.870  0.000
    10N    -0.37008 -0.55772   1.523  3.847  0.000
    11C     0.27257  0.42369   1.027  2.700  0.000
    12C     0.14777  0.18332   1.065  2.788  0.000
    13C    -0.10582 -0.24732   1.021  3.085  0.000
    14C    -0.10501 -0.24465   1.022  3.083  0.000
    15N    -0.49443 -0.95687   1.472  4.022  0.000
    16N    -0.20198 -0.44992   1.455  3.747  0.000
    17C     0.05177 -0.03504   0.993  2.955  0.000
    18C     0.43065  0.53217   0.985  2.585  0.000
    19O    -0.59156 -0.64382   1.729  4.863  0.000
    20C     0.20161  0.23470   1.026  2.773  0.000
    21O    -0.53189 -0.73454   1.704  4.828  0.000
    22C     0.06210  0.00880   1.102  2.836  0.000
    23C    -0.04349 -0.09450   1.063  2.981  0.000
    24C     0.31621  0.32668   1.083  2.601  0.000
    25F    -0.18194 -0.20973   1.812  5.370  0.000
    26H     0.07936  0.13197   0.921  0.000  0.000
    27H     0.07369  0.12686   0.926  0.000  0.000
    28H     0.07814  0.13192   0.922  0.000  0.000
    29H     0.15596  0.21577   0.844  0.000  0.000
    30H     0.09708  0.16485   0.903  0.000  0.000
    31H     0.08648  0.15808   0.914  0.000  0.000
    32H     0.07740  0.14289   0.923  0.000  0.000
    33H     0.26897  0.47666   0.731  0.000  0.000
    34H     0.04523  0.10022   0.955  0.000  0.000
    35H     0.05371  0.10884   0.946  0.000  0.000
    36H     0.04533  0.10223   0.955  0.000  0.000
    37H     0.04547  0.10117   0.955  0.000  0.000
    38H     0.04207  0.10001   0.958  0.000  0.000
    39H     0.04468  0.10309   0.955  0.000  0.000
    40H     0.23812  0.42910   0.762  0.000  0.000
    41H     0.23162  0.42309   0.768  0.000  0.000
    42H     0.05988  0.12672   0.940  0.000  0.000
    43H     0.05248  0.12092   0.948  0.000  0.000
    44H     0.07543  0.14593   0.925  0.000  0.000
    45H     0.41384  0.59254   0.586  0.000  0.000
    46H     0.10150  0.15833   0.899  0.000  0.000
    47H     0.11387  0.17093   0.886  0.000  0.000

Wiberg/Mayer (AO) data.
largest (>0.10) Wiberg bond orders for each atom

 ---------------------------------------------------------------------------
     #   Z sym  total        # sym  WBO       # sym  WBO       # sym  WBO
 ---------------------------------------------------------------------------
     1   6 C    3.957 --    27 H    0.984    26 H    0.983    28 H    0.982
                             2 C    0.910
     2   6 C    3.986 --     3 C    1.081    24 C    1.066     1 C    0.910
                            29 H    0.846
     3   6 C    3.921 --     4 C    1.562     2 C    1.081    30 H    0.956
     4   6 C    3.982 --     3 C    1.562    22 C    1.306     5 C    0.995
     5   6 C    3.953 --     4 C    0.995     6 N    0.969    32 H    0.958
                            31 H    0.954
     6   7 N    3.322 --     7 C    1.226     5 C    0.969    33 H    0.889
                             8 O    0.164
     7   6 C    3.899 --     8 O    1.609     6 N    1.226     9 C    0.984
     8   8 O    1.897 --     7 C    1.609     6 N    0.164
     9   6 C    3.966 --    20 C    1.512    10 N    1.204     7 C    0.984
    10   7 N    3.027 --    11 C    1.554     9 C    1.204
    11   6 C    3.921 --    10 N    1.554    16 N    1.181    12 C    0.975
    12   6 C    3.956 --    15 N    0.984    14 C    0.981    13 C    0.981
                            11 C    0.975
    13   6 C    3.992 --    34 H    0.985    35 H    0.982    12 C    0.981
                            36 H    0.979
    14   6 C    3.980 --    37 H    0.986    38 H    0.985    12 C    0.981
                            39 H    0.981
    15   7 N    2.947 --    12 C    0.984    41 H    0.933    40 H    0.930
    16   7 N    3.517 --    11 C    1.181    18 C    1.131    17 C    0.925
                            19 O    0.133
    17   6 C    3.917 --    43 H    0.977    44 H    0.975    42 H    0.975
                            16 N    0.925
    18   6 C    3.917 --    19 O    1.544    16 N    1.131    20 C    1.093
    19   8 O    1.893 --    18 C    1.544    16 N    0.133
    20   6 C    3.913 --     9 C    1.512    18 C    1.093    21 O    1.061
    21   8 O    2.059 --    20 C    1.061    45 H    0.800
    22   6 C    3.901 --    23 C    1.404     4 C    1.306    46 H    0.965
    23   6 C    3.981 --    24 C    1.468    22 C    1.404    47 H    0.956
    24   6 C    3.806 --    23 C    1.468     2 C    1.066    25 F    1.028
    25   9 F    1.190 --    24 C    1.028
    26   1 H    0.993 --     1 C    0.983
    27   1 H    0.994 --     1 C    0.984
    28   1 H    0.996 --     1 C    0.982
    29   1 H    0.971 --     2 C    0.846
    30   1 H    1.007 --     3 C    0.956
    31   1 H    1.006 --     5 C    0.954
    32   1 H    0.997 --     5 C    0.958
    33   1 H    0.937 --     6 N    0.889
    34   1 H    1.003 --    13 C    0.985
    35   1 H    0.999 --    13 C    0.982
    36   1 H    1.003 --    13 C    0.979
    37   1 H    1.002 --    14 C    0.986
    38   1 H    1.006 --    14 C    0.985
    39   1 H    1.011 --    14 C    0.981
    40   1 H    0.946 --    15 N    0.930
    41   1 H    0.950 --    15 N    0.933
    42   1 H    1.014 --    17 C    0.975
    43   1 H    1.018 --    17 C    0.977
    44   1 H    1.007 --    17 C    0.975
    45   1 H    0.844 --    21 O    0.800
    46   1 H    0.989 --    22 C    0.965
    47   1 H    0.985 --    23 C    0.956
 ---------------------------------------------------------------------------

Topologies differ in total number of bonds
Writing topology from bond orders to xtbtopo.mol

 dipole moment from electron density (au)
     X       Y       Z   
   4.8338  -0.0984   0.4479  total (Debye):   12.342

           -------------------------------------------------
          |                Geometry Summary                 |
           -------------------------------------------------

      molecular mass/u    :      349.3806376
   center of mass at/Å    :        0.4069231      -0.0107812      -0.0070185
  moments of inertia/u·Å² :        0.1059744E+04   0.5239475E+04   0.5772331E+04
rotational constants/cm⁻¹ :        0.1590726E-01   0.3217428E-02   0.2920420E-02

 * 43 selected distances

     #   Z          #   Z                                           value/Å
     2   6 C        3   6 C                                       1.4741797
     3   6 C        4   6 C                                       1.3681437
     5   6 C        6   7 N                                       1.4441062
     6   7 N        7   6 C                                       1.3580925
     7   6 C        8   8 O                                       1.2192052
     9   6 C       10   7 N                                       1.3626264
    10   7 N       11   6 C                                       1.2978900
    12   6 C       13   6 C                                       1.5359131
    12   6 C       14   6 C                                       1.5392317 (max)
    12   6 C       15   7 N                                       1.4549971
    11   6 C       16   7 N                                       1.3716593
    16   7 N       17   6 C                                       1.4661321
    16   7 N       18   6 C                                       1.3838899
    18   6 C       19   8 O                                       1.2283743
     9   6 C       20   6 C                                       1.3620198
    20   6 C       21   8 O                                       1.3536164
     4   6 C       22   6 C                                       1.4120794
    22   6 C       23   6 C                                       1.3927544
     2   6 C       24   6 C                                       1.4681036
    23   6 C       24   6 C                                       1.3699665
    24   6 C       25   9 F                                       1.3079215
     1   6 C       26   1 H                                       1.0867133
     1   6 C       27   1 H                                       1.0872563
     1   6 C       28   1 H                                       1.0877357
     2   6 C       29   1 H                                       1.1058779
     3   6 C       30   1 H                                       1.0850318
     5   6 C       31   1 H                                       1.0955062
     5   6 C       32   1 H                                       1.0928364
     6   7 N       33   1 H                                       1.0051240
    13   6 C       34   1 H                                       1.0894339
    13   6 C       35   1 H                                       1.0891241
    13   6 C       36   1 H                                       1.0883469
    14   6 C       37   1 H                                       1.0884548
    14   6 C       38   1 H                                       1.0887385
    14   6 C       39   1 H                                       1.0891540
    15   7 N       40   1 H                                       1.0094803
    15   7 N       41   1 H                                       1.0104701
    17   6 C       42   1 H                                       1.0887273
    17   6 C       43   1 H                                       1.0851448
    17   6 C       44   1 H                                       1.0896638
    21   8 O       45   1 H                                       0.9777096 (min)
    22   6 C       46   1 H                                       1.0845777
    23   6 C       47   1 H                                       1.0830589

 * 7 distinct bonds (by element types)

   Z      Z             #   av. dist./Å        max./Å        min./Å
   1 H    6 C          18     1.0891879     1.1058779     1.0830589
   6 C    6 C           9     1.4358213     1.5392317     1.3620198
   1 H    7 N           3     1.0083581     1.0104701     1.0051240
   6 C    7 N           8     1.3924242     1.4661321     1.2978900
   1 H    8 O           1     0.9777096     0.9777096     0.9777096
   6 C    8 O           3     1.2670653     1.3536164     1.2192052
   6 C    9 F           1     1.3079215     1.3079215     1.3079215


optimized geometry written to: xtbopt.xyz


           -------------------------------------------------
          | TOTAL ENERGY              -79.484903391334 Eh   |
          | GRADIENT NORM               0.000378953113 Eh/α |
          | HOMO-LUMO GAP               0.163974064321 eV   |
           -------------------------------------------------

------------------------------------------------------------------------
 * finished run on 2023/06/20 at 15:30:13.426     
------------------------------------------------------------------------
 total:
 * wall-time:     0 d,  0 h,  0 min, 10.252 sec
 *  cpu-time:     0 d,  0 h,  0 min, 10.015 sec
 * ratio c/w:     0.977 speedup
 SCF:
 * wall-time:     0 d,  0 h,  0 min,  0.279 sec
 *  cpu-time:     0 d,  0 h,  0 min,  0.278 sec
 * ratio c/w:     0.997 speedup
 ANC optimizer:
 * wall-time:     0 d,  0 h,  0 min,  9.831 sec
 *  cpu-time:     0 d,  0 h,  0 min,  9.685 sec
 * ratio c/w:     0.985 speedup

