47
 energy: -79.484903391334 gnorm: 0.000378953113 xtb: 6.5.1 (579679a)
C            4.93830558709230       -1.54231254597218       -1.32426809893767
C            4.53461450930563       -0.04555393513190       -1.24006900529036
C            3.49723736811056        0.21584308150823       -0.22580784638387
C            3.60727592092818        1.21859057004824        0.69842469739843
C            2.53100519184131        1.49159946622980        1.72943533114028
N            1.36989011886394        0.65555044433700        1.53379257615006
C            0.33595094495405        1.09339410940302        0.76980468862212
O            0.26501938630112        2.23728429725970        0.35393800504829
C           -0.71474584572475        0.05903656360197        0.50198041455088
N           -1.98202315524627        0.53107996597504        0.33484720224764
C           -2.97323125939911       -0.26729976003816        0.08065360263029
C           -4.33079843904164        0.40059605247185       -0.10053624054419
C           -4.59832637781890        0.59318205263486       -1.60065891681944
C           -4.31115146071555        1.77495397754942        0.59227553052464
N           -5.38458804225701       -0.41541475302327        0.48313326512233
N           -2.79812563930072       -1.61994867473528       -0.06470098900033
C           -3.89365555570983       -2.55100264672230       -0.35192128830281
C           -1.54881261483716       -2.19785643005221        0.07809416716104
O           -1.35100290614104       -3.40501393014820       -0.03391180527259
C           -0.47142101203426       -1.27450341286605        0.36945953196959
O            0.75847490287390       -1.82948889969471        0.47727482279674
C            4.76821508729551        2.02226082131362        0.71580748173077
C            5.80558103548301        1.84537168328686       -0.19652281966982
C            5.69530405362857        0.84631708883475       -1.12740232191164
F            6.65809549661443        0.64919712884086       -1.99044043719137
H            4.06117078517833       -2.13588940622986       -1.56767430847150
H            5.34150398803767       -1.86254571027001       -0.36666288163588
H            5.69113442793727       -1.66739406741404       -2.09936301611337
H            4.07420863731706        0.16822609963742       -2.22256087637806
H            2.62952094941863       -0.43541338205984       -0.24087299041803
H            2.21958852823654        2.53921092289251        1.65417963200651
H            2.93626885131150        1.31697937073121        2.72921549407709
H            1.43862338406391       -0.30847261415056        1.80985295353537
H           -3.77866344220084        1.14992437954197       -2.05349061770865
H           -5.52281566478893        1.15261405865050       -1.73684410605136
H           -4.69423105315543       -0.36442248823003       -2.10888581088804
H           -5.29623362090040        2.23116534096962        0.51342149221410
H           -4.05545680630789        1.65971291188847        1.64426933179328
H           -3.57527163383695        2.42495800563892        0.12086071706138
H           -6.29084808058235       -0.07284514826819        0.19960363851593
H           -5.32893575719878       -0.39590915768866        1.49188096577278
H           -4.45647725914596       -2.74313268713839        0.56002427066841
H           -4.55562824514804       -2.13329717187375       -1.10348857660785
H           -3.45894833050474       -3.48053645591762       -0.71847770351660
H            0.66310894035899       -2.79521352787529        0.35812317875785
H            4.86138551894550        2.79661296343723        1.46946958796907
H            6.68990858787997        2.46980244882980       -0.16385092235024
