      -----------------------------------------------------------      
     |                   =====================                   |     
     |                           x T B                           |     
     |                   =====================                   |     
     |                         S. Grimme                         |     
     |          Mulliken Center for Theoretical Chemistry        |     
     |                    University of Bonn                     |     
      -----------------------------------------------------------      

   * xtb version 6.5.1 (579679a) compiled by 'ehlert@majestix' on 2022-07-11

   xtb is free software: you can redistribute it and/or modify it under
   the terms of the GNU Lesser General Public License as published by
   the Free Software Foundation, either version 3 of the License, or
   (at your option) any later version.
   
   xtb is distributed in the hope that it will be useful,
   but WITHOUT ANY WARRANTY; without even the implied warranty of
   MERCHANTABILITY or FITNESS FOR A PARTICULAR PURPOSE.  See the
   GNU Lesser General Public License for more details.
   
   Cite this work as:
   * C. Bannwarth, E. Caldeweyher, S. Ehlert, A. Hansen, P. Pracht,
     J. Seibert, S. Spicher, S. Grimme, WIREs Comput. Mol. Sci., 2020, 11,
     e01493. DOI: 10.1002/wcms.1493
   
   for GFN2-xTB:
   * C. Bannwarth, S. Ehlert and S. Grimme., J. Chem. Theory Comput., 2019,
     15, 1652-1671. DOI: 10.1021/acs.jctc.8b01176
   for GFN1-xTB:
   * S. Grimme, C. Bannwarth, P. Shushkov, J. Chem. Theory Comput., 2017,
     13, 1989-2009. DOI: 10.1021/acs.jctc.7b00118
   for GFN0-xTB:
   * P. Pracht, E. Caldeweyher, S. Ehlert, S. Grimme, ChemRxiv, 2019, preprint.
     DOI: 10.26434/chemrxiv.8326202.v1
   for GFN-FF:
   * S. Spicher and S. Grimme, Angew. Chem. Int. Ed., 2020, 59, 15665-15673.
     DOI: 10.1002/anie.202004239
   
   for ALPB and GBSA implicit solvation:
   * S. Ehlert, M. Stahn, S. Spicher, S. Grimme, J. Chem. Theory Comput.,
     2021, 17, 4250-4261. DOI: 10.1021/acs.jctc.1c00471
   
   for DFT-D4:
   * E. Caldeweyher, C. Bannwarth and S. Grimme, J. Chem. Phys., 2017,
     147, 034112. DOI: 10.1063/1.4993215
   * E. Caldeweyher, S. Ehlert, A. Hansen, H. Neugebauer, S. Spicher,
     C. Bannwarth and S. Grimme, J. Chem. Phys., 2019, 150, 154122.
     DOI: 10.1063/1.5090222
   * E. Caldeweyher, J.-M. Mewes, S. Ehlert and S. Grimme, Phys. Chem. Chem. Phys.
     2020, 22, 8499-8512. DOI: 10.1039/D0CP00502A
   
   for sTDA-xTB:
   * S. Grimme and C. Bannwarth, J. Chem. Phys., 2016, 145, 054103.
     DOI: 10.1063/1.4959605
   
   in the mass-spec context:
   * V. Asgeirsson, C. Bauer and S. Grimme, Chem. Sci., 2017, 8, 4879.
     DOI: 10.1039/c7sc00601b
   * J. Koopman and S. Grimme, ACS Omega 2019, 4, 12, 15120-15133.
     DOI: 10.1021/acsomega.9b02011
   
   for metadynamics refer to:
   * S. Grimme, J. Chem. Theory Comput., 2019, 155, 2847-2862
     DOI: 10.1021/acs.jctc.9b00143
   
   for SPH calculations refer to:
   * S. Spicher and S. Grimme, J. Chem. Theory Comput., 2021, 17, 1701-1714
     DOI: 10.1021/acs.jctc.0c01306
   
   with help from (in alphabetical order)
   P. Atkinson, C. Bannwarth, F. Bohle, G. Brandenburg, E. Caldeweyher
   M. Checinski, S. Dohm, S. Ehlert, S. Ehrlich, I. Gerasimov, C. Hölzer
   A. Katbashev, J. Koopman, C. Lavigne, S. Lehtola, F. März, M. Müller,
   F. Musil, H. Neugebauer, J. Pisarek, C. Plett, P. Pracht, F. Pultar,
   J. Seibert, P. Shushkov, S. Spicher, M. Stahn, M. Steiner, T. Strunk,
   J. Stückrath, T. Rose, and J. Unsleber
   
 * started run on 2023/06/21 at 17:33:59.233     

           -------------------------------------------------
          |                Calculation Setup                |
           -------------------------------------------------

          program call               : /lustre/hpc/kemi/ree/PhD/git/ReactivityQM/dep/xtb-6.5.1/bin/xtb --gfn 1 /lustre/hpc/kemi/ree/PhD/git/ReactivityQM/calculations/R02methylcation/reac01prodN04/conf04/R02methylcation_reac01prodN04_conf04_gfn1.xyz --opt --vfukui --chrg 0 --uhf 0 --alpb DMSO
          hostname                   : node317
          coordinate file            : /lustre/hpc/kemi/ree/PhD/git/ReactivityQM/calculations/R02methylcation/reac01prodN04/conf04/R02methylcation_reac01prodN04_conf04_gfn1.xyz
          omp threads                :                     1

   ID    Z sym.   atoms
    1    6 C      1, 3, 5, 6, 8-11, 13, 15, 18, 19, 22, 24
    2    8 O      2, 4, 14, 20, 23, 25
    3    7 N      7, 12, 16, 17, 21
    4    1 H      26-42

           -------------------------------------------------
          |                 G F N 1 - x T B                 |
           -------------------------------------------------

        Reference                      10.1021/acs.jctc.7b00118
      * Hamiltonian:
        H0-scaling (s, p, d)           1.850000    2.250000    2.000000
        zeta-weighting                 0.000000
      * Dispersion:
        s8                             2.400000
        a1                             0.630000
        a2                             5.000000
        s9                             0.000000
      * Repulsion:
        kExp                           1.500000
        rExp                           1.000000
      * Coulomb:
        alpha                          2.000000
        third order                    atomic
        anisotropic                    false
      * Halogen bond correction:
        rad-scale                      1.300000
        damping                        0.440000

      * Solvation model:               ALPB
        Solvent                        DMSO
        Parameter file                 internal GFN1-xTB/ALPB
        Dielectric constant                4.6680E+01
        Reference state                gsolv [1 M gas/solution]
        Free energy shift                  7.6243E-03 Eh       4.7843E+00 kcal/mol
        Temperature                        2.9815E+02 K
        Density                            1.1000E+00 kg/L
        Solvent mass                       7.8130E+01 g/mol
        Interaction kernel             P16
        Born radius scaling (c1)           1.7672E+00
        Born radii integrator          GBOBC
        Born offset                        0.0000E+00 a0       0.0000E+00 AA
        H-bond correction              true
        Ion screening                  false
        Surface tension                    1.0000E-05 Eh       1.5569E+01 dyn/cm
        Grid points                               230 per atom

          ...................................................
          :                      SETUP                      :
          :.................................................:
          :  # basis functions                 134          :
          :  # atomic orbitals                 134          :
          :  # shells                           84          :
          :  # electrons                       134          :
          :  # halogen bonds                     0          :
          :  max. iterations                   250          :
          :  Hamiltonian                  GFN1-xTB          :
          :  restarted?                      false          :
          :  GBSA solvation                   true          :
          :  PC potential                    false          :
          :  electronic temp.          300.0000000     K    :
          :  accuracy                    1.0000000          :
          :  -> integral cutoff          0.2500000E+02      :
          :  -> integral neglect         0.1000000E-07      :
          :  -> SCF convergence          0.1000000E-05 Eh   :
          :  -> wf. convergence          0.2000000E-04 e    :
          :  Broyden damping             0.4000000          :
          ...................................................

 iter      E             dE          RMSdq      gap      omega  full diag
   1    -83.3321863 -0.833322E+02  0.850E+00    2.47       0.0  T
   2    -83.6974956 -0.365309E+00  0.510E+00    1.97       1.0  T
   3    -83.6643771  0.331185E-01  0.194E+00    2.30       1.0  T
   4    -83.7235748 -0.591977E-01  0.299E-01    2.10       1.0  T
   5    -83.7284422 -0.486744E-02  0.946E-02    2.15       1.0  T
   6    -83.7288594 -0.417189E-03  0.217E-02    2.13       1.0  T
   7    -83.7288681 -0.869015E-05  0.642E-03    2.13       2.4  T
   8    -83.7288684 -0.315347E-06  0.226E-03    2.13       6.8  T
   9    -83.7288685 -0.551187E-07  0.100E-03    2.13      15.4  T
  10    -83.7288685 -0.909355E-08  0.307E-04    2.13      50.2  T
  11    -83.7288685 -0.589836E-09  0.663E-05    2.13     232.7  T
  12    -83.7288685 -0.808029E-10  0.242E-05    2.13     636.9  T

   *** convergence criteria satisfied after 12 iterations ***

         #    Occupation            Energy/Eh            Energy/eV
      -------------------------------------------------------------
         1        2.0000           -0.8634182             -23.4948
       ...           ...                  ...                  ...
        61        2.0000           -0.4620057             -12.5718
        62        2.0000           -0.4587310             -12.4827
        63        2.0000           -0.4507653             -12.2659
        64        2.0000           -0.4441003             -12.0846
        65        2.0000           -0.4422380             -12.0339
        66        2.0000           -0.4201685             -11.4334
        67        2.0000           -0.4145289             -11.2799 (HOMO)
        68                         -0.3362807              -9.1507 (LUMO)
        69                         -0.3166035              -8.6152
        70                         -0.2783245              -7.5736
        71                         -0.2584003              -7.0314
        72                         -0.2553174              -6.9475
       ...                                ...                  ...
       134                          0.7598537              20.6767
      -------------------------------------------------------------
                  HL-Gap            0.0782482 Eh            2.1292 eV
             Fermi-level           -0.3754048 Eh          -10.2153 eV

 SCC (total)                   0 d,  0 h,  0 min,  0.185 sec
 SCC setup                      ...        0 min,  0.002 sec (  1.251%)
 Dispersion                     ...        0 min,  0.000 sec (  0.241%)
 classical contributions        ...        0 min,  0.000 sec (  0.078%)
 integral evaluation            ...        0 min,  0.054 sec ( 29.138%)
 iterations                     ...        0 min,  0.044 sec ( 23.976%)
 molecular gradient             ...        0 min,  0.083 sec ( 44.734%)
 printout                       ...        0 min,  0.001 sec (  0.553%)

         :::::::::::::::::::::::::::::::::::::::::::::::::::::
         ::                     SUMMARY                     ::
         :::::::::::::::::::::::::::::::::::::::::::::::::::::
         :: total energy             -82.972616788480 Eh    ::
         :: total w/o Gsasa/hb       -82.951721623486 Eh    ::
         :: gradient norm              0.124689517801 Eh/a0 ::
         :: HOMO-LUMO gap              2.129241350589 eV    ::
         ::.................................................::
         :: SCC energy               -83.728868497854 Eh    ::
         :: -> electrostatic           0.359319114398 Eh    ::
         :: -> Gsolv                  -0.068468952586 Eh    ::
         ::    -> Gelec               -0.047573787593 Eh    ::
         ::    -> Gsasa               -0.024347145735 Eh    ::
         ::    -> Ghb                 -0.004172298263 Eh    ::
         ::    -> Gshift               0.007624279005 Eh    ::
         :: repulsion energy           0.782608662331 Eh    ::
         :: dispersion energy         -0.026356952956 Eh    ::
         :: halogen bond corr.         0.000000000000 Eh    ::
         :: add. restraining           0.000000000000 Eh    ::
         :: total charge              -0.000000000000 e     ::
         :::::::::::::::::::::::::::::::::::::::::::::::::::::

      ----------------------------------------------------------- 
     |                   =====================                   |
     |                        A N C O P T                        |
     |                   =====================                   |
     |               Approximate Normal Coordinate               |
     |                Rational Function Optimizer                |
      ----------------------------------------------------------- 

          ...................................................
          :                      SETUP                      :
          :.................................................:
          :   optimization level            normal          :
          :   max. optcycles                   200          :
          :   ANC micro-cycles                  20          :
          :   degrees of freedom               120          :
          :.................................................:
          :   RF solver                   davidson          :
          :   write xtbopt.log                true          :
          :   linear?                        false          :
          :   energy convergence         0.5000000E-05 Eh   :
          :   grad. convergence          0.1000000E-02 Eh/α :
          :   maximium RF displ.         1.0000000          :
          :   Hlow (freq-cutoff)         0.1000000E-01      :
          :   Hmax (freq-cutoff)         5.0000000          :
          :   S6 in model hess.         20.0000000          :
          ...................................................

generating ANC from model Hessian ...
Using Lindh-Hessian (1995)
 Shifting diagonal of input Hessian by   9.778591136805950E-003
 Lowest  eigenvalues of input Hessian
    0.000000    0.000000    0.000000    0.000000    0.000000    0.000000
    0.010000    0.010063    0.010331    0.011254    0.011988    0.012130
    0.012997    0.013546    0.013892    0.014644    0.015184    0.016538
 Highest eigenvalues
    1.966179    2.104950    2.144361    2.290297    2.344377    2.438282
 

........................................................................
.............................. CYCLE    1 ..............................
........................................................................
   1    -83.7288685 -0.837289E+02  0.746E-06    2.13       0.0  T
   2    -83.7288685 -0.568434E-12  0.342E-06    2.13    4513.8  T
   3    -83.7288685 -0.127898E-12  0.209E-06    2.13    7400.3  T
     SCC iter.                  ...        0 min,  0.011 sec
     gradient                   ...        0 min,  0.082 sec
 * total energy  :   -82.9726168 Eh     change       -0.1071498E-10 Eh
   gradient norm :     0.1246895 Eh/α   predicted     0.0000000E+00 (-100.00%)
   displ. norm   :     0.4101087 α      lambda       -0.2212211E-01
   maximum displ.:     0.1844964 α      in ANC's #23, #22, #6, ...

........................................................................
.............................. CYCLE    2 ..............................
........................................................................
   1    -83.7568699 -0.837569E+02  0.115E-01    2.29       0.0  T
   2    -83.7573894 -0.519502E-03  0.637E-02    2.25       1.0  T
   3    -83.7575186 -0.129150E-03  0.229E-02    2.26       1.0  T
   4    -83.7575168  0.182720E-05  0.110E-02    2.26       1.4  T
   5    -83.7575197 -0.294512E-05  0.127E-03    2.26      12.1  T
   6    -83.7575197 -0.293161E-07  0.385E-04    2.26      40.1  T
   7    -83.7575197 -0.244462E-08  0.147E-04    2.26     105.0  T
   8    -83.7575197 -0.293966E-09  0.341E-05    2.26     452.1  T
     SCC iter.                  ...        0 min,  0.028 sec
     gradient                   ...        0 min,  0.082 sec
 * total energy  :   -82.9886674 Eh     change       -0.1605058E-01 Eh
   gradient norm :     0.0584246 Eh/α   predicted    -0.1294507E-01 ( -19.35%)
   displ. norm   :     0.3892848 α      lambda       -0.9076410E-02
   maximum displ.:     0.1858708 α      in ANC's #23, #6, #37, ...

........................................................................
.............................. CYCLE    3 ..............................
........................................................................
   1    -83.7724455 -0.837724E+02  0.927E-02    2.38       0.0  T
   2    -83.7727896 -0.344088E-03  0.483E-02    2.35       1.0  T
   3    -83.7728555 -0.659034E-04  0.181E-02    2.36       1.0  T
   4    -83.7728547  0.766536E-06  0.760E-03    2.36       2.0  T
   5    -83.7728560 -0.125924E-05  0.121E-03    2.36      12.8  T
   6    -83.7728560 -0.326452E-07  0.319E-04    2.36      48.4  T
   7    -83.7728560 -0.173492E-08  0.129E-04    2.36     119.3  T
   8    -83.7728560 -0.187100E-09  0.286E-05    2.36     540.5  T
     SCC iter.                  ...        0 min,  0.029 sec
     gradient                   ...        0 min,  0.082 sec
 * total energy  :   -82.9942399 Eh     change       -0.5572494E-02 Eh
   gradient norm :     0.0210956 Eh/α   predicted    -0.5225937E-02 (  -6.22%)
   displ. norm   :     0.3205675 α      lambda       -0.2109059E-02
   maximum displ.:     0.1600112 α      in ANC's #6, #8, #23, ...

........................................................................
.............................. CYCLE    4 ..............................
........................................................................
   1    -83.7734382 -0.837734E+02  0.239E-02    2.37       0.0  T
   2    -83.7734560 -0.177865E-04  0.112E-02    2.37       1.4  T
   3    -83.7734580 -0.200677E-05  0.516E-03    2.37       3.0  T
   4    -83.7734580 -0.318381E-07  0.169E-03    2.37       9.1  T
   5    -83.7734580 -0.159007E-07  0.255E-04    2.37      60.4  T
   6    -83.7734580 -0.110424E-08  0.957E-05    2.37     161.2  T
   7    -83.7734580 -0.131962E-09  0.309E-05    2.37     499.7  T
     SCC iter.                  ...        0 min,  0.026 sec
     gradient                   ...        0 min,  0.078 sec
 * total energy  :   -82.9958023 Eh     change       -0.1562457E-02 Eh
   gradient norm :     0.0137372 Eh/α   predicted    -0.1162902E-02 ( -25.57%)
   displ. norm   :     0.3967116 α      lambda       -0.1501540E-02
   maximum displ.:     0.2299872 α      in ANC's #6, #8, #13, ...

........................................................................
.............................. CYCLE    5 ..............................
........................................................................
   1    -83.7731921 -0.837732E+02  0.204E-02    2.36       0.0  T
   2    -83.7732013 -0.916159E-05  0.935E-03    2.36       1.6  T
   3    -83.7732021 -0.815496E-06  0.502E-03    2.36       3.1  T
   4    -83.7732022 -0.634707E-07  0.153E-03    2.36      10.1  T
   5    -83.7732022 -0.201782E-07  0.289E-04    2.36      53.4  T
   6    -83.7732022 -0.359547E-08  0.975E-05    2.36     158.2  T
   7    -83.7732022 -0.246942E-09  0.321E-05    2.36     480.4  T
     SCC iter.                  ...        0 min,  0.027 sec
     gradient                   ...        0 min,  0.082 sec
 * total energy  :   -82.9968872 Eh     change       -0.1084840E-02 Eh
   gradient norm :     0.0099101 Eh/α   predicted    -0.8689298E-03 ( -19.90%)
   displ. norm   :     0.4055834 α      lambda       -0.9255299E-03
   maximum displ.:     0.2552924 α      in ANC's #6, #8, #13, ...

........................................................................
.............................. CYCLE    6 ..............................
........................................................................
   1    -83.7735761 -0.837736E+02  0.145E-02    2.36       0.0  T
   2    -83.7735806 -0.444615E-05  0.606E-03    2.36       2.5  T
   3    -83.7735808 -0.212046E-06  0.350E-03    2.36       4.4  T
   4    -83.7735808 -0.280798E-07  0.807E-04    2.36      19.1  T
   5    -83.7735808 -0.816401E-08  0.162E-04    2.36      95.2  T
   6    -83.7735808 -0.763720E-09  0.537E-05    2.36     287.5  T
     SCC iter.                  ...        0 min,  0.023 sec
     gradient                   ...        0 min,  0.082 sec
 * total energy  :   -82.9975862 Eh     change       -0.6990832E-03 Eh
   gradient norm :     0.0109618 Eh/α   predicted    -0.5389075E-03 ( -22.91%)
   displ. norm   :     0.3985228 α      lambda       -0.7234169E-03
   maximum displ.:     0.2498402 α      in ANC's #6, #8, #13, ...

........................................................................
.............................. CYCLE    7 ..............................
........................................................................
   1    -83.7752167 -0.837752E+02  0.985E-03    2.36       0.0  T
   2    -83.7752201 -0.342481E-05  0.407E-03    2.36       3.8  T
   3    -83.7752203 -0.165796E-06  0.227E-03    2.36       6.8  T
   4    -83.7752203 -0.818537E-08  0.724E-04    2.36      21.3  T
   5    -83.7752203 -0.952082E-08  0.171E-04    2.36      90.5  T
   6    -83.7752203 -0.945818E-09  0.460E-05    2.36     335.7  T
     SCC iter.                  ...        0 min,  0.023 sec
     gradient                   ...        0 min,  0.082 sec
 * total energy  :   -82.9981482 Eh     change       -0.5619298E-03 Eh
   gradient norm :     0.0099436 Eh/α   predicted    -0.4191787E-03 ( -25.40%)
   displ. norm   :     0.4120844 α      lambda       -0.6043833E-03
   maximum displ.:     0.2495081 α      in ANC's #8, #6, #4, ...

........................................................................
.............................. CYCLE    8 ..............................
........................................................................
   1    -83.7768762 -0.837769E+02  0.673E-03    2.36       0.0  T
   2    -83.7768783 -0.204630E-05  0.352E-03    2.36       4.4  T
   3    -83.7768784 -0.144220E-06  0.172E-03    2.36       9.0  T
   4    -83.7768784 -0.247995E-08  0.626E-04    2.36      24.6  T
   5    -83.7768784 -0.228391E-08  0.102E-04    2.36     151.0  T
   6    -83.7768784 -0.277609E-09  0.403E-05    2.36     382.7  T
     SCC iter.                  ...        0 min,  0.023 sec
     gradient                   ...        0 min,  0.082 sec
 * total energy  :   -82.9985942 Eh     change       -0.4459891E-03 Eh
   gradient norm :     0.0075315 Eh/α   predicted    -0.3535168E-03 ( -20.73%)
   displ. norm   :     0.3484137 α      lambda       -0.3665786E-03
   maximum displ.:     0.2151703 α      in ANC's #8, #6, #5, ...

........................................................................
.............................. CYCLE    9 ..............................
........................................................................
   1    -83.7783796 -0.837784E+02  0.705E-03    2.36       0.0  T
   2    -83.7783809 -0.132251E-05  0.361E-03    2.36       4.3  T
   3    -83.7783810 -0.159653E-06  0.191E-03    2.36       8.1  T
   4    -83.7783810 -0.228161E-08  0.502E-04    2.36      30.7  T
   5    -83.7783811 -0.434908E-08  0.132E-04    2.36     116.7  T
   6    -83.7783811 -0.600494E-09  0.313E-05    2.36     493.5  T
     SCC iter.                  ...        0 min,  0.023 sec
     gradient                   ...        0 min,  0.082 sec
 * total energy  :   -82.9988534 Eh     change       -0.2592116E-03 Eh
   gradient norm :     0.0051091 Eh/α   predicted    -0.2055405E-03 ( -20.71%)
   displ. norm   :     0.2596743 α      lambda       -0.1921170E-03
   maximum displ.:     0.1517661 α      in ANC's #8, #6, #5, ...

........................................................................
.............................. CYCLE   10 ..............................
........................................................................
   1    -83.7785213 -0.837785E+02  0.696E-03    2.36       0.0  T
   2    -83.7785231 -0.179735E-05  0.341E-03    2.36       4.5  T
   3    -83.7785234 -0.256911E-06  0.187E-03    2.36       8.2  T
   4    -83.7785234 -0.807201E-08  0.685E-04    2.36      22.5  T
   5    -83.7785234 -0.417160E-08  0.126E-04    2.36     122.9  T
   6    -83.7785234 -0.504798E-09  0.317E-05    2.36     486.1  T
     SCC iter.                  ...        0 min,  0.023 sec
     gradient                   ...        0 min,  0.082 sec
 * total energy  :   -82.9989878 Eh     change       -0.1344206E-03 Eh
   gradient norm :     0.0038764 Eh/α   predicted    -0.1025365E-03 ( -23.72%)
   displ. norm   :     0.1934133 α      lambda       -0.1282591E-03
   maximum displ.:     0.0953779 α      in ANC's #8, #5, #2, ...

........................................................................
.............................. CYCLE   11 ..............................
........................................................................
   1    -83.7798278 -0.837798E+02  0.770E-03    2.37       0.0  T
   2    -83.7798300 -0.215269E-05  0.360E-03    2.37       4.3  T
   3    -83.7798302 -0.238230E-06  0.198E-03    2.37       7.8  T
   4    -83.7798302 -0.807103E-08  0.750E-04    2.37      20.6  T
   5    -83.7798302 -0.660090E-08  0.117E-04    2.37     131.8  T
   6    -83.7798302 -0.541561E-09  0.265E-05    2.37     582.4  T
     SCC iter.                  ...        0 min,  0.023 sec
     gradient                   ...        0 min,  0.081 sec
 * total energy  :   -82.9990684 Eh     change       -0.8059432E-04 Eh
   gradient norm :     0.0041742 Eh/α   predicted    -0.6653277E-04 ( -17.45%)
   displ. norm   :     0.1758498 α      lambda       -0.9586566E-04
   maximum displ.:     0.0853585 α      in ANC's #2, #3, #5, ...

........................................................................
.............................. CYCLE   12 ..............................
........................................................................
   1    -83.7783073 -0.837783E+02  0.703E-03    2.37       0.0  T
   2    -83.7783095 -0.212821E-05  0.284E-03    2.37       5.4  T
   3    -83.7783096 -0.131029E-06  0.153E-03    2.37      10.1  T
   4    -83.7783096 -0.170843E-09  0.677E-04    2.37      22.8  T
   5    -83.7783096 -0.685711E-08  0.981E-05    2.37     157.4  T
   6    -83.7783096 -0.368260E-09  0.268E-05    2.37     575.4  T
     SCC iter.                  ...        0 min,  0.023 sec
     gradient                   ...        0 min,  0.081 sec
 * total energy  :   -82.9991301 Eh     change       -0.6171424E-04 Eh
   gradient norm :     0.0043254 Eh/α   predicted    -0.4941569E-04 ( -19.93%)
   displ. norm   :     0.1411768 α      lambda       -0.8378229E-04
   maximum displ.:     0.0778697 α      in ANC's #2, #3, #9, ...

........................................................................
.............................. CYCLE   13 ..............................
........................................................................
   1    -83.7788950 -0.837789E+02  0.254E-03    2.37       0.0  T
   2    -83.7788952 -0.211651E-06  0.139E-03    2.37      11.1  T
   3    -83.7788953 -0.162651E-07  0.769E-04    2.37      20.1  T
   4    -83.7788953 -0.618627E-09  0.194E-04    2.37      79.7  T
   5    -83.7788953 -0.250012E-09  0.254E-05    2.37     608.1  T
     SCC iter.                  ...        0 min,  0.020 sec
     gradient                   ...        0 min,  0.081 sec
 * total energy  :   -82.9991964 Eh     change       -0.6632604E-04 Eh
   gradient norm :     0.0038361 Eh/α   predicted    -0.4272660E-04 ( -35.58%)
   displ. norm   :     0.2273310 α      lambda       -0.1200930E-03
   maximum displ.:     0.1314825 α      in ANC's #2, #3, #9, ...

........................................................................
.............................. CYCLE   14 ..............................
........................................................................
   1    -83.7783906 -0.837784E+02  0.496E-03    2.37       0.0  T
   2    -83.7783915 -0.914582E-06  0.239E-03    2.37       6.5  T
   3    -83.7783916 -0.115369E-06  0.126E-03    2.37      12.2  T
   4    -83.7783916 -0.243713E-08  0.466E-04    2.37      33.1  T
   5    -83.7783916 -0.264569E-08  0.941E-05    2.37     164.0  T
   6    -83.7783916 -0.299082E-09  0.181E-05    2.37     854.1  T
     SCC iter.                  ...        0 min,  0.023 sec
     gradient                   ...        0 min,  0.082 sec
 * total energy  :   -82.9992844 Eh     change       -0.8799105E-04 Eh
   gradient norm :     0.0039309 Eh/α   predicted    -0.6315011E-04 ( -28.23%)
   displ. norm   :     0.2286008 α      lambda       -0.1040474E-03
   maximum displ.:     0.1386053 α      in ANC's #2, #3, #9, ...

........................................................................
.............................. CYCLE   15 ..............................
........................................................................
   1    -83.7787829 -0.837788E+02  0.393E-03    2.37       0.0  T
   2    -83.7787837 -0.786475E-06  0.197E-03    2.37       7.8  T
   3    -83.7787838 -0.114005E-06  0.854E-04    2.37      18.1  T
   4    -83.7787838 -0.309825E-09  0.412E-04    2.37      37.5  T
   5    -83.7787838 -0.152956E-08  0.861E-05    2.37     179.2  T
   6    -83.7787838 -0.146372E-09  0.210E-05    2.37     734.0  T
     SCC iter.                  ...        0 min,  0.023 sec
     gradient                   ...        0 min,  0.082 sec
 * total energy  :   -82.9993642 Eh     change       -0.7974934E-04 Eh
   gradient norm :     0.0040275 Eh/α   predicted    -0.5474335E-04 ( -31.36%)
   displ. norm   :     0.2872790 α      lambda       -0.1206229E-03
   maximum displ.:     0.1809070 α      in ANC's #2, #3, #9, ...

........................................................................
.............................. CYCLE   16 ..............................
........................................................................
   1    -83.7785800 -0.837786E+02  0.320E-03    2.36       0.0  T
   2    -83.7785806 -0.563712E-06  0.164E-03    2.37       9.4  T
   3    -83.7785807 -0.701231E-07  0.777E-04    2.37      19.9  T
   4    -83.7785807 -0.278362E-09  0.353E-04    2.37      43.7  T
   5    -83.7785807 -0.150968E-08  0.703E-05    2.37     219.4  T
   6    -83.7785807 -0.918163E-10  0.204E-05    2.37     756.5  T
     SCC iter.                  ...        0 min,  0.023 sec
     gradient                   ...        0 min,  0.082 sec
 * total energy  :   -82.9994631 Eh     change       -0.9889405E-04 Eh
   gradient norm :     0.0040708 Eh/α   predicted    -0.6528920E-04 ( -33.98%)
   displ. norm   :     0.3987477 α      lambda       -0.1621377E-03
   maximum displ.:     0.2566251 α      in ANC's #2, #3, #4, ...

........................................................................
.............................. CYCLE   17 ..............................
........................................................................
   1    -83.7783005 -0.837783E+02  0.387E-03    2.36       0.0  T
   2    -83.7783012 -0.721029E-06  0.174E-03    2.36       8.9  T
   3    -83.7783013 -0.446554E-07  0.877E-04    2.36      17.6  T
   4    -83.7783013 -0.209486E-08  0.365E-04    2.36      42.3  T
   5    -83.7783013 -0.763535E-09  0.918E-05    2.36     168.1  T
   6    -83.7783013 -0.157087E-09  0.254E-05    2.36     606.6  T
     SCC iter.                  ...        0 min,  0.023 sec
     gradient                   ...        0 min,  0.081 sec
 * total energy  :   -82.9995918 Eh     change       -0.1286887E-03 Eh
   gradient norm :     0.0046729 Eh/α   predicted    -0.9395968E-04 ( -26.99%)
   displ. norm   :     0.4320931 α      lambda       -0.1736381E-03
   maximum displ.:     0.2879286 α      in ANC's #2, #3, #4, ...

........................................................................
.............................. CYCLE   18 ..............................
........................................................................
   1    -83.7790338 -0.837790E+02  0.503E-03    2.36       0.0  T
   2    -83.7790345 -0.677075E-06  0.265E-03    2.36       5.8  T
   3    -83.7790346 -0.114679E-06  0.150E-03    2.36      10.3  T
   4    -83.7790346 -0.122540E-07  0.412E-04    2.36      37.5  T
   5    -83.7790346 -0.940602E-09  0.800E-05    2.36     192.8  T
   6    -83.7790346 -0.280778E-09  0.242E-05    2.36     638.4  T
     SCC iter.                  ...        0 min,  0.023 sec
     gradient                   ...        0 min,  0.081 sec
 * total energy  :   -82.9997299 Eh     change       -0.1381970E-03 Eh
   gradient norm :     0.0046545 Eh/α   predicted    -0.1030306E-03 ( -25.45%)
   displ. norm   :     0.6247671 α      lambda       -0.2093639E-03
   maximum displ.:     0.4051227 α      in ANC's #2, #3, #4, ...

........................................................................
.............................. CYCLE   19 ..............................
........................................................................
   1    -83.7743163 -0.837743E+02  0.132E-02    2.36       0.0  T
   2    -83.7743199 -0.356328E-05  0.596E-03    2.36       2.6  T
   3    -83.7743203 -0.433984E-06  0.332E-03    2.36       4.7  T
   4    -83.7743204 -0.501311E-07  0.931E-04    2.36      16.6  T
   5    -83.7743204 -0.127356E-07  0.225E-04    2.36      68.5  T
   6    -83.7743204 -0.139808E-08  0.583E-05    2.36     264.6  T
   7    -83.7743204 -0.844551E-10  0.110E-05    2.36    1403.9  T
     SCC iter.                  ...        0 min,  0.027 sec
     gradient                   ...        0 min,  0.082 sec
 * total energy  :   -82.9998217 Eh     change       -0.9171687E-04 Eh
   gradient norm :     0.0102425 Eh/α   predicted    -0.1455437E-03 (  58.69%)
   displ. norm   :     0.2663473 α      lambda       -0.3374530E-03
   maximum displ.:     0.1806844 α      in ANC's #2, #3, #5, ...

........................................................................
.............................. CYCLE   20 ..............................
........................................................................
   1    -83.7807915 -0.837808E+02  0.142E-02    2.36       0.0  T
   2    -83.7807948 -0.332436E-05  0.693E-03    2.36       2.2  T
   3    -83.7807952 -0.409546E-06  0.390E-03    2.36       4.0  T
   4    -83.7807953 -0.130753E-06  0.916E-04    2.36      16.8  T
   5    -83.7807953 -0.125094E-07  0.240E-04    2.36      64.2  T
   6    -83.7807953 -0.127449E-08  0.505E-05    2.36     305.5  T
   7    -83.7807953 -0.496101E-10  0.106E-05    2.36    1456.9  T
     SCC iter.                  ...        0 min,  0.027 sec
     gradient                   ...        0 min,  0.082 sec
 * total energy  :   -83.0000012 Eh     change       -0.1794983E-03 Eh
   gradient norm :     0.0057097 Eh/α   predicted    -0.1806975E-03 (   0.67%)
   displ. norm   :     0.4502881 α      lambda       -0.1336113E-03
   maximum displ.:     0.3126461 α      in ANC's #2, #3, #4, ...
 * RMSD in coord.:     0.7299723 α      energy gain  -0.2738437E-01 Eh

generating ANC from model Hessian ...
Using Lindh-Hessian (1995)
 Shifting diagonal of input Hessian by   9.766854069698266E-003
 Lowest  eigenvalues of input Hessian
    0.000000    0.000000    0.000000    0.000000    0.000000    0.000000
    0.010000    0.010019    0.010298    0.011244    0.011784    0.012005
    0.013111    0.013559    0.013878    0.014924    0.015280    0.016685
 Highest eigenvalues
    2.074631    2.178754    2.187305    2.286195    2.395392    2.399649
 

........................................................................
.............................. CYCLE   21 ..............................
........................................................................
   1    -83.7782759 -0.837783E+02  0.606E-03    2.36       0.0  T
   2    -83.7782767 -0.832585E-06  0.287E-03    2.36       5.4  T
   3    -83.7782768 -0.356837E-07  0.158E-03    2.36       9.8  T
   4    -83.7782768 -0.819955E-08  0.320E-04    2.36      48.2  T
   5    -83.7782768 -0.790550E-09  0.686E-05    2.36     225.0  T
   6    -83.7782768 -0.133198E-09  0.236E-05    2.36     654.7  T
     SCC iter.                  ...        0 min,  0.023 sec
     gradient                   ...        0 min,  0.082 sec
 * total energy  :   -83.0000946 Eh     change       -0.9340893E-04 Eh
   gradient norm :     0.0055287 Eh/α   predicted     0.0000000E+00 (-100.00%)
   displ. norm   :     0.0446032 α      lambda       -0.5839039E-04
   maximum displ.:     0.0172735 α      in ANC's #5, #1, #14, ...

........................................................................
.............................. CYCLE   22 ..............................
........................................................................
   1    -83.7798594 -0.837799E+02  0.411E-03    2.37       0.0  T
   2    -83.7798599 -0.482426E-06  0.186E-03    2.37       8.3  T
   3    -83.7798599 -0.514268E-07  0.105E-03    2.37      14.7  T
   4    -83.7798599 -0.545340E-08  0.400E-04    2.37      38.6  T
   5    -83.7798599 -0.168876E-08  0.649E-05    2.37     237.9  T
   6    -83.7798599 -0.121759E-09  0.189E-05    2.37     816.9  T
     SCC iter.                  ...        0 min,  0.023 sec
     gradient                   ...        0 min,  0.081 sec
 * total energy  :   -83.0001487 Eh     change       -0.5410211E-04 Eh
   gradient norm :     0.0028199 Eh/α   predicted    -0.3527459E-04 ( -34.80%)
   displ. norm   :     0.0933955 α      lambda       -0.7174464E-04
   maximum displ.:     0.0372909 α      in ANC's #5, #1, #4, ...

........................................................................
.............................. CYCLE   23 ..............................
........................................................................
   1    -83.7812407 -0.837812E+02  0.566E-03    2.37       0.0  T
   2    -83.7812421 -0.136911E-05  0.258E-03    2.37       6.0  T
   3    -83.7812423 -0.176391E-06  0.127E-03    2.37      12.1  T
   4    -83.7812423 -0.399004E-08  0.615E-04    2.37      25.1  T
   5    -83.7812423 -0.241187E-08  0.104E-04    2.37     148.0  T
   6    -83.7812423 -0.364537E-09  0.242E-05    2.37     636.8  T
     SCC iter.                  ...        0 min,  0.023 sec
     gradient                   ...        0 min,  0.081 sec
 * total energy  :   -83.0001954 Eh     change       -0.4675315E-04 Eh
   gradient norm :     0.0016167 Eh/α   predicted    -0.3618545E-04 ( -22.60%)
   displ. norm   :     0.1242568 α      lambda       -0.3086261E-04
   maximum displ.:     0.0544468 α      in ANC's #1, #5, #4, ...

........................................................................
.............................. CYCLE   24 ..............................
........................................................................
   1    -83.7813089 -0.837813E+02  0.422E-03    2.37       0.0  T
   2    -83.7813098 -0.868996E-06  0.194E-03    2.37       8.0  T
   3    -83.7813099 -0.113579E-06  0.819E-04    2.37      18.8  T
   4    -83.7813099 -0.327674E-09  0.435E-04    2.37      35.5  T
   5    -83.7813099 -0.115134E-08  0.830E-05    2.37     185.9  T
   6    -83.7813099 -0.243176E-09  0.171E-05    2.37     902.2  T
     SCC iter.                  ...        0 min,  0.023 sec
     gradient                   ...        0 min,  0.081 sec
 * total energy  :   -83.0002274 Eh     change       -0.3198491E-04 Eh
   gradient norm :     0.0029205 Eh/α   predicted    -0.1559880E-04 ( -51.23%)
   displ. norm   :     0.1008577 α      lambda       -0.3359992E-04
   maximum displ.:     0.0489390 α      in ANC's #1, #5, #12, ...

........................................................................
.............................. CYCLE   25 ..............................
........................................................................
   1    -83.7807810 -0.837808E+02  0.189E-03    2.37       0.0  T
   2    -83.7807811 -0.785574E-07  0.914E-04    2.37      16.9  T
   3    -83.7807811 -0.937237E-08  0.481E-04    2.37      32.1  T
   4    -83.7807811 -0.510511E-09  0.962E-05    2.37     160.4  T
   5    -83.7807811 -0.566871E-10  0.224E-05    2.37     687.9  T
     SCC iter.                  ...        0 min,  0.019 sec
     gradient                   ...        0 min,  0.081 sec
 * total energy  :   -83.0002562 Eh     change       -0.2881366E-04 Eh
   gradient norm :     0.0026579 Eh/α   predicted    -0.1697124E-04 ( -41.10%)
   displ. norm   :     0.2350900 α      lambda       -0.6798374E-04
   maximum displ.:     0.1171686 α      in ANC's #1, #12, #5, ...

........................................................................
.............................. CYCLE   26 ..............................
........................................................................
   1    -83.7792522 -0.837793E+02  0.423E-03    2.36       0.0  T
   2    -83.7792525 -0.283501E-06  0.206E-03    2.37       7.5  T
   3    -83.7792526 -0.321260E-07  0.115E-03    2.36      13.4  T
   4    -83.7792526 -0.767001E-08  0.263E-04    2.37      58.6  T
   5    -83.7792526 -0.801990E-09  0.740E-05    2.37     208.6  T
   6    -83.7792526 -0.160099E-09  0.210E-05    2.37     736.5  T
     SCC iter.                  ...        0 min,  0.023 sec
     gradient                   ...        0 min,  0.081 sec
 * total energy  :   -83.0002971 Eh     change       -0.4085796E-04 Eh
   gradient norm :     0.0031939 Eh/α   predicted    -0.3588027E-04 ( -12.18%)
   displ. norm   :     0.0724492 α      lambda       -0.2538931E-04
   maximum displ.:     0.0447893 α      in ANC's #1, #12, #7, ...

........................................................................
.............................. CYCLE   27 ..............................
........................................................................
   1    -83.7795412 -0.837795E+02  0.162E-03    2.36       0.0  T
   2    -83.7795413 -0.105881E-06  0.831E-04    2.36      18.6  T
   3    -83.7795413 -0.166971E-07  0.397E-04    2.36      38.9  T
   4    -83.7795413 -0.178005E-09  0.173E-04    2.36      88.9  T
   5    -83.7795413 -0.208630E-09  0.343E-05    2.36     450.5  T
     SCC iter.                  ...        0 min,  0.019 sec
     gradient                   ...        0 min,  0.082 sec
 * total energy  :   -83.0003187 Eh     change       -0.2163180E-04 Eh
   gradient norm :     0.0024256 Eh/α   predicted    -0.1276208E-04 ( -41.00%)
   displ. norm   :     0.1289335 α      lambda       -0.5243545E-04
   maximum displ.:     0.0855307 α      in ANC's #1, #12, #7, ...

........................................................................
.............................. CYCLE   28 ..............................
........................................................................
   1    -83.7806951 -0.837807E+02  0.368E-03    2.36       0.0  T
   2    -83.7806955 -0.449204E-06  0.198E-03    2.36       7.8  T
   3    -83.7806956 -0.626530E-07  0.988E-04    2.36      15.6  T
   4    -83.7806956 -0.815561E-10  0.321E-04    2.36      48.1  T
   5    -83.7806956 -0.146433E-08  0.751E-05    2.36     205.5  T
   6    -83.7806956 -0.177110E-09  0.169E-05    2.36     911.5  T
     SCC iter.                  ...        0 min,  0.023 sec
     gradient                   ...        0 min,  0.083 sec
 * total energy  :   -83.0003552 Eh     change       -0.3648819E-04 Eh
   gradient norm :     0.0015193 Eh/α   predicted    -0.2665444E-04 ( -26.95%)
   displ. norm   :     0.2572731 α      lambda       -0.3123693E-04
   maximum displ.:     0.1637806 α      in ANC's #1, #12, #7, ...

........................................................................
.............................. CYCLE   29 ..............................
........................................................................
   1    -83.7800777 -0.837801E+02  0.342E-03    2.36       0.0  T
   2    -83.7800780 -0.317621E-06  0.193E-03    2.36       8.0  T
   3    -83.7800781 -0.397755E-07  0.966E-04    2.36      16.0  T
   4    -83.7800781 -0.608836E-09  0.220E-04    2.36      70.2  T
   5    -83.7800781 -0.568690E-09  0.649E-05    2.36     237.6  T
   6    -83.7800781 -0.114696E-09  0.213E-05    2.36     725.8  T
     SCC iter.                  ...        0 min,  0.023 sec
     gradient                   ...        0 min,  0.082 sec
 * total energy  :   -83.0003819 Eh     change       -0.2665443E-04 Eh
   gradient norm :     0.0030988 Eh/α   predicted    -0.1608156E-04 ( -39.67%)
   displ. norm   :     0.0689932 α      lambda       -0.2444633E-04
   maximum displ.:     0.0536090 α      in ANC's #1, #12, #2, ...

........................................................................
.............................. CYCLE   30 ..............................
........................................................................
   1    -83.7808614 -0.837809E+02  0.216E-03    2.37       0.0  T
   2    -83.7808614 -0.686301E-07  0.106E-03    2.37      14.6  T
   3    -83.7808615 -0.458439E-08  0.594E-04    2.37      26.0  T
   4    -83.7808615 -0.416905E-08  0.153E-04    2.37     100.6  T
   5    -83.7808615 -0.260101E-09  0.319E-05    2.37     483.8  T
     SCC iter.                  ...        0 min,  0.020 sec
     gradient                   ...        0 min,  0.082 sec
 * total energy  :   -83.0004019 Eh     change       -0.2006361E-04 Eh
   gradient norm :     0.0021568 Eh/α   predicted    -0.1232804E-04 ( -38.56%)
   displ. norm   :     0.1577817 α      lambda       -0.4414863E-04
   maximum displ.:     0.1168518 α      in ANC's #1, #12, #2, ...

........................................................................
.............................. CYCLE   31 ..............................
........................................................................
   1    -83.7813081 -0.837813E+02  0.312E-03    2.37       0.0  T
   2    -83.7813085 -0.424471E-06  0.151E-03    2.37      10.2  T
   3    -83.7813086 -0.667756E-07  0.718E-04    2.37      21.5  T
   4    -83.7813086 -0.132178E-08  0.333E-04    2.37      46.3  T
   5    -83.7813086 -0.493046E-09  0.621E-05    2.37     248.3  T
   6    -83.7813086 -0.107619E-09  0.145E-05    2.37    1065.9  T
     SCC iter.                  ...        0 min,  0.023 sec
     gradient                   ...        0 min,  0.081 sec
 * total energy  :   -83.0004394 Eh     change       -0.3748612E-04 Eh
   gradient norm :     0.0014585 Eh/α   predicted    -0.2262553E-04 ( -39.64%)
   displ. norm   :     0.4735246 α      lambda       -0.6897889E-04
   maximum displ.:     0.3426045 α      in ANC's #1, #12, #2, ...

........................................................................
.............................. CYCLE   32 ..............................
........................................................................
   1    -83.7795817 -0.837796E+02  0.806E-03    2.37       0.0  T
   2    -83.7795836 -0.190433E-05  0.397E-03    2.37       3.9  T
   3    -83.7795839 -0.304659E-06  0.207E-03    2.37       7.5  T
   4    -83.7795839 -0.149408E-07  0.659E-04    2.37      23.4  T
   5    -83.7795840 -0.500586E-08  0.159E-04    2.37      96.8  T
   6    -83.7795840 -0.565549E-09  0.415E-05    2.37     371.6  T
     SCC iter.                  ...        0 min,  0.023 sec
     gradient                   ...        0 min,  0.082 sec
 * total energy  :   -83.0004902 Eh     change       -0.5083454E-04 Eh
   gradient norm :     0.0056250 Eh/α   predicted    -0.3793081E-04 ( -25.38%)
   displ. norm   :     0.0644585 α      lambda       -0.5192327E-04
   maximum displ.:     0.0395384 α      in ANC's #1, #8, #9, ...

........................................................................
.............................. CYCLE   33 ..............................
........................................................................
   1    -83.7804190 -0.837804E+02  0.365E-03    2.37       0.0  T
   2    -83.7804191 -0.915643E-07  0.198E-03    2.37       7.8  T
   3    -83.7804191 -0.571276E-11  0.745E-04    2.37      20.7  T
   4    -83.7804191 -0.710021E-08  0.163E-04    2.37      94.5  T
   5    -83.7804191 -0.314884E-09  0.534E-05    2.37     289.1  T
     SCC iter.                  ...        0 min,  0.020 sec
     gradient                   ...        0 min,  0.081 sec
 * total energy  :   -83.0005252 Eh     change       -0.3498876E-04 Eh
   gradient norm :     0.0031350 Eh/α   predicted    -0.2607060E-04 ( -25.49%)
   displ. norm   :     0.1458659 α      lambda       -0.3460687E-04
   maximum displ.:     0.1149169 α      in ANC's #1, #2, #8, ...

........................................................................
.............................. CYCLE   34 ..............................
........................................................................
   1    -83.7806588 -0.837807E+02  0.219E-03    2.37       0.0  T
   2    -83.7806589 -0.170327E-06  0.107E-03    2.37      14.5  T
   3    -83.7806590 -0.165403E-07  0.612E-04    2.37      25.2  T
   4    -83.7806590 -0.236459E-08  0.239E-04    2.37      64.6  T
   5    -83.7806590 -0.456652E-09  0.417E-05    2.37     369.9  T
   6    -83.7806590 -0.325713E-10  0.120E-05    2.37    1284.7  T
     SCC iter.                  ...        0 min,  0.024 sec
     gradient                   ...        0 min,  0.083 sec
 * total energy  :   -83.0005538 Eh     change       -0.2855654E-04 Eh
   gradient norm :     0.0018810 Eh/α   predicted    -0.1767235E-04 ( -38.11%)
   displ. norm   :     0.4209459 α      lambda       -0.5064306E-04
   maximum displ.:     0.3281640 α      in ANC's #1, #2, #12, ...

........................................................................
.............................. CYCLE   35 ..............................
........................................................................
   1    -83.7795468 -0.837795E+02  0.534E-03    2.37       0.0  T
   2    -83.7795479 -0.108879E-05  0.280E-03    2.37       5.5  T
   3    -83.7795481 -0.150265E-06  0.150E-03    2.37      10.3  T
   4    -83.7795481 -0.887050E-08  0.585E-04    2.37      26.4  T
   5    -83.7795481 -0.202157E-08  0.100E-04    2.37     153.5  T
   6    -83.7795481 -0.238813E-09  0.261E-05    2.37     591.0  T
     SCC iter.                  ...        0 min,  0.023 sec
     gradient                   ...        0 min,  0.082 sec
 * total energy  :   -83.0005970 Eh     change       -0.4322829E-04 Eh
   gradient norm :     0.0029598 Eh/α   predicted    -0.2731524E-04 ( -36.81%)
   displ. norm   :     0.0473419 α      lambda       -0.1605604E-04
   maximum displ.:     0.0374575 α      in ANC's #1, #2, #10, ...

........................................................................
.............................. CYCLE   36 ..............................
........................................................................
   1    -83.7802709 -0.837803E+02  0.183E-03    2.37       0.0  T
   2    -83.7802710 -0.467229E-07  0.901E-04    2.37      17.1  T
   3    -83.7802710 -0.379738E-08  0.482E-04    2.37      32.0  T
   4    -83.7802710 -0.137267E-08  0.103E-04    2.37     150.1  T
   5    -83.7802710 -0.172747E-09  0.312E-05    2.37     494.9  T
     SCC iter.                  ...        0 min,  0.019 sec
     gradient                   ...        0 min,  0.083 sec
 * total energy  :   -83.0006096 Eh     change       -0.1256443E-04 Eh
   gradient norm :     0.0020323 Eh/α   predicted    -0.8046854E-05 ( -35.96%)
   displ. norm   :     0.1479356 α      lambda       -0.2442023E-04
   maximum displ.:     0.1176999 α      in ANC's #1, #2, #5, ...

........................................................................
.............................. CYCLE   37 ..............................
........................................................................
   1    -83.7808975 -0.837809E+02  0.226E-03    2.37       0.0  T
   2    -83.7808977 -0.178622E-06  0.101E-03    2.37      15.3  T
   3    -83.7808977 -0.121567E-07  0.536E-04    2.37      28.8  T
   4    -83.7808977 -0.588884E-09  0.155E-04    2.37      99.8  T
   5    -83.7808977 -0.205745E-09  0.343E-05    2.37     449.3  T
     SCC iter.                  ...        0 min,  0.018 sec
     gradient                   ...        0 min,  0.069 sec
 * total energy  :   -83.0006271 Eh     change       -0.1749271E-04 Eh
   gradient norm :     0.0012167 Eh/α   predicted    -0.1247970E-04 ( -28.66%)
   displ. norm   :     0.2274029 α      lambda       -0.1445224E-04
   maximum displ.:     0.1797173 α      in ANC's #1, #2, #5, ...

........................................................................
.............................. CYCLE   38 ..............................
........................................................................
   1    -83.7808559 -0.837809E+02  0.260E-03    2.36       0.0  T
   2    -83.7808562 -0.305541E-06  0.112E-03    2.37      13.8  T
   3    -83.7808563 -0.247652E-07  0.573E-04    2.37      26.9  T
   4    -83.7808563 -0.663761E-09  0.211E-04    2.37      73.2  T
   5    -83.7808563 -0.611777E-09  0.557E-05    2.37     277.1  T
   6    -83.7808563 -0.624283E-10  0.170E-05    2.37     905.7  T
     SCC iter.                  ...        0 min,  0.022 sec
     gradient                   ...        0 min,  0.077 sec
 * total energy  :   -83.0006395 Eh     change       -0.1240719E-04 Eh
   gradient norm :     0.0013087 Eh/α   predicted    -0.7395599E-05 ( -40.39%)
   displ. norm   :     0.0757240 α      lambda       -0.4901829E-05
   maximum displ.:     0.0608565 α      in ANC's #1, #2, #5, ...

........................................................................
.............................. CYCLE   39 ..............................
........................................................................
   1    -83.7810178 -0.837810E+02  0.102E-03    2.37       0.0  T
   2    -83.7810179 -0.374534E-07  0.466E-04    2.37      33.1  T
   3    -83.7810179 -0.330762E-08  0.259E-04    2.37      59.5  T
   4    -83.7810179 -0.205546E-09  0.103E-04    2.37     149.8  T
   5    -83.7810179 -0.179227E-09  0.171E-05    2.37     900.4  T
     SCC iter.                  ...        0 min,  0.018 sec
     gradient                   ...        0 min,  0.083 sec
 * total energy  :   -83.0006455 Eh     change       -0.6054071E-05 Eh
   gradient norm :     0.0009290 Eh/α   predicted    -0.2459018E-05 ( -59.38%)
   displ. norm   :     0.1348309 α      lambda       -0.8713016E-05
   maximum displ.:     0.1060382 α      in ANC's #1, #2, #5, ...

........................................................................
.............................. CYCLE   40 ..............................
........................................................................
   1    -83.7809028 -0.837809E+02  0.147E-03    2.37       0.0  T
   2    -83.7809029 -0.723808E-07  0.573E-04    2.37      26.9  T
   3    -83.7809029 -0.200509E-08  0.317E-04    2.37      48.7  T
   4    -83.7809029 -0.833467E-10  0.116E-04    2.37     133.6  T
   5    -83.7809029 -0.217909E-09  0.242E-05    2.37     638.6  T
     SCC iter.                  ...        0 min,  0.019 sec
     gradient                   ...        0 min,  0.061 sec
 * total energy  :   -83.0006544 Eh     change       -0.8892279E-05 Eh
   gradient norm :     0.0009061 Eh/α   predicted    -0.4393676E-05 ( -50.59%)
   displ. norm   :     0.0984567 α      lambda       -0.4632079E-05
   maximum displ.:     0.0800134 α      in ANC's #1, #2, #4, ...

........................................................................
.............................. CYCLE   41 ..............................
........................................................................
   1    -83.7811009 -0.837811E+02  0.835E-04    2.37       0.0  T
   2    -83.7811010 -0.244693E-07  0.396E-04    2.37      38.9  T
   3    -83.7811010 -0.147639E-08  0.198E-04    2.37      78.0  T
   4    -83.7811010 -0.506475E-10  0.680E-05    2.37     226.8  T
     SCC iter.                  ...        0 min,  0.013 sec
     gradient                   ...        0 min,  0.078 sec
 * total energy  :   -83.0006592 Eh     change       -0.4739894E-05 Eh
   gradient norm :     0.0009239 Eh/α   predicted    -0.2327966E-05 ( -50.89%)
   displ. norm   :     0.1088130 α      lambda       -0.3783447E-05
   maximum displ.:     0.0892071 α      in ANC's #1, #2, #4, ...

   *** GEOMETRY OPTIMIZATION CONVERGED AFTER 41 ITERATIONS ***

------------------------------------------------------------------------
 total energy gain   :        -0.0280424 Eh      -17.5969 kcal/mol
 total RMSD          :         1.0544616 a0        0.5580 Å
 total power (kW/mol):        -1.7957379 (step)  -12.4743 (real)
------------------------------------------------------------------------

 ANCopt (total)                0 d,  0 h,  0 min,  5.902 sec
 optimizer setup                ...        0 min,  0.001 sec (  0.015%)
 model hessian                  ...        0 min,  0.055 sec (  0.929%)
 ANC generation                 ...        0 min,  0.005 sec (  0.086%)
 coordinate transformation      ...        0 min,  0.002 sec (  0.028%)
 single point calculation       ...        0 min,  5.814 sec ( 98.510%)
 optimization log               ...        0 min,  0.012 sec (  0.209%)
 hessian update                 ...        0 min,  0.001 sec (  0.025%)
 rational function              ...        0 min,  0.007 sec (  0.118%)

================
 final structure:
================
42
 xtb: 6.5.1 (579679a)
C           -6.10232509364318        0.39848716182573        1.31616250699678
O           -4.75459107576791        0.87238310951608        1.30931193052437
C           -3.86678146003291        0.28995174959088        0.52952521315138
O           -4.36061184912684       -0.72211098042367       -0.16411111707683
C           -3.64703906254819       -1.49204260596538       -1.12983060144209
C           -2.55776048160361        0.77941431104830        0.50743549964648
N           -1.63787951007396        0.10958731759023       -0.29705043007483
C           -0.42774495313867        0.51397630791057       -0.36825641806876
C            0.58371807606271       -0.18194587237886       -1.25537056882438
C            0.76692415249115        0.63515213098830       -2.53806342233786
C            0.14631464823325       -1.61278356252193       -1.57680866653474
N            1.87038611181242       -0.20541972467234       -0.55589816746102
C            1.99054540493402       -0.73949013053602        0.68010422641267
O            1.05699685688825       -1.13090095715351        1.35980636235150
C            3.39345992853781       -0.76534998314050        1.16043510151585
N            3.83654260888704       -1.19284566837728        2.30154271312101
N            5.18631573586651       -1.00344334129935        2.29511375779674
C            5.48376500106804       -0.47158169064084        1.15038418969884
C            6.81724406490036       -0.07011799822492        0.65314480712377
O            4.39430582118281       -0.29457921462199        0.38512941312513
N            0.02906988333619        1.62898496336911        0.29715981760897
C           -0.73631654082682        2.38994241431206        1.13685089351865
O           -0.27193434202219        3.36424481267255        1.70173781521840
C           -2.17839048109964        1.92945016681784        1.29603426476948
O           -2.91887087351257        2.54800737143175        2.05273234853758
H           -6.53602889576960        0.47636875555100        0.31751978950303
H           -6.64354161003362        1.03564544529298        2.01354655658485
H           -6.13748415871072       -0.64125830128843        1.64747416307679
H           -3.24660369225834       -0.84944953841114       -1.91482097002351
H           -2.83280313344654       -2.04393964214898       -0.65831126918681
H           -4.37582448245740       -2.18583733972089       -1.54880996215891
H           -0.18573086746562        0.71878160896436       -3.05850127089043
H            1.12992738352293        1.63373866318446       -2.30079738210572
H            1.48422687559378        0.14338494939076       -3.19215572210786
H           -0.75249819781353       -1.59015671815630       -2.18957277095148
H            0.93662416358899       -2.12210206225656       -2.12429812839739
H           -0.06374271010821       -2.15791238570445       -0.65721888766718
H            2.69886101806608       -0.00276128196884       -1.08754540486296
H            6.82041235748972        0.99529719487292        0.42246475580969
H            7.57135266542912       -0.28434235873086        1.40713225815655
H            7.04937614094064       -0.61216178139211       -0.26307520112136
H            0.98813657262950        1.90973670540347        0.16171597704684
 
 Bond Distances (Angstroems)
 ---------------------------
C1-O2=1.4286         C1-H26=1.0915        C1-H27=1.0887        C1-H28=1.0918        O2-C1=1.4286         O2-C3=1.3174         
C3-O2=1.3174         C3-O4=1.3226         C3-C6=1.3977         O4-C3=1.3226         O4-C5=1.4264         C5-O4=1.4264         
C5-H29=1.0906        C5-H30=1.0908        C5-H31=1.0900        C6-C3=1.3977         C6-N7=1.3936         C6-C24=1.4451        
N7-C6=1.3936         N7-C8=1.2779         C8-N7=1.2779         C8-C9=1.5147         C8-N21=1.3765        C9-C8=1.5147         
C9-C10=1.5318        C9-C11=1.5303        C9-N12=1.4647        C10-C9=1.5318        C10-H32=1.0888       C10-H33=1.0887       
C10-H34=1.0882       C11-C9=1.5303        C11-H35=1.0881       C11-H36=1.0880       C11-H37=1.0895       N12-C9=1.4647        
N12-C13=1.3518       N12-H38=1.0050       C13-N12=1.3518       C13-O14=1.2193       C13-C15=1.4831       O14-C13=1.2193       
C15-C13=1.4831       C15-N16=1.2966       C15-O20=1.3507       N16-C15=1.2966       N16-N17=1.3630       N17-N16=1.3630       
N17-C18=1.2968       C18-N17=1.2968       C18-C19=1.4787       C18-O20=1.3431       C19-C18=1.4787       C19-H39=1.0901       
C19-H40=1.0877       C19-H41=1.0896       O20-C15=1.3507       O20-C18=1.3431       N21-C8=1.3765        N21-C22=1.3675       
N21-H42=1.0085       C22-N21=1.3675       C22-O23=1.2182       C22-C24=1.5222       O23-C22=1.2182       C24-C6=1.4451        
C24-C22=1.5222       C24-O25=1.2262       O25-C24=1.2262       H26-C1=1.0915        H27-C1=1.0887        H28-C1=1.0918        
H29-C5=1.0906        H30-C5=1.0908        H31-C5=1.0900        H32-C10=1.0888       H33-C10=1.0887       H34-C10=1.0882       
H35-C11=1.0881       H36-C11=1.0880       H37-C11=1.0895       H38-N12=1.0050       H39-C19=1.0901       H40-C19=1.0877       
H41-C19=1.0896       H42-N21=1.0085       
 C  H  Rav=1.0895 sigma=0.0013  Rmin=1.0877  Rmax=1.0918    15
 C  C  Rav=1.4880 sigma=0.0443  Rmin=1.3977  Rmax=1.5318     8
 N  H  Rav=1.0067 sigma=0.0017  Rmin=1.0050  Rmax=1.0085     2
 N  C  Rav=1.3532 sigma=0.0579  Rmin=1.2779  Rmax=1.4647     8
 N  N  Rav=1.3630 sigma=0.0000  Rmin=1.3630  Rmax=1.3630     1
 O  C  Rav=1.3169 sigma=0.0773  Rmin=1.2182  Rmax=1.4286     9
 
 selected bond angles (degree)
 --------------------
H26-C1-O2=110.29               H27-C1-O2=106.14               H27-C1-H26=110.29              H28-C1-O2=110.35               
H28-C1-H26=109.44              H28-C1-H27=110.30              C3-O2-C1=119.47                O4-C3-O2=113.40                
C6-C3-O2=119.06                C6-C3-O4=127.54                C5-O4-C3=125.54                H29-C5-O4=110.67               
H30-C5-O4=110.72               H30-C5-H29=109.58              H31-C5-O4=105.63               H31-C5-H29=110.11              
H31-C5-H30=110.07              N7-C6-C3=117.32                C24-C6-C3=121.06               C24-C6-N7=121.62               
C8-N7-C6=120.34                C9-C8-N7=121.31                N21-C8-N7=122.93               N21-C8-C9=115.70               
C10-C9-C8=108.98               C11-C9-C8=111.21               C11-C9-C10=110.92              N12-C9-C8=108.32               
N12-C9-C10=107.66              N12-C9-C11=109.66              H32-C10-C9=109.67              H33-C10-C9=110.28              
H33-C10-H32=108.99             H34-C10-C9=109.94              H34-C10-H32=108.91             H34-C10-H33=109.01             
 
 selected dihedral angles (degree)
 ---------------------------------
C3-O2-C1-H26=300.37           C3-O2-C1-H27=180.91           C3-O2-C1-H28= 61.40           O4-C3-O2-C1=358.94            
C6-C3-O2-C1=178.59            C5-O4-C3-O2=176.91            C5-O4-C3-C6=357.30            H29-C5-O4-C3=303.09           
H30-C5-O4-C3= 64.81           H31-C5-O4-C3=183.94           N7-C6-C3-O2=177.97            N7-C6-C3-O4=357.57            
C24-C6-C3-O2=358.34           C24-C6-C3-O4=177.94           C8-N7-C6-C3=179.47            C8-N7-C6-C24=359.10           
C9-C8-N7-C6=181.15            N21-C8-N7-C6=358.22           C10-C9-C8-N7=101.40           C10-C9-C8-N21=284.13          
C11-C9-C8-N7=338.83           C11-C9-C8-N21=161.55          N12-C9-C8-N7=218.26           N12-C9-C8-N21= 40.99          
H32-C10-C9-C8=300.29          H32-C10-C9-C11= 63.03         H32-C10-C9-N12=183.01         H33-C10-C9-C8= 60.33          
H33-C10-C9-C11=183.07         H33-C10-C9-N12=303.05         H34-C10-C9-C8=180.56          H34-C10-C9-C11=303.31         
H34-C10-C9-N12= 63.28         
           -------------------------------------------------
          |                Final Singlepoint                |
           -------------------------------------------------

          ...................................................
          :                      SETUP                      :
          :.................................................:
          :  # basis functions                 134          :
          :  # atomic orbitals                 134          :
          :  # shells                           84          :
          :  # electrons                       134          :
          :  # halogen bonds                     0          :
          :  max. iterations                   250          :
          :  Hamiltonian                  GFN1-xTB          :
          :  restarted?                      false          :
          :  GBSA solvation                   true          :
          :  PC potential                    false          :
          :  electronic temp.          300.0000000     K    :
          :  accuracy                    1.0000000          :
          :  -> integral cutoff          0.2500000E+02      :
          :  -> integral neglect         0.1000000E-07      :
          :  -> SCF convergence          0.1000000E-05 Eh   :
          :  -> wf. convergence          0.2000000E-04 e    :
          :  Broyden damping             0.4000000          :
          ...................................................

 iter      E             dE          RMSdq      gap      omega  full diag
   1    -83.7811010 -0.837811E+02  0.190E-05    2.37       0.0  T
   2    -83.7811010 -0.403588E-11  0.103E-05    2.37    1498.1  T
   3    -83.7811010 -0.696332E-12  0.581E-06    2.37    2656.6  T

   *** convergence criteria satisfied after 3 iterations ***

         #    Occupation            Energy/Eh            Energy/eV
      -------------------------------------------------------------
         1        2.0000           -0.8649012             -23.5352
       ...           ...                  ...                  ...
        61        2.0000           -0.4672718             -12.7151
        62        2.0000           -0.4612745             -12.5519
        63        2.0000           -0.4531005             -12.3295
        64        2.0000           -0.4517444             -12.2926
        65        2.0000           -0.4447515             -12.1023
        66        2.0000           -0.4183316             -11.3834
        67        2.0000           -0.4119862             -11.2107 (HOMO)
        68                         -0.3249659              -8.8428 (LUMO)
        69                         -0.3110579              -8.4643
        70                         -0.2702770              -7.3546
        71                         -0.2561274              -6.9696
        72                         -0.2454776              -6.6798
       ...                                ...                  ...
       134                          0.7555630              20.5599
      -------------------------------------------------------------
                  HL-Gap            0.0870203 Eh            2.3679 eV
             Fermi-level           -0.3684761 Eh          -10.0267 eV

 SCC (total)                   0 d,  0 h,  0 min,  0.128 sec
 SCC setup                      ...        0 min,  0.002 sec (  1.492%)
 Dispersion                     ...        0 min,  0.000 sec (  0.280%)
 classical contributions        ...        0 min,  0.000 sec (  0.090%)
 integral evaluation            ...        0 min,  0.034 sec ( 26.415%)
 iterations                     ...        0 min,  0.012 sec (  9.284%)
 molecular gradient             ...        0 min,  0.079 sec ( 61.734%)
 printout                       ...        0 min,  0.001 sec (  0.667%)

         :::::::::::::::::::::::::::::::::::::::::::::::::::::
         ::                     SUMMARY                     ::
         :::::::::::::::::::::::::::::::::::::::::::::::::::::
         :: total energy             -83.000659166381 Eh    ::
         :: total w/o Gsasa/hb       -82.979345244500 Eh    ::
         :: gradient norm              0.000924570751 Eh/a0 ::
         :: HOMO-LUMO gap              2.367943016200 eV    ::
         ::.................................................::
         :: SCC energy               -83.781100972183 Eh    ::
         :: -> electrostatic           0.366957911933 Eh    ::
         :: -> Gsolv                  -0.073945436234 Eh    ::
         ::    -> Gelec               -0.052631514353 Eh    ::
         ::    -> Gsasa               -0.024575144884 Eh    ::
         ::    -> Ghb                 -0.004363056001 Eh    ::
         ::    -> Gshift               0.007624279005 Eh    ::
         :: repulsion energy           0.806891933917 Eh    ::
         :: dispersion energy         -0.026450128114 Eh    ::
         :: halogen bond corr.         0.000000000000 Eh    ::
         :: add. restraining           0.000000000000 Eh    ::
         :: total charge              -0.000000000000 e     ::
         :::::::::::::::::::::::::::::::::::::::::::::::::::::

           -------------------------------------------------
          |                Property Printout                |
           -------------------------------------------------

    * Orbital Energies and Occupations

         #    Occupation            Energy/Eh            Energy/eV
      -------------------------------------------------------------
         1        2.0000           -0.8649012             -23.5352
       ...           ...                  ...                  ...
        55        2.0000           -0.5062796             -13.7766
        56        2.0000           -0.5045799             -13.7303
        57        2.0000           -0.4991796             -13.5834
        58        2.0000           -0.4929358             -13.4135
        59        2.0000           -0.4799520             -13.0602
        60        2.0000           -0.4756185             -12.9422
        61        2.0000           -0.4672718             -12.7151
        62        2.0000           -0.4612745             -12.5519
        63        2.0000           -0.4531005             -12.3295
        64        2.0000           -0.4517444             -12.2926
        65        2.0000           -0.4447515             -12.1023
        66        2.0000           -0.4183316             -11.3834
        67        2.0000           -0.4119862             -11.2107 (HOMO)
        68                         -0.3249659              -8.8428 (LUMO)
        69                         -0.3110579              -8.4643
        70                         -0.2702770              -7.3546
        71                         -0.2561274              -6.9696
        72                         -0.2454776              -6.6798
        73                         -0.1983774              -5.3981
        74                         -0.1535884              -4.1794
        75                         -0.1512587              -4.1160
        76                         -0.1426123              -3.8807
        77                         -0.1409018              -3.8341
        78                         -0.1319048              -3.5893
       ...                                ...                  ...
       134                          0.7555630              20.5599
      -------------------------------------------------------------
                  HL-Gap            0.0870203 Eh            2.3679 eV
             Fermi-level           -0.3684761 Eh          -10.0267 eV

  Mulliken/CM5 charges         n(s)   n(p)   n(d)
     1C     0.16182  0.04136   0.982  2.856  0.000
     2O    -0.37419 -0.45978   1.667  4.707  0.000
     3C     0.52178  0.58003   0.973  2.505  0.000
     4O    -0.39612 -0.48785   1.667  4.730  0.000
     5C     0.16563  0.04600   0.985  2.850  0.000
     6C     0.00921  0.08222   1.027  2.964  0.000
     7N    -0.38897 -0.58246   1.529  3.860  0.000
     8C     0.28629  0.43963   1.008  2.706  0.000
     9C     0.15072  0.19083   1.064  2.785  0.000
    10C    -0.11429 -0.25502   1.024  3.090  0.000
    11C    -0.10131 -0.24025   1.018  3.084  0.000
    12N    -0.35176 -0.71015   1.436  3.915  0.000
    13C     0.46825  0.57785   0.978  2.554  0.000
    14O    -0.58187 -0.62175   1.727  4.855  0.000
    15C     0.33126  0.45711   1.007  2.662  0.000
    16N    -0.22212 -0.32599   1.566  3.656  0.000
    17N    -0.26824 -0.37589   1.564  3.704  0.000
    18C     0.39255  0.50116   1.008  2.600  0.000
    19C    -0.11204 -0.24940   1.012  3.100  0.000
    20O    -0.35682 -0.41354   1.696  4.661  0.000
    21N    -0.30282 -0.64738   1.432  3.871  0.000
    22C     0.44802  0.55312   1.005  2.547  0.000
    23O    -0.56534 -0.60350   1.729  4.836  0.000
    24C     0.32660  0.37350   1.043  2.631  0.000
    25O    -0.55930 -0.59907   1.736  4.824  0.000
    26H     0.05613  0.11876   0.944  0.000  0.000
    27H     0.06277  0.12335   0.937  0.000  0.000
    28H     0.05579  0.11825   0.944  0.000  0.000
    29H     0.05071  0.11544   0.949  0.000  0.000
    30H     0.05134  0.11586   0.949  0.000  0.000
    31H     0.06294  0.12353   0.937  0.000  0.000
    32H     0.05483  0.10963   0.945  0.000  0.000
    33H     0.05413  0.11207   0.946  0.000  0.000
    34H     0.06144  0.11690   0.939  0.000  0.000
    35H     0.04353  0.10052   0.956  0.000  0.000
    36H     0.05086  0.10701   0.949  0.000  0.000
    37H     0.05503  0.11643   0.945  0.000  0.000
    38H     0.27230  0.47818   0.728  0.000  0.000
    39H     0.08069  0.13522   0.919  0.000  0.000
    40H     0.06967  0.12537   0.930  0.000  0.000
    41H     0.08072  0.13529   0.919  0.000  0.000
    42H     0.27020  0.47739   0.730  0.000  0.000

Wiberg/Mayer (AO) data.
largest (>0.10) Wiberg bond orders for each atom

 ---------------------------------------------------------------------------
     #   Z sym  total        # sym  WBO       # sym  WBO       # sym  WBO
 ---------------------------------------------------------------------------
     1   6 C    3.863 --    27 H    0.984    28 H    0.978    26 H    0.978
                             2 O    0.890
     2   8 O    2.236 --     3 C    1.150     1 C    0.890
     3   6 C    3.833 --     6 C    1.339     2 O    1.150     4 O    1.129
     4   8 O    2.221 --     3 C    1.129     5 C    0.883
     5   6 C    3.854 --    31 H    0.981    29 H    0.977    30 H    0.976
                             4 O    0.883
     6   6 C    3.924 --     3 C    1.339    24 C    1.163     7 N    1.106
     7   7 N    3.044 --     8 C    1.655     6 C    1.106
     8   6 C    3.931 --     7 N    1.655    21 N    1.106     9 C    0.976
     9   6 C    3.937 --    11 C    0.990    10 C    0.985     8 C    0.976
                            12 N    0.925
    10   6 C    3.988 --     9 C    0.985    32 H    0.984    33 H    0.984
                            34 H    0.982
    11   6 C    3.989 --     9 C    0.990    36 H    0.985    35 H    0.983
                            37 H    0.981
    12   7 N    3.341 --    13 C    1.248     9 C    0.925    38 H    0.891
                            14 O    0.175
    13   6 C    3.917 --    14 O    1.590    12 N    1.248    15 C    0.994
    14   8 O    1.892 --    13 C    1.590    12 N    0.175
    15   6 C    3.873 --    16 N    1.622    20 O    1.047    13 C    0.994
    16   7 N    3.000 --    15 C    1.622    17 N    1.199
    17   7 N    2.981 --    18 C    1.610    16 N    1.199
    18   6 C    3.868 --    17 N    1.610    20 O    1.073    19 C    1.032
    19   6 C    3.986 --    18 C    1.032    40 H    0.983    39 H    0.963
                            41 H    0.963
    20   8 O    2.317 --    18 C    1.073    15 C    1.047
    21   7 N    3.440 --    22 C    1.166     8 C    1.106    42 H    0.886
                            23 O    0.139
    22   6 C    3.884 --    23 O    1.631    21 N    1.166    24 C    0.940
    23   8 O    1.909 --    22 C    1.631    21 N    0.139
    24   6 C    3.919 --    25 O    1.631     6 C    1.163    22 C    0.940
    25   8 O    1.916 --    24 C    1.631
    26   1 H    1.005 --     1 C    0.978
    27   1 H    1.009 --     1 C    0.984
    28   1 H    1.006 --     1 C    0.978
    29   1 H    1.019 --     5 C    0.977
    30   1 H    1.021 --     5 C    0.976
    31   1 H    1.008 --     5 C    0.981
    32   1 H    1.001 --    10 C    0.984
    33   1 H    0.998 --    10 C    0.984
    34   1 H    0.996 --    10 C    0.982
    35   1 H    1.006 --    11 C    0.983
    36   1 H    1.001 --    11 C    0.985
    37   1 H    1.010 --    11 C    0.981
    38   1 H    0.932 --    12 N    0.891
    39   1 H    0.996 --    19 C    0.963
    40   1 H    0.998 --    19 C    0.983
    41   1 H    0.996 --    19 C    0.963
    42   1 H    0.937 --    21 N    0.886
 ---------------------------------------------------------------------------

Topologies differ in total number of bonds
Writing topology from bond orders to xtbtopo.mol

 dipole moment from electron density (au)
     X       Y       Z   
   1.6533  -2.1490  -6.1317  total (Debye):   17.041

           -------------------------------------------------
          |                Geometry Summary                 |
           -------------------------------------------------

      molecular mass/u    :      351.3152409
   center of mass at/Å    :        0.0405474       0.2235437       0.4797345
  moments of inertia/u·Å² :        0.1099266E+04   0.4614202E+04   0.4978665E+04
rotational constants/cm⁻¹ :        0.1533535E-01   0.3653423E-02   0.3385974E-02

 * 37 selected distances

     #   Z          #   Z                                           value/Å
     1   6 C        2   8 O                                       1.4286398
     2   8 O        3   6 C                                       1.3173837
     3   6 C        4   8 O                                       1.3226001
     4   8 O        5   6 C                                       1.4263924
     3   6 C        6   6 C                                       1.3977116
     7   7 N        8   6 C                                       1.2778993
     9   6 C       10   6 C                                       1.5318339 (max)
     9   6 C       11   6 C                                       1.5303402
     9   6 C       12   7 N                                       1.4646937
    12   7 N       13   6 C                                       1.3518031
    13   6 C       14   8 O                                       1.2193074
    15   6 C       16   7 N                                       1.2966116
    17   7 N       18   6 C                                       1.2968265
    18   6 C       19   6 C                                       1.4787112
    15   6 C       20   8 O                                       1.3507098
    18   6 C       20   8 O                                       1.3430809
     8   6 C       21   7 N                                       1.3764822
    21   7 N       22   6 C                                       1.3674626
    22   6 C       23   8 O                                       1.2182009
    24   6 C       25   8 O                                       1.2261796
     1   6 C       26   1 H                                       1.0915365
     1   6 C       27   1 H                                       1.0886830
     1   6 C       28   1 H                                       1.0918216
     5   6 C       29   1 H                                       1.0906349
     5   6 C       30   1 H                                       1.0908259
     5   6 C       31   1 H                                       1.0899648
    10   6 C       32   1 H                                       1.0887613
    10   6 C       33   1 H                                       1.0886881
    10   6 C       34   1 H                                       1.0882073
    11   6 C       35   1 H                                       1.0880517
    11   6 C       36   1 H                                       1.0879979
    11   6 C       37   1 H                                       1.0894655
    12   7 N       38   1 H                                       1.0050324 (min)
    19   6 C       39   1 H                                       1.0901069
    19   6 C       40   1 H                                       1.0876898
    19   6 C       41   1 H                                       1.0895669
    21   7 N       42   1 H                                       1.0084521

 * 5 distinct bonds (by element types)

   Z      Z             #   av. dist./Å        max./Å        min./Å
   1 H    6 C          15     1.0894668     1.0918216     1.0876898
   6 C    6 C           4     1.4846492     1.5318339     1.3977116
   1 H    7 N           2     1.0067423     1.0084521     1.0050324
   6 C    7 N           7     1.3473970     1.4646937     1.2778993
   6 C    8 O           9     1.3169439     1.4286398     1.2182009


optimized geometry written to: xtbopt.xyz


           -------------------------------------------------
          | TOTAL ENERGY              -83.000659166381 Eh   |
          | GRADIENT NORM               0.000924570751 Eh/α |
          | HOMO-LUMO GAP               2.367943016200 eV   |
           -------------------------------------------------

------------------------------------------------------------------------
 * finished run on 2023/06/21 at 17:34:05.593     
------------------------------------------------------------------------
 total:
 * wall-time:     0 d,  0 h,  0 min,  6.360 sec
 *  cpu-time:     0 d,  0 h,  0 min,  6.231 sec
 * ratio c/w:     0.980 speedup
 SCF:
 * wall-time:     0 d,  0 h,  0 min,  0.186 sec
 *  cpu-time:     0 d,  0 h,  0 min,  0.167 sec
 * ratio c/w:     0.899 speedup
 ANC optimizer:
 * wall-time:     0 d,  0 h,  0 min,  6.074 sec
 *  cpu-time:     0 d,  0 h,  0 min,  6.014 sec
 * ratio c/w:     0.990 speedup

