      -----------------------------------------------------------      
     |                   =====================                   |     
     |                           x T B                           |     
     |                   =====================                   |     
     |                         S. Grimme                         |     
     |          Mulliken Center for Theoretical Chemistry        |     
     |                    University of Bonn                     |     
      -----------------------------------------------------------      

   * xtb version 6.5.1 (579679a) compiled by 'ehlert@majestix' on 2022-07-11

   xtb is free software: you can redistribute it and/or modify it under
   the terms of the GNU Lesser General Public License as published by
   the Free Software Foundation, either version 3 of the License, or
   (at your option) any later version.
   
   xtb is distributed in the hope that it will be useful,
   but WITHOUT ANY WARRANTY; without even the implied warranty of
   MERCHANTABILITY or FITNESS FOR A PARTICULAR PURPOSE.  See the
   GNU Lesser General Public License for more details.
   
   Cite this work as:
   * C. Bannwarth, E. Caldeweyher, S. Ehlert, A. Hansen, P. Pracht,
     J. Seibert, S. Spicher, S. Grimme, WIREs Comput. Mol. Sci., 2020, 11,
     e01493. DOI: 10.1002/wcms.1493
   
   for GFN2-xTB:
   * C. Bannwarth, S. Ehlert and S. Grimme., J. Chem. Theory Comput., 2019,
     15, 1652-1671. DOI: 10.1021/acs.jctc.8b01176
   for GFN1-xTB:
   * S. Grimme, C. Bannwarth, P. Shushkov, J. Chem. Theory Comput., 2017,
     13, 1989-2009. DOI: 10.1021/acs.jctc.7b00118
   for GFN0-xTB:
   * P. Pracht, E. Caldeweyher, S. Ehlert, S. Grimme, ChemRxiv, 2019, preprint.
     DOI: 10.26434/chemrxiv.8326202.v1
   for GFN-FF:
   * S. Spicher and S. Grimme, Angew. Chem. Int. Ed., 2020, 59, 15665-15673.
     DOI: 10.1002/anie.202004239
   
   for ALPB and GBSA implicit solvation:
   * S. Ehlert, M. Stahn, S. Spicher, S. Grimme, J. Chem. Theory Comput.,
     2021, 17, 4250-4261. DOI: 10.1021/acs.jctc.1c00471
   
   for DFT-D4:
   * E. Caldeweyher, C. Bannwarth and S. Grimme, J. Chem. Phys., 2017,
     147, 034112. DOI: 10.1063/1.4993215
   * E. Caldeweyher, S. Ehlert, A. Hansen, H. Neugebauer, S. Spicher,
     C. Bannwarth and S. Grimme, J. Chem. Phys., 2019, 150, 154122.
     DOI: 10.1063/1.5090222
   * E. Caldeweyher, J.-M. Mewes, S. Ehlert and S. Grimme, Phys. Chem. Chem. Phys.
     2020, 22, 8499-8512. DOI: 10.1039/D0CP00502A
   
   for sTDA-xTB:
   * S. Grimme and C. Bannwarth, J. Chem. Phys., 2016, 145, 054103.
     DOI: 10.1063/1.4959605
   
   in the mass-spec context:
   * V. Asgeirsson, C. Bauer and S. Grimme, Chem. Sci., 2017, 8, 4879.
     DOI: 10.1039/c7sc00601b
   * J. Koopman and S. Grimme, ACS Omega 2019, 4, 12, 15120-15133.
     DOI: 10.1021/acsomega.9b02011
   
   for metadynamics refer to:
   * S. Grimme, J. Chem. Theory Comput., 2019, 155, 2847-2862
     DOI: 10.1021/acs.jctc.9b00143
   
   for SPH calculations refer to:
   * S. Spicher and S. Grimme, J. Chem. Theory Comput., 2021, 17, 1701-1714
     DOI: 10.1021/acs.jctc.0c01306
   
   with help from (in alphabetical order)
   P. Atkinson, C. Bannwarth, F. Bohle, G. Brandenburg, E. Caldeweyher
   M. Checinski, S. Dohm, S. Ehlert, S. Ehrlich, I. Gerasimov, C. Hölzer
   A. Katbashev, J. Koopman, C. Lavigne, S. Lehtola, F. März, M. Müller,
   F. Musil, H. Neugebauer, J. Pisarek, C. Plett, P. Pracht, F. Pultar,
   J. Seibert, P. Shushkov, S. Spicher, M. Stahn, M. Steiner, T. Strunk,
   J. Stückrath, T. Rose, and J. Unsleber
   
 * started run on 2023/06/21 at 17:20:15.020     

           -------------------------------------------------
          |                Calculation Setup                |
           -------------------------------------------------

          program call               : /lustre/hpc/kemi/ree/PhD/git/ReactivityQM/dep/xtb-6.5.1/bin/xtb --gfn 1 /lustre/hpc/kemi/ree/PhD/git/ReactivityQM/calculations/R02oxygendeprot/reac01prodN04/conf20/R02oxygendeprot_reac01prodN04_conf20_gfn1.xyz --opt --vfukui --chrg 0 --uhf 0 --alpb DMSO
          hostname                   : node070
          coordinate file            : /lustre/hpc/kemi/ree/PhD/git/ReactivityQM/calculations/R02oxygendeprot/reac01prodN04/conf20/R02oxygendeprot_reac01prodN04_conf20_gfn1.xyz
          omp threads                :                     1

   ID    Z sym.   atoms
    1    6 C      1, 3, 5, 6, 8-11, 13, 15, 18, 19, 22, 24
    2    8 O      2, 4, 14, 20, 23, 25
    3    7 N      7, 12, 16, 17, 21
    4    1 H      26-42

           -------------------------------------------------
          |                 G F N 1 - x T B                 |
           -------------------------------------------------

        Reference                      10.1021/acs.jctc.7b00118
      * Hamiltonian:
        H0-scaling (s, p, d)           1.850000    2.250000    2.000000
        zeta-weighting                 0.000000
      * Dispersion:
        s8                             2.400000
        a1                             0.630000
        a2                             5.000000
        s9                             0.000000
      * Repulsion:
        kExp                           1.500000
        rExp                           1.000000
      * Coulomb:
        alpha                          2.000000
        third order                    atomic
        anisotropic                    false
      * Halogen bond correction:
        rad-scale                      1.300000
        damping                        0.440000

      * Solvation model:               ALPB
        Solvent                        DMSO
        Parameter file                 internal GFN1-xTB/ALPB
        Dielectric constant                4.6680E+01
        Reference state                gsolv [1 M gas/solution]
        Free energy shift                  7.6243E-03 Eh       4.7843E+00 kcal/mol
        Temperature                        2.9815E+02 K
        Density                            1.1000E+00 kg/L
        Solvent mass                       7.8130E+01 g/mol
        Interaction kernel             P16
        Born radius scaling (c1)           1.7672E+00
        Born radii integrator          GBOBC
        Born offset                        0.0000E+00 a0       0.0000E+00 AA
        H-bond correction              true
        Ion screening                  false
        Surface tension                    1.0000E-05 Eh       1.5569E+01 dyn/cm
        Grid points                               230 per atom

          ...................................................
          :                      SETUP                      :
          :.................................................:
          :  # basis functions                 134          :
          :  # atomic orbitals                 134          :
          :  # shells                           84          :
          :  # electrons                       134          :
          :  # halogen bonds                     0          :
          :  max. iterations                   250          :
          :  Hamiltonian                  GFN1-xTB          :
          :  restarted?                      false          :
          :  GBSA solvation                   true          :
          :  PC potential                    false          :
          :  electronic temp.          300.0000000     K    :
          :  accuracy                    1.0000000          :
          :  -> integral cutoff          0.2500000E+02      :
          :  -> integral neglect         0.1000000E-07      :
          :  -> SCF convergence          0.1000000E-05 Eh   :
          :  -> wf. convergence          0.2000000E-04 e    :
          :  Broyden damping             0.4000000          :
          ...................................................

 iter      E             dE          RMSdq      gap      omega  full diag
   1    -83.3385598 -0.833386E+02  0.849E+00    2.46       0.0  T
   2    -83.6967627 -0.358203E+00  0.509E+00    1.99       1.0  T
   3    -83.6658059  0.309568E-01  0.188E+00    2.31       1.0  T
   4    -83.7189656 -0.531597E-01  0.300E-01    2.12       1.0  T
   5    -83.7240418 -0.507617E-02  0.882E-02    2.17       1.0  T
   6    -83.7243781 -0.336330E-03  0.214E-02    2.15       1.0  T
   7    -83.7243864 -0.832200E-05  0.649E-03    2.15       2.4  T
   8    -83.7243868 -0.375752E-06  0.219E-03    2.15       7.0  T
   9    -83.7243869 -0.600785E-07  0.997E-04    2.15      15.5  T
  10    -83.7243869 -0.769337E-08  0.278E-04    2.15      55.5  T
  11    -83.7243869 -0.508535E-09  0.565E-05    2.15     273.0  T
  12    -83.7243869 -0.542713E-10  0.223E-05    2.15     690.7  T

   *** convergence criteria satisfied after 12 iterations ***

         #    Occupation            Energy/Eh            Energy/eV
      -------------------------------------------------------------
         1        2.0000           -0.8626194             -23.4731
       ...           ...                  ...                  ...
        61        2.0000           -0.4645256             -12.6404
        62        2.0000           -0.4566598             -12.4263
        63        2.0000           -0.4526836             -12.3181
        64        2.0000           -0.4455124             -12.1230
        65        2.0000           -0.4429311             -12.0528
        66        2.0000           -0.4223267             -11.4921
        67        2.0000           -0.4166864             -11.3386 (HOMO)
        68                         -0.3376560              -9.1881 (LUMO)
        69                         -0.3184829              -8.6664
        70                         -0.2810691              -7.6483
        71                         -0.2600121              -7.0753
        72                         -0.2570603              -6.9950
       ...                                ...                  ...
       134                          0.7578111              20.6211
      -------------------------------------------------------------
                  HL-Gap            0.0790304 Eh            2.1505 eV
             Fermi-level           -0.3771712 Eh          -10.2634 eV

 SCC (total)                   0 d,  0 h,  0 min,  0.152 sec
 SCC setup                      ...        0 min,  0.002 sec (  1.168%)
 Dispersion                     ...        0 min,  0.000 sec (  0.190%)
 classical contributions        ...        0 min,  0.000 sec (  0.061%)
 integral evaluation            ...        0 min,  0.025 sec ( 16.485%)
 iterations                     ...        0 min,  0.066 sec ( 43.015%)
 molecular gradient             ...        0 min,  0.058 sec ( 38.184%)
 printout                       ...        0 min,  0.001 sec (  0.877%)

         :::::::::::::::::::::::::::::::::::::::::::::::::::::
         ::                     SUMMARY                     ::
         :::::::::::::::::::::::::::::::::::::::::::::::::::::
         :: total energy             -82.967803595705 Eh    ::
         :: total w/o Gsasa/hb       -82.946816037321 Eh    ::
         :: gradient norm              0.127242857423 Eh/a0 ::
         :: HOMO-LUMO gap              2.150525446628 eV    ::
         ::.................................................::
         :: SCC energy               -83.724386862414 Eh    ::
         :: -> electrostatic           0.352308515390 Eh    ::
         :: -> Gsolv                  -0.060017023551 Eh    ::
         ::    -> Gelec               -0.039029465167 Eh    ::
         ::    -> Gsasa               -0.024437981805 Eh    ::
         ::    -> Ghb                 -0.004173855583 Eh    ::
         ::    -> Gshift               0.007624279005 Eh    ::
         :: repulsion energy           0.782598234726 Eh    ::
         :: dispersion energy         -0.026014968017 Eh    ::
         :: halogen bond corr.         0.000000000000 Eh    ::
         :: add. restraining           0.000000000000 Eh    ::
         :: total charge               0.000000000000 e     ::
         :::::::::::::::::::::::::::::::::::::::::::::::::::::

      ----------------------------------------------------------- 
     |                   =====================                   |
     |                        A N C O P T                        |
     |                   =====================                   |
     |               Approximate Normal Coordinate               |
     |                Rational Function Optimizer                |
      ----------------------------------------------------------- 

          ...................................................
          :                      SETUP                      :
          :.................................................:
          :   optimization level            normal          :
          :   max. optcycles                   200          :
          :   ANC micro-cycles                  20          :
          :   degrees of freedom               120          :
          :.................................................:
          :   RF solver                   davidson          :
          :   write xtbopt.log                true          :
          :   linear?                        false          :
          :   energy convergence         0.5000000E-05 Eh   :
          :   grad. convergence          0.1000000E-02 Eh/α :
          :   maximium RF displ.         1.0000000          :
          :   Hlow (freq-cutoff)         0.1000000E-01      :
          :   Hmax (freq-cutoff)         5.0000000          :
          :   S6 in model hess.         20.0000000          :
          ...................................................

generating ANC from model Hessian ...
Using Lindh-Hessian (1995)
 Shifting diagonal of input Hessian by   9.817640748060878E-003
 Lowest  eigenvalues of input Hessian
    0.000000    0.000000    0.000000    0.000000    0.000000    0.000000
    0.010000    0.010180    0.010531    0.010921    0.011631    0.012269
    0.013175    0.013399    0.014256    0.014857    0.015310    0.015462
 Highest eigenvalues
    2.033179    2.099585    2.112138    2.292679    2.351023    2.439847
 

........................................................................
.............................. CYCLE    1 ..............................
........................................................................
   1    -83.7243869 -0.837244E+02  0.716E-06    2.15       0.0  T
   2    -83.7243869 -0.227374E-12  0.333E-06    2.15    4631.6  T
   3    -83.7243869 -0.142109E-12  0.196E-06    2.15    7860.9  T
     SCC iter.                  ...        0 min,  0.016 sec
     gradient                   ...        0 min,  0.058 sec
 * total energy  :   -82.9678036 Eh     change       -0.8299139E-11 Eh
   gradient norm :     0.1272429 Eh/α   predicted     0.0000000E+00 (-100.00%)
   displ. norm   :     0.4180943 α      lambda       -0.2365335E-01
   maximum displ.:     0.1676430 α      in ANC's #22, #27, #10, ...

........................................................................
.............................. CYCLE    2 ..............................
........................................................................
   1    -83.7518765 -0.837519E+02  0.112E-01    2.32       0.0  T
   2    -83.7523479 -0.471425E-03  0.604E-02    2.27       1.0  T
   3    -83.7524633 -0.115333E-03  0.223E-02    2.28       1.0  T
   4    -83.7524620  0.127293E-05  0.107E-02    2.28       1.4  T
   5    -83.7524645 -0.249866E-05  0.108E-03    2.28      14.4  T
   6    -83.7524645 -0.269970E-07  0.338E-04    2.28      45.7  T
   7    -83.7524645 -0.193558E-08  0.143E-04    2.28     107.7  T
   8    -83.7524645 -0.260528E-09  0.318E-05    2.28     485.4  T
     SCC iter.                  ...        0 min,  0.042 sec
     gradient                   ...        0 min,  0.057 sec
 * total energy  :   -82.9849838 Eh     change       -0.1718021E-01 Eh
   gradient norm :     0.0590776 Eh/α   predicted    -0.1392030E-01 ( -18.97%)
   displ. norm   :     0.3878825 α      lambda       -0.9672038E-02
   maximum displ.:     0.1622150 α      in ANC's #27, #22, #37, ...

........................................................................
.............................. CYCLE    3 ..............................
........................................................................
   1    -83.7675015 -0.837675E+02  0.899E-02    2.41       0.0  T
   2    -83.7678172 -0.315757E-03  0.469E-02    2.38       1.0  T
   3    -83.7678791 -0.618676E-04  0.181E-02    2.39       1.0  T
   4    -83.7678785  0.606672E-06  0.757E-03    2.39       2.0  T
   5    -83.7678796 -0.116597E-05  0.108E-03    2.39      14.2  T
   6    -83.7678797 -0.276154E-07  0.276E-04    2.39      55.8  T
   7    -83.7678797 -0.145211E-08  0.123E-04    2.39     125.2  T
   8    -83.7678797 -0.160156E-09  0.266E-05    2.39     580.8  T
     SCC iter.                  ...        0 min,  0.042 sec
     gradient                   ...        0 min,  0.049 sec
 * total energy  :   -82.9908696 Eh     change       -0.5885805E-02 Eh
   gradient norm :     0.0211026 Eh/α   predicted    -0.5563613E-02 (  -5.47%)
   displ. norm   :     0.2719971 α      lambda       -0.1902937E-02
   maximum displ.:     0.0986666 α      in ANC's #22, #27, #12, ...

........................................................................
.............................. CYCLE    4 ..............................
........................................................................
   1    -83.7688777 -0.837689E+02  0.214E-02    2.39       0.0  T
   2    -83.7688915 -0.137972E-04  0.103E-02    2.39       1.5  T
   3    -83.7688930 -0.149359E-05  0.503E-03    2.39       3.1  T
   4    -83.7688931 -0.273609E-07  0.149E-03    2.39      10.3  T
   5    -83.7688931 -0.143059E-07  0.272E-04    2.39      56.7  T
   6    -83.7688931 -0.233895E-08  0.982E-05    2.39     157.1  T
   7    -83.7688931 -0.276970E-09  0.338E-05    2.39     456.0  T
     SCC iter.                  ...        0 min,  0.038 sec
     gradient                   ...        0 min,  0.036 sec
 * total energy  :   -82.9921928 Eh     change       -0.1323170E-02 Eh
   gradient norm :     0.0128816 Eh/α   predicted    -0.1021898E-02 ( -22.77%)
   displ. norm   :     0.2302547 α      lambda       -0.8039147E-03
   maximum displ.:     0.0839025 α      in ANC's #18, #16, #12, ...

........................................................................
.............................. CYCLE    5 ..............................
........................................................................
   1    -83.7697481 -0.837697E+02  0.154E-02    2.38       0.0  T
   2    -83.7697536 -0.547670E-05  0.704E-03    2.39       2.2  T
   3    -83.7697541 -0.490154E-06  0.389E-03    2.39       4.0  T
   4    -83.7697541 -0.317374E-07  0.983E-04    2.39      15.7  T
   5    -83.7697541 -0.733456E-08  0.123E-04    2.39     125.9  T
   6    -83.7697541 -0.421323E-09  0.475E-05    2.39     325.1  T
     SCC iter.                  ...        0 min,  0.031 sec
     gradient                   ...        0 min,  0.058 sec
 * total energy  :   -82.9927168 Eh     change       -0.5240251E-03 Eh
   gradient norm :     0.0062923 Eh/α   predicted    -0.4233016E-03 ( -19.22%)
   displ. norm   :     0.1632355 α      lambda       -0.2539482E-03
   maximum displ.:     0.0584541 α      in ANC's #6, #3, #18, ...

........................................................................
.............................. CYCLE    6 ..............................
........................................................................
   1    -83.7709666 -0.837710E+02  0.823E-03    2.38       0.0  T
   2    -83.7709680 -0.143651E-05  0.359E-03    2.38       4.3  T
   3    -83.7709681 -0.113834E-06  0.221E-03    2.38       7.0  T
   4    -83.7709681 -0.180102E-07  0.557E-04    2.38      27.7  T
   5    -83.7709681 -0.704269E-08  0.122E-04    2.38     126.4  T
   6    -83.7709681 -0.524167E-09  0.296E-05    2.38     520.8  T
     SCC iter.                  ...        0 min,  0.032 sec
     gradient                   ...        0 min,  0.055 sec
 * total energy  :   -82.9928994 Eh     change       -0.1825470E-03 Eh
   gradient norm :     0.0043418 Eh/α   predicted    -0.1303579E-03 ( -28.59%)
   displ. norm   :     0.1851321 α      lambda       -0.1838203E-03
   maximum displ.:     0.0697004 α      in ANC's #3, #6, #5, ...

........................................................................
.............................. CYCLE    7 ..............................
........................................................................
   1    -83.7721097 -0.837721E+02  0.687E-03    2.38       0.0  T
   2    -83.7721113 -0.158626E-05  0.336E-03    2.38       4.6  T
   3    -83.7721114 -0.188795E-06  0.191E-03    2.38       8.1  T
   4    -83.7721115 -0.138782E-07  0.589E-04    2.38      26.2  T
   5    -83.7721115 -0.501727E-08  0.118E-04    2.38     131.1  T
   6    -83.7721115 -0.355385E-09  0.311E-05    2.38     496.6  T
     SCC iter.                  ...        0 min,  0.031 sec
     gradient                   ...        0 min,  0.057 sec
 * total energy  :   -82.9930291 Eh     change       -0.1297538E-03 Eh
   gradient norm :     0.0036518 Eh/α   predicted    -0.9506083E-04 ( -26.74%)
   displ. norm   :     0.1750987 α      lambda       -0.1170539E-03
   maximum displ.:     0.0707243 α      in ANC's #3, #5, #6, ...

........................................................................
.............................. CYCLE    8 ..............................
........................................................................
   1    -83.7725873 -0.837726E+02  0.461E-03    2.38       0.0  T
   2    -83.7725882 -0.947705E-06  0.240E-03    2.38       6.4  T
   3    -83.7725884 -0.108525E-06  0.118E-03    2.38      13.1  T
   4    -83.7725884 -0.729571E-09  0.460E-04    2.38      33.5  T
   5    -83.7725884 -0.267846E-08  0.104E-04    2.38     148.5  T
   6    -83.7725884 -0.216986E-09  0.290E-05    2.38     532.4  T
     SCC iter.                  ...        0 min,  0.032 sec
     gradient                   ...        0 min,  0.057 sec
 * total energy  :   -82.9931126 Eh     change       -0.8344917E-04 Eh
   gradient norm :     0.0034640 Eh/α   predicted    -0.6032150E-04 ( -27.71%)
   displ. norm   :     0.1549961 α      lambda       -0.7763594E-04
   maximum displ.:     0.0665598 α      in ANC's #3, #5, #4, ...

........................................................................
.............................. CYCLE    9 ..............................
........................................................................
   1    -83.7725234 -0.837725E+02  0.332E-03    2.39       0.0  T
   2    -83.7725238 -0.383572E-06  0.153E-03    2.39      10.1  T
   3    -83.7725238 -0.218669E-07  0.784E-04    2.39      19.7  T
   4    -83.7725238 -0.522419E-09  0.283E-04    2.39      54.5  T
   5    -83.7725238 -0.698222E-09  0.499E-05    2.39     309.2  T
   6    -83.7725238 -0.196252E-10  0.147E-05    2.39    1049.0  T
     SCC iter.                  ...        0 min,  0.030 sec
     gradient                   ...        0 min,  0.052 sec
 * total energy  :   -82.9931679 Eh     change       -0.5529259E-04 Eh
   gradient norm :     0.0030610 Eh/α   predicted    -0.3975102E-04 ( -28.11%)
   displ. norm   :     0.1343849 α      lambda       -0.5255251E-04
   maximum displ.:     0.0619878 α      in ANC's #3, #4, #5, ...

........................................................................
.............................. CYCLE   10 ..............................
........................................................................
   1    -83.7721737 -0.837722E+02  0.341E-03    2.39       0.0  T
   2    -83.7721741 -0.432680E-06  0.156E-03    2.39       9.9  T
   3    -83.7721742 -0.413100E-07  0.895E-04    2.39      17.2  T
   4    -83.7721742 -0.192905E-08  0.370E-04    2.39      41.7  T
   5    -83.7721742 -0.190535E-08  0.576E-05    2.39     267.8  T
   6    -83.7721742 -0.518128E-10  0.190E-05    2.39     813.0  T
     SCC iter.                  ...        0 min,  0.031 sec
     gradient                   ...        0 min,  0.054 sec
 * total energy  :   -82.9932055 Eh     change       -0.3766789E-04 Eh
   gradient norm :     0.0024124 Eh/α   predicted    -0.2675401E-04 ( -28.97%)
   displ. norm   :     0.1149843 α      lambda       -0.3814545E-04
   maximum displ.:     0.0560939 α      in ANC's #3, #4, #2, ...

........................................................................
.............................. CYCLE   11 ..............................
........................................................................
   1    -83.7719087 -0.837719E+02  0.334E-03    2.39       0.0  T
   2    -83.7719092 -0.522936E-06  0.175E-03    2.39       8.8  T
   3    -83.7719093 -0.753810E-07  0.930E-04    2.39      16.6  T
   4    -83.7719093 -0.122570E-08  0.390E-04    2.39      39.6  T
   5    -83.7719093 -0.130005E-08  0.598E-05    2.39     258.0  T
   6    -83.7719093 -0.755875E-10  0.162E-05    2.39     952.9  T
     SCC iter.                  ...        0 min,  0.029 sec
     gradient                   ...        0 min,  0.053 sec
 * total energy  :   -82.9932343 Eh     change       -0.2876966E-04 Eh
   gradient norm :     0.0018894 Eh/α   predicted    -0.1932551E-04 ( -32.83%)
   displ. norm   :     0.2013564 α      lambda       -0.3979043E-04
   maximum displ.:     0.0995890 α      in ANC's #3, #4, #2, ...

........................................................................
.............................. CYCLE   12 ..............................
........................................................................
   1    -83.7715476 -0.837715E+02  0.494E-03    2.39       0.0  T
   2    -83.7715488 -0.119269E-05  0.278E-03    2.39       5.6  T
   3    -83.7715490 -0.171472E-06  0.145E-03    2.39      10.6  T
   4    -83.7715490 -0.105487E-09  0.590E-04    2.39      26.2  T
   5    -83.7715490 -0.368394E-08  0.992E-05    2.39     155.5  T
   6    -83.7715490 -0.222229E-09  0.241E-05    2.39     640.4  T
     SCC iter.                  ...        0 min,  0.030 sec
     gradient                   ...        0 min,  0.054 sec
 * total energy  :   -82.9932717 Eh     change       -0.3744152E-04 Eh
   gradient norm :     0.0029654 Eh/α   predicted    -0.2026241E-04 ( -45.88%)
   displ. norm   :     0.0860307 α      lambda       -0.2891353E-04
   maximum displ.:     0.0414513 α      in ANC's #3, #4, #2, ...

........................................................................
.............................. CYCLE   13 ..............................
........................................................................
   1    -83.7719114 -0.837719E+02  0.128E-03    2.39       0.0  T
   2    -83.7719114 -0.462944E-07  0.679E-04    2.39      22.7  T
   3    -83.7719114 -0.269284E-08  0.382E-04    2.39      40.4  T
   4    -83.7719114 -0.977280E-10  0.739E-05    2.39     208.9  T
   5    -83.7719114 -0.935216E-10  0.204E-05    2.39     755.1  T
     SCC iter.                  ...        0 min,  0.026 sec
     gradient                   ...        0 min,  0.053 sec
 * total energy  :   -82.9932973 Eh     change       -0.2561237E-04 Eh
   gradient norm :     0.0028186 Eh/α   predicted    -0.1456502E-04 ( -43.13%)
   displ. norm   :     0.2715693 α      lambda       -0.8607719E-04
   maximum displ.:     0.1303396 α      in ANC's #3, #4, #17, ...

........................................................................
.............................. CYCLE   14 ..............................
........................................................................
   1    -83.7722230 -0.837722E+02  0.428E-03    2.39       0.0  T
   2    -83.7722237 -0.666224E-06  0.208E-03    2.39       7.4  T
   3    -83.7722237 -0.655026E-07  0.118E-03    2.39      13.1  T
   4    -83.7722237 -0.163769E-08  0.388E-04    2.39      39.8  T
   5    -83.7722237 -0.363968E-08  0.842E-05    2.39     183.2  T
   6    -83.7722237 -0.139337E-09  0.243E-05    2.39     635.8  T
     SCC iter.                  ...        0 min,  0.029 sec
     gradient                   ...        0 min,  0.055 sec
 * total energy  :   -82.9933533 Eh     change       -0.5594165E-04 Eh
   gradient norm :     0.0032657 Eh/α   predicted    -0.4621299E-04 ( -17.39%)
   displ. norm   :     0.1261710 α      lambda       -0.3607366E-04
   maximum displ.:     0.0591954 α      in ANC's #3, #4, #2, ...

........................................................................
.............................. CYCLE   15 ..............................
........................................................................
   1    -83.7730129 -0.837730E+02  0.291E-03    2.39       0.0  T
   2    -83.7730132 -0.310988E-06  0.148E-03    2.39      10.4  T
   3    -83.7730133 -0.456629E-07  0.786E-04    2.39      19.6  T
   4    -83.7730133 -0.178755E-08  0.263E-04    2.39      58.7  T
   5    -83.7730133 -0.836508E-09  0.580E-05    2.39     266.1  T
   6    -83.7730133 -0.716511E-10  0.170E-05    2.39     906.9  T
     SCC iter.                  ...        0 min,  0.030 sec
     gradient                   ...        0 min,  0.053 sec
 * total energy  :   -82.9933803 Eh     change       -0.2700743E-04 Eh
   gradient norm :     0.0025989 Eh/α   predicted    -0.1832663E-04 ( -32.14%)
   displ. norm   :     0.2218123 α      lambda       -0.4435647E-04
   maximum displ.:     0.1126669 α      in ANC's #3, #4, #2, ...

........................................................................
.............................. CYCLE   16 ..............................
........................................................................
   1    -83.7726443 -0.837726E+02  0.395E-03    2.39       0.0  T
   2    -83.7726450 -0.672221E-06  0.185E-03    2.39       8.4  T
   3    -83.7726451 -0.768567E-07  0.878E-04    2.39      17.6  T
   4    -83.7726451 -0.614406E-09  0.367E-04    2.39      42.0  T
   5    -83.7726451 -0.190516E-08  0.871E-05    2.39     177.2  T
   6    -83.7726451 -0.118717E-09  0.239E-05    2.39     644.4  T
     SCC iter.                  ...        0 min,  0.031 sec
     gradient                   ...        0 min,  0.058 sec
 * total energy  :   -82.9934135 Eh     change       -0.3321100E-04 Eh
   gradient norm :     0.0026033 Eh/α   predicted    -0.2327138E-04 ( -29.93%)
   displ. norm   :     0.2056969 α      lambda       -0.4862494E-04
   maximum displ.:     0.1010519 α      in ANC's #3, #4, #2, ...

........................................................................
.............................. CYCLE   17 ..............................
........................................................................
   1    -83.7731326 -0.837731E+02  0.436E-03    2.39       0.0  T
   2    -83.7731333 -0.607455E-06  0.213E-03    2.39       7.2  T
   3    -83.7731333 -0.480644E-07  0.110E-03    2.39      14.0  T
   4    -83.7731333 -0.369141E-09  0.360E-04    2.39      42.9  T
   5    -83.7731333 -0.202070E-08  0.739E-05    2.39     208.8  T
   6    -83.7731333 -0.102986E-09  0.247E-05    2.39     624.7  T
     SCC iter.                  ...        0 min,  0.031 sec
     gradient                   ...        0 min,  0.053 sec
 * total energy  :   -82.9934422 Eh     change       -0.2870658E-04 Eh
   gradient norm :     0.0023454 Eh/α   predicted    -0.2534545E-04 ( -11.71%)
   displ. norm   :     0.1953123 α      lambda       -0.2129465E-04
   maximum displ.:     0.0982922 α      in ANC's #3, #4, #2, ...

........................................................................
.............................. CYCLE   18 ..............................
........................................................................
   1    -83.7719644 -0.837720E+02  0.367E-03    2.39       0.0  T
   2    -83.7719647 -0.254561E-06  0.179E-03    2.39       8.6  T
   3    -83.7719647 -0.135851E-07  0.940E-04    2.39      16.4  T
   4    -83.7719647 -0.364551E-08  0.275E-04    2.39      56.2  T
   5    -83.7719647 -0.228225E-08  0.632E-05    2.39     244.1  T
   6    -83.7719647 -0.405862E-10  0.164E-05    2.39     943.2  T
     SCC iter.                  ...        0 min,  0.030 sec
     gradient                   ...        0 min,  0.055 sec
 * total energy  :   -82.9934510 Eh     change       -0.8818100E-05 Eh
   gradient norm :     0.0033301 Eh/α   predicted    -0.1105667E-04 (  25.39%)
   displ. norm   :     0.0445577 α      lambda       -0.2644839E-04
   maximum displ.:     0.0185553 α      in ANC's #2, #4, #8, ...

........................................................................
.............................. CYCLE   19 ..............................
........................................................................
   1    -83.7727032 -0.837727E+02  0.337E-03    2.39       0.0  T
   2    -83.7727036 -0.366158E-06  0.173E-03    2.39       8.9  T
   3    -83.7727036 -0.498163E-07  0.967E-04    2.39      16.0  T
   4    -83.7727036 -0.670167E-08  0.298E-04    2.39      51.7  T
   5    -83.7727036 -0.652236E-09  0.621E-05    2.39     248.3  T
   6    -83.7727036 -0.726601E-10  0.148E-05    2.39    1044.4  T
     SCC iter.                  ...        0 min,  0.030 sec
     gradient                   ...        0 min,  0.053 sec
 * total energy  :   -82.9934683 Eh     change       -0.1724997E-04 Eh
   gradient norm :     0.0017404 Eh/α   predicted    -0.1325218E-04 ( -23.18%)
   displ. norm   :     0.1263938 α      lambda       -0.1547724E-04
   maximum displ.:     0.0613596 α      in ANC's #4, #2, #3, ...

........................................................................
.............................. CYCLE   20 ..............................
........................................................................
   1    -83.7730691 -0.837731E+02  0.312E-03    2.40       0.0  T
   2    -83.7730696 -0.480184E-06  0.162E-03    2.40       9.5  T
   3    -83.7730696 -0.655506E-07  0.815E-04    2.40      18.9  T
   4    -83.7730696 -0.110283E-08  0.357E-04    2.40      43.3  T
   5    -83.7730696 -0.892655E-09  0.690E-05    2.40     223.7  T
   6    -83.7730696 -0.995328E-10  0.160E-05    2.40     965.1  T
     SCC iter.                  ...        0 min,  0.030 sec
     gradient                   ...        0 min,  0.055 sec
 * total energy  :   -82.9934829 Eh     change       -0.1458319E-04 Eh
   gradient norm :     0.0019680 Eh/α   predicted    -0.7795959E-05 ( -46.54%)
   displ. norm   :     0.1008719 α      lambda       -0.1165112E-04
   maximum displ.:     0.0495785 α      in ANC's #4, #2, #17, ...
 * RMSD in coord.:     0.4052508 α      energy gain  -0.2567926E-01 Eh

generating ANC from model Hessian ...
Using Lindh-Hessian (1995)
 Shifting diagonal of input Hessian by   9.829557589492732E-003
 Lowest  eigenvalues of input Hessian
    0.000000    0.000000    0.000000    0.000000    0.000000    0.000000
    0.010000    0.010187    0.010538    0.011039    0.011692    0.012158
    0.013429    0.013816    0.015050    0.015072    0.015373    0.015660
 Highest eigenvalues
    2.080600    2.126200    2.183236    2.290485    2.394742    2.429510
 

........................................................................
.............................. CYCLE   21 ..............................
........................................................................
   1    -83.7729926 -0.837730E+02  0.175E-03    2.40       0.0  T
   2    -83.7729927 -0.870073E-07  0.881E-04    2.40      17.5  T
   3    -83.7729927 -0.672999E-08  0.491E-04    2.40      31.4  T
   4    -83.7729927 -0.719353E-09  0.155E-04    2.40      99.6  T
   5    -83.7729927 -0.465278E-09  0.393E-05    2.40     392.6  T
     SCC iter.                  ...        0 min,  0.025 sec
     gradient                   ...        0 min,  0.054 sec
 * total energy  :   -82.9934946 Eh     change       -0.1174886E-04 Eh
   gradient norm :     0.0015439 Eh/α   predicted     0.0000000E+00 (-100.00%)
   displ. norm   :     0.0205598 α      lambda       -0.5305515E-05
   maximum displ.:     0.0083417 α      in ANC's #5, #15, #16, ...

........................................................................
.............................. CYCLE   22 ..............................
........................................................................
   1    -83.7732517 -0.837733E+02  0.177E-03    2.40       0.0  T
   2    -83.7732519 -0.185137E-06  0.946E-04    2.40      16.3  T
   3    -83.7732519 -0.282196E-07  0.457E-04    2.40      33.8  T
   4    -83.7732519 -0.188166E-09  0.212E-04    2.40      72.7  T
   5    -83.7732519 -0.219217E-09  0.366E-05    2.40     421.5  T
   6    -83.7732519 -0.394920E-10  0.643E-06    2.40    2398.7  T
     SCC iter.                  ...        0 min,  0.029 sec
     gradient                   ...        0 min,  0.054 sec
 * total energy  :   -82.9935013 Eh     change       -0.6707753E-05 Eh
   gradient norm :     0.0005239 Eh/α   predicted    -0.2929488E-05 ( -56.33%)
   displ. norm   :     0.0559335 α      lambda       -0.8699473E-05
   maximum displ.:     0.0247991 α      in ANC's #5, #15, #11, ...

........................................................................
.............................. CYCLE   23 ..............................
........................................................................
   1    -83.7733303 -0.837733E+02  0.243E-03    2.39       0.0  T
   2    -83.7733306 -0.335476E-06  0.119E-03    2.39      13.0  T
   3    -83.7733307 -0.406260E-07  0.594E-04    2.39      26.0  T
   4    -83.7733307 -0.782819E-09  0.293E-04    2.39      52.7  T
   5    -83.7733307 -0.410111E-09  0.514E-05    2.39     300.0  T
   6    -83.7733307 -0.717364E-10  0.109E-05    2.39    1419.4  T
     SCC iter.                  ...        0 min,  0.029 sec
     gradient                   ...        0 min,  0.053 sec
 * total energy  :   -82.9935106 Eh     change       -0.9311239E-05 Eh
   gradient norm :     0.0011360 Eh/α   predicted    -0.4356005E-05 ( -53.22%)
   displ. norm   :     0.0875965 α      lambda       -0.8938552E-05
   maximum displ.:     0.0407280 α      in ANC's #5, #15, #17, ...

........................................................................
.............................. CYCLE   24 ..............................
........................................................................
   1    -83.7731939 -0.837732E+02  0.157E-03    2.39       0.0  T
   2    -83.7731940 -0.102324E-06  0.727E-04    2.39      21.2  T
   3    -83.7731940 -0.906789E-08  0.389E-04    2.39      39.6  T
   4    -83.7731940 -0.514973E-09  0.165E-04    2.39      93.4  T
   5    -83.7731940 -0.269551E-09  0.348E-05    2.39     442.9  T
     SCC iter.                  ...        0 min,  0.025 sec
     gradient                   ...        0 min,  0.055 sec
 * total energy  :   -82.9935211 Eh     change       -0.1051716E-04 Eh
   gradient norm :     0.0019222 Eh/α   predicted    -0.4490817E-05 ( -57.30%)
   displ. norm   :     0.2025310 α      lambda       -0.1846048E-04
   maximum displ.:     0.0960765 α      in ANC's #5, #15, #17, ...

........................................................................
.............................. CYCLE   25 ..............................
........................................................................
   1    -83.7724607 -0.837725E+02  0.272E-03    2.39       0.0  T
   2    -83.7724609 -0.122604E-06  0.131E-03    2.39      11.8  T
   3    -83.7724609 -0.556859E-08  0.637E-04    2.39      24.2  T
   4    -83.7724609 -0.138751E-08  0.161E-04    2.39      96.1  T
   5    -83.7724609 -0.436643E-09  0.531E-05    2.39     290.3  T
     SCC iter.                  ...        0 min,  0.025 sec
     gradient                   ...        0 min,  0.053 sec
 * total energy  :   -82.9935410 Eh     change       -0.1987579E-04 Eh
   gradient norm :     0.0030843 Eh/α   predicted    -0.9400158E-05 ( -52.71%)
   displ. norm   :     0.0984625 α      lambda       -0.1692284E-04
   maximum displ.:     0.0463149 α      in ANC's #5, #17, #15, ...

........................................................................
.............................. CYCLE   26 ..............................
........................................................................
   1    -83.7723206 -0.837723E+02  0.132E-03    2.39       0.0  T
   2    -83.7723207 -0.880790E-07  0.664E-04    2.39      23.2  T
   3    -83.7723207 -0.108217E-07  0.329E-04    2.39      46.9  T
   4    -83.7723207 -0.221888E-09  0.136E-04    2.39     113.2  T
   5    -83.7723207 -0.228738E-09  0.321E-05    2.39     481.1  T
     SCC iter.                  ...        0 min,  0.025 sec
     gradient                   ...        0 min,  0.054 sec
 * total energy  :   -82.9935533 Eh     change       -0.1228746E-04 Eh
   gradient norm :     0.0029330 Eh/α   predicted    -0.8546264E-05 ( -30.45%)
   displ. norm   :     0.0838449 α      lambda       -0.3443372E-04
   maximum displ.:     0.0347816 α      in ANC's #5, #17, #4, ...

........................................................................
.............................. CYCLE   27 ..............................
........................................................................
   1    -83.7731203 -0.837731E+02  0.405E-03    2.39       0.0  T
   2    -83.7731211 -0.709219E-06  0.205E-03    2.39       7.5  T
   3    -83.7731211 -0.891589E-07  0.109E-03    2.39      14.2  T
   4    -83.7731212 -0.401586E-08  0.416E-04    2.39      37.1  T
   5    -83.7731212 -0.149507E-08  0.827E-05    2.39     186.6  T
   6    -83.7731212 -0.158792E-09  0.199E-05    2.39     775.6  T
     SCC iter.                  ...        0 min,  0.021 sec
     gradient                   ...        0 min,  0.049 sec
 * total energy  :   -82.9935743 Eh     change       -0.2095501E-04 Eh
   gradient norm :     0.0009485 Eh/α   predicted    -0.1733884E-04 ( -17.26%)
   displ. norm   :     0.1360854 α      lambda       -0.1067163E-04
   maximum displ.:     0.0606424 α      in ANC's #5, #17, #6, ...

........................................................................
.............................. CYCLE   28 ..............................
........................................................................
   1    -83.7727888 -0.837728E+02  0.243E-03    2.40       0.0  T
   2    -83.7727890 -0.198471E-06  0.120E-03    2.40      12.9  T
   3    -83.7727891 -0.143759E-07  0.644E-04    2.40      23.9  T
   4    -83.7727891 -0.782734E-09  0.217E-04    2.40      71.1  T
   5    -83.7727891 -0.833552E-09  0.512E-05    2.40     301.1  T
   6    -83.7727891 -0.437836E-10  0.170E-05    2.40     908.6  T
     SCC iter.                  ...        0 min,  0.035 sec
     gradient                   ...        0 min,  0.063 sec
 * total energy  :   -82.9935824 Eh     change       -0.8088578E-05 Eh
   gradient norm :     0.0019183 Eh/α   predicted    -0.5399049E-05 ( -33.25%)
   displ. norm   :     0.0309299 α      lambda       -0.7550008E-05
   maximum displ.:     0.0142678 α      in ANC's #15, #17, #11, ...

........................................................................
.............................. CYCLE   29 ..............................
........................................................................
   1    -83.7734131 -0.837734E+02  0.191E-03    2.40       0.0  T
   2    -83.7734131 -0.349077E-07  0.983E-04    2.40      15.7  T
   3    -83.7734131 -0.184723E-08  0.470E-04    2.40      32.8  T
   4    -83.7734131 -0.281320E-08  0.104E-04    2.40     148.1  T
   5    -83.7734131 -0.187242E-09  0.326E-05    2.40     474.0  T
     SCC iter.                  ...        0 min,  0.029 sec
     gradient                   ...        0 min,  0.062 sec
 * total energy  :   -82.9935887 Eh     change       -0.6310654E-05 Eh
   gradient norm :     0.0013368 Eh/α   predicted    -0.3814354E-05 ( -39.56%)
   displ. norm   :     0.0641586 α      lambda       -0.6308646E-05
   maximum displ.:     0.0345481 α      in ANC's #17, #6, #5, ...

........................................................................
.............................. CYCLE   30 ..............................
........................................................................
   1    -83.7732388 -0.837732E+02  0.166E-03    2.40       0.0  T
   2    -83.7732389 -0.138709E-06  0.765E-04    2.40      20.2  T
   3    -83.7732390 -0.161476E-07  0.391E-04    2.40      39.4  T
   4    -83.7732390 -0.761148E-09  0.176E-04    2.40      87.8  T
   5    -83.7732390 -0.188436E-09  0.373E-05    2.40     413.3  T
     SCC iter.                  ...        0 min,  0.030 sec
     gradient                   ...        0 min,  0.062 sec
 * total energy  :   -82.9935959 Eh     change       -0.7233053E-05 Eh
   gradient norm :     0.0007464 Eh/α   predicted    -0.3192693E-05 ( -55.86%)
   displ. norm   :     0.0885770 α      lambda       -0.7336620E-05
   maximum displ.:     0.0465585 α      in ANC's #17, #6, #12, ...

........................................................................
.............................. CYCLE   31 ..............................
........................................................................
   1    -83.7730127 -0.837730E+02  0.177E-03    2.39       0.0  T
   2    -83.7730128 -0.138289E-06  0.795E-04    2.39      19.4  T
   3    -83.7730128 -0.116584E-07  0.442E-04    2.39      34.9  T
   4    -83.7730128 -0.959844E-09  0.192E-04    2.39      80.2  T
   5    -83.7730128 -0.341984E-09  0.417E-05    2.39     370.1  T
     SCC iter.                  ...        0 min,  0.030 sec
     gradient                   ...        0 min,  0.064 sec
 * total energy  :   -82.9936027 Eh     change       -0.6779618E-05 Eh
   gradient norm :     0.0011048 Eh/α   predicted    -0.3686089E-05 ( -45.63%)
   displ. norm   :     0.0595525 α      lambda       -0.3616290E-05
   maximum displ.:     0.0283115 α      in ANC's #17, #12, #6, ...

........................................................................
.............................. CYCLE   32 ..............................
........................................................................
   1    -83.7729306 -0.837729E+02  0.623E-04    2.39       0.0  T
   2    -83.7729306 -0.103909E-07  0.274E-04    2.39      56.2  T
   3    -83.7729306 -0.707288E-09  0.135E-04    2.39     114.5  T
   4    -83.7729306 -0.722622E-10  0.481E-05    2.39     320.6  T
     SCC iter.                  ...        0 min,  0.025 sec
     gradient                   ...        0 min,  0.063 sec
 * total energy  :   -82.9936066 Eh     change       -0.3955017E-05 Eh
   gradient norm :     0.0011378 Eh/α   predicted    -0.1812722E-05 ( -54.17%)
   displ. norm   :     0.0966539 α      lambda       -0.4989441E-05
   maximum displ.:     0.0446796 α      in ANC's #17, #12, #6, ...

........................................................................
.............................. CYCLE   33 ..............................
........................................................................
   1    -83.7728369 -0.837728E+02  0.126E-03    2.39       0.0  T
   2    -83.7728370 -0.616089E-07  0.568E-04    2.39      27.2  T
   3    -83.7728370 -0.720939E-08  0.291E-04    2.39      53.1  T
   4    -83.7728370 -0.587832E-09  0.111E-04    2.39     138.4  T
   5    -83.7728370 -0.102176E-09  0.312E-05    2.39     495.2  T
     SCC iter.                  ...        0 min,  0.030 sec
     gradient                   ...        0 min,  0.063 sec
 * total energy  :   -82.9936119 Eh     change       -0.5232734E-05 Eh
   gradient norm :     0.0010677 Eh/α   predicted    -0.2505735E-05 ( -52.11%)
   displ. norm   :     0.0774563 α      lambda       -0.4268178E-05
   maximum displ.:     0.0317162 α      in ANC's #17, #12, #5, ...

........................................................................
.............................. CYCLE   34 ..............................
........................................................................
   1    -83.7729904 -0.837730E+02  0.119E-03    2.39       0.0  T
   2    -83.7729904 -0.534041E-07  0.566E-04    2.39      27.2  T
   3    -83.7729904 -0.634392E-08  0.315E-04    2.39      48.9  T
   4    -83.7729904 -0.755179E-09  0.111E-04    2.39     138.9  T
   5    -83.7729904 -0.771934E-10  0.277E-05    2.39     556.7  T
     SCC iter.                  ...        0 min,  0.029 sec
     gradient                   ...        0 min,  0.062 sec
 * total energy  :   -82.9936160 Eh     change       -0.4149249E-05 Eh
   gradient norm :     0.0008429 Eh/α   predicted    -0.2143883E-05 ( -48.33%)
   displ. norm   :     0.0763231 α      lambda       -0.3051172E-05
   maximum displ.:     0.0370670 α      in ANC's #5, #17, #6, ...

   *** GEOMETRY OPTIMIZATION CONVERGED AFTER 34 ITERATIONS ***

------------------------------------------------------------------------
 total energy gain   :        -0.0258124 Eh      -16.1975 kcal/mol
 total RMSD          :         0.4276601 a0        0.2263 Å
 total power (kW/mol):        -1.9932498 (step)  -17.4637 (real)
------------------------------------------------------------------------

 ANCopt (total)                0 d,  0 h,  0 min,  3.881 sec
 optimizer setup                ...        0 min,  0.001 sec (  0.020%)
 model hessian                  ...        0 min,  0.042 sec (  1.077%)
 ANC generation                 ...        0 min,  0.005 sec (  0.131%)
 coordinate transformation      ...        0 min,  0.001 sec (  0.019%)
 single point calculation       ...        0 min,  3.819 sec ( 98.411%)
 optimization log               ...        0 min,  0.007 sec (  0.187%)
 hessian update                 ...        0 min,  0.001 sec (  0.019%)
 rational function              ...        0 min,  0.003 sec (  0.089%)

================
 final structure:
================
42
 xtb: 6.5.1 (579679a)
C           -3.42314248541097        1.57096950751536        1.61234413959011
O           -4.32027463284292        1.16941144107318        0.57813443003419
C           -4.04040694593545        0.32099833396170       -0.39562472724282
O           -5.04576843023616        0.12108801070554       -1.22128333095820
C           -6.28093814285781        0.80809523299922       -1.00707274133199
C           -2.83642798562714       -0.35470041064326       -0.62099909746675
N           -1.79390028066280       -0.12319499030773        0.27305076525431
C           -0.66794284557429       -0.71054364970594        0.12522297227708
C            0.46258692460587       -0.50380846062093        1.11145165408792
C            0.21931737417026        0.73813193550226        1.97107741385284
C            0.57499552358838       -1.76303417991281        1.98382166172016
N            1.68762157927895       -0.32448732114627        0.32199201895846
C            2.91209808440545       -0.17950844801495        0.87884210516164
O            3.17822519686910       -0.31091542681650        2.05893318709609
C            3.92390808413433        0.14826177525693       -0.15860681493362
N            3.69744740129124        0.30707316176696       -1.42815003554270
N            4.89429117613658        0.60520309757482       -2.00643833826036
C            5.77490499916929        0.61166104984902       -1.05158502187928
C            7.22332665753208        0.89267306738389       -1.15936810714972
O            5.22323682146109        0.33024713165164        0.13795124702833
N           -0.42041612413801       -1.60189223497812       -0.89583212621287
C           -1.33299358496939       -1.93834033698103       -1.86079251871686
O           -1.05233798360694       -2.73476032287219       -2.73708763325676
C           -2.68601898957687       -1.25223131385806       -1.74339157136299
O           -3.54688947913932       -1.49436174221981       -2.58140525284712
H           -3.11071817796330        0.71056285461242        2.20569705003121
H           -3.98444701028114        2.27032787180014        2.23213007526754
H           -2.54610283111849        2.06382425239519        1.19079023917583
H           -6.12745509829415        1.88758292949012       -1.06304270519637
H           -6.69441975648911        0.54884809332228       -0.03047585545277
H           -6.94997260535352        0.47948133661365       -1.80053469810620
H            0.11659662026804        1.61776851801851        1.33794091373757
H           -0.69454925010333        0.60647709638097        2.54671607114831
H            1.05179612024422        0.88425196431494        2.65699069925299
H            1.33374966143261       -1.62545065956301        2.75144996117135
H            0.84043554053381       -2.62194918733010        1.36955897844014
H           -0.38422520045051       -1.95125791654892        2.46379075394335
H            1.58588982205820       -0.04953363649047       -0.64424631807015
H            7.46014916888656        1.82047614163087       -0.63707467865620
H            7.79528067379423        0.08932412111630       -0.69526147825230
H            7.50147737046096        0.98678711485158       -2.20657202341853
H            0.48201404030736       -2.04955580177677       -0.94652626291636
 
 Bond Distances (Angstroems)
 ---------------------------
C1-O2=1.4268         C1-H26=1.0909        C1-H27=1.0901        C1-H28=1.0908        O2-C1=1.4268         O2-C3=1.3215         
C3-O2=1.3215         C3-O4=1.3162         C3-C6=1.3989         O4-C3=1.3162         O4-C5=1.4295         C5-O4=1.4295         
C5-H29=1.0918        C5-H30=1.0917        C5-H31=1.0887        C6-C3=1.3989         C6-N7=1.3928         C6-C24=1.4450        
N7-C6=1.3928         N7-C8=1.2785         C8-N7=1.2785         C8-C9=1.5144         C8-N21=1.3778        C9-C8=1.5144         
C9-C10=1.5299        C9-C11=1.5360        C9-N12=1.4684        C10-C9=1.5299        C10-H32=1.0887       C10-H33=1.0880       
C10-H34=1.0885       C11-C9=1.5360        C11-H35=1.0881       C11-H36=1.0888       C11-H37=1.0890       N12-C9=1.4684        
N12-C13=1.3529       N12-H38=1.0097       C13-N12=1.3529       C13-O14=1.2168       C13-C15=1.4858       O14-C13=1.2168       
C15-C13=1.4858       C15-N16=1.2993       C15-O20=1.3451       N16-C15=1.2993       N16-N17=1.3623       N17-N16=1.3623       
N17-C18=1.2989       C18-N17=1.2989       C18-C19=1.4794       C18-O20=1.3411       C19-C18=1.4794       C19-H39=1.0907       
C19-H40=1.0899       C19-H41=1.0876       O20-C15=1.3451       O20-C18=1.3411       N21-C8=1.3778        N21-C22=1.3701       
N21-H42=1.0086       C22-N21=1.3701       C22-O23=1.2169       C22-C24=1.5216       O23-C22=1.2169       C24-C6=1.4450        
C24-C22=1.5216       C24-O25=1.2256       O25-C24=1.2256       H26-C1=1.0909        H27-C1=1.0901        H28-C1=1.0908        
H29-C5=1.0918        H30-C5=1.0917        H31-C5=1.0887        H32-C10=1.0887       H33-C10=1.0880       H34-C10=1.0885       
H35-C11=1.0881       H36-C11=1.0888       H37-C11=1.0890       H38-N12=1.0097       H39-C19=1.0907       H40-C19=1.0899       
H41-C19=1.0876       H42-N21=1.0086       
 C  H  Rav=1.0895 sigma=0.0013  Rmin=1.0876  Rmax=1.0918    15
 C  C  Rav=1.4889 sigma=0.0444  Rmin=1.3989  Rmax=1.5360     8
 N  H  Rav=1.0092 sigma=0.0005  Rmin=1.0086  Rmax=1.0097     2
 N  C  Rav=1.3548 sigma=0.0582  Rmin=1.2785  Rmax=1.4684     8
 N  N  Rav=1.3623 sigma=0.0000  Rmin=1.3623  Rmax=1.3623     1
 O  C  Rav=1.3155 sigma=0.0778  Rmin=1.2168  Rmax=1.4295     9
 
 selected bond angles (degree)
 --------------------
H26-C1-O2=110.63               H27-C1-O2=105.60               H27-C1-H26=110.14              H28-C1-O2=110.65               
H28-C1-H26=109.65              H28-C1-H27=110.11              C3-O2-C1=125.57                O4-C3-O2=113.45                
C6-C3-O2=127.67                C6-C3-O4=118.88                C5-O4-C3=119.54                H29-C5-O4=110.24               
H30-C5-O4=110.31               H30-C5-H29=109.50              H31-C5-O4=106.06               H31-C5-H29=110.33              
H31-C5-H30=110.34              N7-C6-C3=117.42                C24-C6-C3=120.98               C24-C6-N7=121.60               
C8-N7-C6=120.57                C9-C8-N7=121.29                N21-C8-N7=122.76               N21-C8-C9=115.90               
C10-C9-C8=110.98               C11-C9-C8=108.21               C11-C9-C10=110.98              N12-C9-C8=106.82               
N12-C9-C10=109.61              N12-C9-C11=110.15              H32-C10-C9=110.13              H33-C10-C9=109.43              
H33-C10-H32=109.04             H34-C10-C9=109.96              H34-C10-H32=109.28             H34-C10-H33=108.98             
 
 selected dihedral angles (degree)
 ---------------------------------
C3-O2-C1-H26=299.18           C3-O2-C1-H27=180.04           C3-O2-C1-H28= 60.91           O4-C3-O2-C1=179.99            
C6-C3-O2-C1=  0.11            C5-O4-C3-O2=  0.34            C5-O4-C3-C6=180.23            H29-C5-O4-C3= 60.98           
H30-C5-O4-C3=299.92           H31-C5-O4-C3=180.43           N7-C6-C3-O2=  0.02            N7-C6-C3-O4=180.15            
C24-C6-C3-O2=180.28           C24-C6-C3-O4=  0.41           C8-N7-C6-C3=179.90            C8-N7-C6-C24=359.64           
C9-C8-N7-C6=181.91            N21-C8-N7-C6=359.30           C10-C9-C8-N7=343.22           C10-C9-C8-N21=165.66          
C11-C9-C8-N7=105.22           C11-C9-C8-N21=287.66          N12-C9-C8-N7=223.79           N12-C9-C8-N21= 46.23          
H32-C10-C9-C8=301.81          H32-C10-C9-C11=181.44         H32-C10-C9-N12= 59.56         H33-C10-C9-C8= 61.66          
H33-C10-C9-C11=301.29         H33-C10-C9-N12=179.40         H34-C10-C9-C8=181.33          H34-C10-C9-C11= 60.96         
H34-C10-C9-N12=299.07         
           -------------------------------------------------
          |                Final Singlepoint                |
           -------------------------------------------------

          ...................................................
          :                      SETUP                      :
          :.................................................:
          :  # basis functions                 134          :
          :  # atomic orbitals                 134          :
          :  # shells                           84          :
          :  # electrons                       134          :
          :  # halogen bonds                     0          :
          :  max. iterations                   250          :
          :  Hamiltonian                  GFN1-xTB          :
          :  restarted?                      false          :
          :  GBSA solvation                   true          :
          :  PC potential                    false          :
          :  electronic temp.          300.0000000     K    :
          :  accuracy                    1.0000000          :
          :  -> integral cutoff          0.2500000E+02      :
          :  -> integral neglect         0.1000000E-07      :
          :  -> SCF convergence          0.1000000E-05 Eh   :
          :  -> wf. convergence          0.2000000E-04 e    :
          :  Broyden damping             0.4000000          :
          ...................................................

 iter      E             dE          RMSdq      gap      omega  full diag
   1    -83.7729904 -0.837730E+02  0.809E-06    2.39       0.0  T
   2    -83.7729904 -0.639488E-12  0.429E-06    2.39    3599.2  T
   3    -83.7729904 -0.198952E-12  0.187E-06    2.39    8231.5  T

   *** convergence criteria satisfied after 3 iterations ***

         #    Occupation            Energy/Eh            Energy/eV
      -------------------------------------------------------------
         1        2.0000           -0.8634792             -23.4965
       ...           ...                  ...                  ...
        61        2.0000           -0.4659174             -12.6783
        62        2.0000           -0.4611577             -12.5487
        63        2.0000           -0.4537658             -12.3476
        64        2.0000           -0.4508064             -12.2671
        65        2.0000           -0.4473859             -12.1740
        66        2.0000           -0.4210138             -11.4564
        67        2.0000           -0.4151292             -11.2962 (HOMO)
        68                         -0.3271953              -8.9034 (LUMO)
        69                         -0.3112486              -8.4695
        70                         -0.2748449              -7.4789
        71                         -0.2567468              -6.9864
        72                         -0.2482212              -6.7544
       ...                                ...                  ...
       134                          0.7554679              20.5573
      -------------------------------------------------------------
                  HL-Gap            0.0879339 Eh            2.3928 eV
             Fermi-level           -0.3711623 Eh          -10.0998 eV

 SCC (total)                   0 d,  0 h,  0 min,  0.112 sec
 SCC setup                      ...        0 min,  0.002 sec (  1.624%)
 Dispersion                     ...        0 min,  0.000 sec (  0.222%)
 classical contributions        ...        0 min,  0.000 sec (  0.088%)
 integral evaluation            ...        0 min,  0.027 sec ( 24.414%)
 iterations                     ...        0 min,  0.018 sec ( 16.447%)
 molecular gradient             ...        0 min,  0.063 sec ( 55.969%)
 printout                       ...        0 min,  0.001 sec (  1.203%)

         :::::::::::::::::::::::::::::::::::::::::::::::::::::
         ::                     SUMMARY                     ::
         :::::::::::::::::::::::::::::::::::::::::::::::::::::
         :: total energy             -82.993616012704 Eh    ::
         :: total w/o Gsasa/hb       -82.972426807700 Eh    ::
         :: gradient norm              0.000843586874 Eh/a0 ::
         :: HOMO-LUMO gap              2.392804295491 eV    ::
         ::.................................................::
         :: SCC energy               -83.772990419578 Eh    ::
         :: -> electrostatic           0.354922956185 Eh    ::
         :: -> Gsolv                  -0.060706492025 Eh    ::
         ::    -> Gelec               -0.039517287021 Eh    ::
         ::    -> Gsasa               -0.024690828339 Eh    ::
         ::    -> Ghb                 -0.004122655670 Eh    ::
         ::    -> Gshift               0.007624279005 Eh    ::
         :: repulsion energy           0.805199478771 Eh    ::
         :: dispersion energy         -0.025825071898 Eh    ::
         :: halogen bond corr.         0.000000000000 Eh    ::
         :: add. restraining           0.000000000000 Eh    ::
         :: total charge              -0.000000000000 e     ::
         :::::::::::::::::::::::::::::::::::::::::::::::::::::

           -------------------------------------------------
          |                Property Printout                |
           -------------------------------------------------

    * Orbital Energies and Occupations

         #    Occupation            Energy/Eh            Energy/eV
      -------------------------------------------------------------
         1        2.0000           -0.8634792             -23.4965
       ...           ...                  ...                  ...
        55        2.0000           -0.5056963             -13.7607
        56        2.0000           -0.5046841             -13.7332
        57        2.0000           -0.5006762             -13.6241
        58        2.0000           -0.4958522             -13.4928
        59        2.0000           -0.4825148             -13.1299
        60        2.0000           -0.4789830             -13.0338
        61        2.0000           -0.4659174             -12.6783
        62        2.0000           -0.4611577             -12.5487
        63        2.0000           -0.4537658             -12.3476
        64        2.0000           -0.4508064             -12.2671
        65        2.0000           -0.4473859             -12.1740
        66        2.0000           -0.4210138             -11.4564
        67        2.0000           -0.4151292             -11.2962 (HOMO)
        68                         -0.3271953              -8.9034 (LUMO)
        69                         -0.3112486              -8.4695
        70                         -0.2748449              -7.4789
        71                         -0.2567468              -6.9864
        72                         -0.2482212              -6.7544
        73                         -0.1992378              -5.4215
        74                         -0.1559807              -4.2445
        75                         -0.1522303              -4.1424
        76                         -0.1431325              -3.8948
        77                         -0.1417931              -3.8584
        78                         -0.1253529              -3.4110
       ...                                ...                  ...
       134                          0.7554679              20.5573
      -------------------------------------------------------------
                  HL-Gap            0.0879339 Eh            2.3928 eV
             Fermi-level           -0.3711623 Eh          -10.0998 eV

  Mulliken/CM5 charges         n(s)   n(p)   n(d)
     1C     0.16469  0.04498   0.985  2.850  0.000
     2O    -0.39435 -0.48612   1.666  4.728  0.000
     3C     0.52396  0.58234   0.973  2.503  0.000
     4O    -0.37244 -0.45807   1.667  4.706  0.000
     5C     0.16123  0.04074   0.983  2.856  0.000
     6C     0.00839  0.08149   1.027  2.965  0.000
     7N    -0.38912 -0.58295   1.529  3.860  0.000
     8C     0.27042  0.42164   1.012  2.717  0.000
     9C     0.15191  0.19156   1.065  2.783  0.000
    10C    -0.10218 -0.24113   1.018  3.085  0.000
    11C    -0.10467 -0.24415   1.020  3.084  0.000
    12N    -0.35360 -0.70633   1.436  3.918  0.000
    13C     0.47322  0.58130   0.976  2.551  0.000
    14O    -0.56441 -0.61049   1.725  4.840  0.000
    15C     0.33335  0.45896   1.007  2.659  0.000
    16N    -0.24203 -0.35295   1.568  3.674  0.000
    17N    -0.26321 -0.37062   1.564  3.699  0.000
    18C     0.38901  0.49742   1.008  2.603  0.000
    19C    -0.11112 -0.24837   1.012  3.099  0.000
    20O    -0.33763 -0.38923   1.691  4.647  0.000
    21N    -0.30961 -0.65600   1.435  3.875  0.000
    22C     0.44881  0.55344   1.005  2.546  0.000
    23O    -0.56021 -0.59861   1.728  4.832  0.000
    24C     0.32706  0.37399   1.042  2.631  0.000
    25O    -0.55602 -0.59585   1.735  4.821  0.000
    26H     0.05207  0.11664   0.948  0.000  0.000
    27H     0.06448  0.12506   0.936  0.000  0.000
    28H     0.05170  0.11630   0.948  0.000  0.000
    29H     0.05695  0.11939   0.943  0.000  0.000
    30H     0.05710  0.11968   0.943  0.000  0.000
    31H     0.06385  0.12444   0.936  0.000  0.000
    32H     0.04397  0.10197   0.956  0.000  0.000
    33H     0.04379  0.10139   0.956  0.000  0.000
    34H     0.06143  0.12100   0.939  0.000  0.000
    35H     0.06654  0.12708   0.933  0.000  0.000
    36H     0.04630  0.10480   0.954  0.000  0.000
    37H     0.04610  0.10117   0.954  0.000  0.000
    38H     0.25250  0.46231   0.747  0.000  0.000
    39H     0.07964  0.13393   0.920  0.000  0.000
    40H     0.07855  0.13317   0.921  0.000  0.000
    41H     0.06952  0.12526   0.930  0.000  0.000
    42H     0.27404  0.47942   0.726  0.000  0.000

Wiberg/Mayer (AO) data.
largest (>0.10) Wiberg bond orders for each atom

 ---------------------------------------------------------------------------
     #   Z sym  total        # sym  WBO       # sym  WBO       # sym  WBO
 ---------------------------------------------------------------------------
     1   6 C    3.853 --    27 H    0.981    28 H    0.976    26 H    0.976
                             2 O    0.882
     2   8 O    2.224 --     3 C    1.133     1 C    0.882
     3   6 C    3.833 --     6 C    1.333     4 O    1.154     2 O    1.133
     4   8 O    2.239 --     3 C    1.154     5 C    0.888
     5   6 C    3.861 --    31 H    0.984    30 H    0.978    29 H    0.978
                             4 O    0.888
     6   6 C    3.922 --     3 C    1.333    24 C    1.164     7 N    1.107
     7   7 N    3.044 --     8 C    1.656     6 C    1.107
     8   6 C    3.932 --     7 N    1.656    21 N    1.104     9 C    0.979
     9   6 C    3.934 --    10 C    0.992     8 C    0.979    11 C    0.979
                            12 N    0.920
    10   6 C    3.990 --     9 C    0.992    32 H    0.984    33 H    0.982
                            34 H    0.981
    11   6 C    3.986 --    37 H    0.985    36 H    0.984     9 C    0.979
                            35 H    0.978
    12   7 N    3.331 --    13 C    1.241     9 C    0.920    38 H    0.895
                            14 O    0.174
    13   6 C    3.916 --    14 O    1.602    12 N    1.241    15 C    0.989
    14   8 O    1.918 --    13 C    1.602    12 N    0.174
    15   6 C    3.875 --    16 N    1.610    20 O    1.065    13 C    0.989
    16   7 N    3.017 --    15 C    1.610    17 N    1.201
    17   7 N    2.981 --    18 C    1.604    16 N    1.201
    18   6 C    3.871 --    17 N    1.604    20 O    1.083    19 C    1.031
    19   6 C    3.986 --    18 C    1.031    41 H    0.982    40 H    0.966
                            39 H    0.961
    20   8 O    2.331 --    18 C    1.083    15 C    1.065
    21   7 N    3.435 --    22 C    1.159     8 C    1.104    42 H    0.886
                            23 O    0.138
    22   6 C    3.882 --    23 O    1.637    21 N    1.159    24 C    0.940
    23   8 O    1.915 --    22 C    1.637    21 N    0.138
    24   6 C    3.920 --    25 O    1.634     6 C    1.164    22 C    0.940
    25   8 O    1.920 --    24 C    1.634
    26   1 H    1.020 --     1 C    0.976
    27   1 H    1.008 --     1 C    0.981
    28   1 H    1.020 --     1 C    0.976
    29   1 H    1.005 --     5 C    0.978
    30   1 H    1.005 --     5 C    0.978
    31   1 H    1.008 --     5 C    0.984
    32   1 H    1.004 --    10 C    0.984
    33   1 H    1.007 --    10 C    0.982
    34   1 H    1.005 --    10 C    0.981
    35   1 H    1.010 --    11 C    0.978
    36   1 H    1.001 --    11 C    0.984
    37   1 H    1.002 --    11 C    0.985
    38   1 H    0.952 --    12 N    0.895
    39   1 H    0.997 --    19 C    0.961
    40   1 H    0.997 --    19 C    0.966
    41   1 H    0.998 --    19 C    0.982
    42   1 H    0.934 --    21 N    0.886
 ---------------------------------------------------------------------------

Topologies differ in total number of bonds
Writing topology from bond orders to xtbtopo.mol

 dipole moment from electron density (au)
     X       Y       Z   
   0.6211   2.8452   2.9904  total (Debye):   10.610

           -------------------------------------------------
          |                Geometry Summary                 |
           -------------------------------------------------

      molecular mass/u    :      351.3152409
   center of mass at/Å    :        0.0554527      -0.2171200      -0.3003491
  moments of inertia/u·Å² :        0.1129002E+04   0.5164368E+04   0.5635021E+04
rotational constants/cm⁻¹ :        0.1493144E-01   0.3264220E-02   0.2991583E-02

 * 37 selected distances

     #   Z          #   Z                                           value/Å
     1   6 C        2   8 O                                       1.4267744
     2   8 O        3   6 C                                       1.3214908
     3   6 C        4   8 O                                       1.3162174
     4   8 O        5   6 C                                       1.4295138
     3   6 C        6   6 C                                       1.3989025
     7   7 N        8   6 C                                       1.2785194
     9   6 C       10   6 C                                       1.5298866
     9   6 C       11   6 C                                       1.5360062 (max)
     9   6 C       12   7 N                                       1.4683708
    12   7 N       13   6 C                                       1.3529390
    13   6 C       14   8 O                                       1.2168429
    15   6 C       16   7 N                                       1.2993251
    17   7 N       18   6 C                                       1.2989486
    18   6 C       19   6 C                                       1.4793616
    15   6 C       20   8 O                                       1.3451100
    18   6 C       20   8 O                                       1.3410923
     8   6 C       21   7 N                                       1.3777974
    21   7 N       22   6 C                                       1.3700890
    22   6 C       23   8 O                                       1.2169412
    24   6 C       25   8 O                                       1.2255580
     1   6 C       26   1 H                                       1.0908604
     1   6 C       27   1 H                                       1.0900916
     1   6 C       28   1 H                                       1.0907852
     5   6 C       29   1 H                                       1.0917800
     5   6 C       30   1 H                                       1.0917499
     5   6 C       31   1 H                                       1.0886580
    10   6 C       32   1 H                                       1.0886570
    10   6 C       33   1 H                                       1.0880465
    10   6 C       34   1 H                                       1.0885078
    11   6 C       35   1 H                                       1.0880673
    11   6 C       36   1 H                                       1.0888123
    11   6 C       37   1 H                                       1.0889918
    12   7 N       38   1 H                                       1.0097354
    19   6 C       39   1 H                                       1.0907310
    19   6 C       40   1 H                                       1.0899065
    19   6 C       41   1 H                                       1.0875944
    21   7 N       42   1 H                                       1.0086392 (min)

 * 5 distinct bonds (by element types)

   Z      Z             #   av. dist./Å        max./Å        min./Å
   1 H    6 C          15     1.0895493     1.0917800     1.0875944
   6 C    6 C           4     1.4860392     1.5360062     1.3989025
   1 H    7 N           2     1.0091873     1.0097354     1.0086392
   6 C    7 N           7     1.3494271     1.4683708     1.2785194
   6 C    8 O           9     1.3155045     1.4295138     1.2168429


optimized geometry written to: xtbopt.xyz


           -------------------------------------------------
          | TOTAL ENERGY              -82.993616012704 Eh   |
          | GRADIENT NORM               0.000843586874 Eh/α |
          | HOMO-LUMO GAP               2.392804295491 eV   |
           -------------------------------------------------

------------------------------------------------------------------------
 * finished run on 2023/06/21 at 17:20:19.280     
------------------------------------------------------------------------
 total:
 * wall-time:     0 d,  0 h,  0 min,  4.260 sec
 *  cpu-time:     0 d,  0 h,  0 min,  4.185 sec
 * ratio c/w:     0.983 speedup
 SCF:
 * wall-time:     0 d,  0 h,  0 min,  0.153 sec
 *  cpu-time:     0 d,  0 h,  0 min,  0.152 sec
 * ratio c/w:     0.997 speedup
 ANC optimizer:
 * wall-time:     0 d,  0 h,  0 min,  4.009 sec
 *  cpu-time:     0 d,  0 h,  0 min,  3.990 sec
 * ratio c/w:     0.995 speedup

