43
 energy: -76.186174691180 gnorm: 0.000408079666 xtb: 6.5.1 (579679a)
C           -3.99967579659220        2.10695395216117        0.74952898783353
N           -2.69018159385991        1.77023779666908        0.18248460674717
C           -2.17847943068154        0.50189082908674        0.13487153179611
C           -2.95801609167584       -0.71718135537066        0.61498103033582
C           -2.04079286679016       -1.94996023320586        0.58454065687599
C           -4.15859201859647       -0.96480277112748       -0.30951951875830
N           -3.43342560800177       -0.50166071268804        1.98086178948997
N           -1.00506985290591        0.26661999606518       -0.36964004542106
C           -0.24189168421891        1.28364162352203       -0.86627460275096
C            1.09465401776296        0.93155316299106       -1.40363777130864
O            1.85483350877559        1.78519748315697       -1.87315158114156
N            1.39693206938845       -0.37228287868751       -1.34657624802471
C            2.67858751259137       -0.89068831514406       -1.80626934234194
C            3.67158531670723       -0.96858781487095       -0.66553793508899
C            4.07073583477216       -2.20168074732203       -0.15789615720964
C            4.97550438420652       -2.27388023554118        0.89335916907543
C            5.46218292539180       -1.09244008992951        1.42111224347102
F            6.33586265423812       -1.15383997127424        2.43969738279383
C            5.08797458772998        0.15004200722140        0.94030426500496
C            4.18574262709635        0.20319321392854       -0.11182298422472
C           -0.69468178000234        2.57650768261378       -0.87168959499574
O            0.01016008994547        3.60734453777458       -1.35646011642712
C           -2.01272279051889        2.87767798735697       -0.33032412545698
O           -2.52697945443025        3.98960544240078       -0.29947693845323
H           -4.33534309282148        1.31614027171018        1.41253831587565
H           -4.71553749686392        2.25803254269834       -0.05923299804385
H           -3.89913468734261        3.03630362001265        1.31210680092862
H           -2.58311335926523       -2.81305958968696        0.96694065893726
H           -1.16350831756464       -1.78028121794364        1.20637444855302
H           -1.71458607291482       -2.15709515385248       -0.43334536532954
H           -4.87525842365968       -0.14776273680860       -0.25753383130602
H           -3.81878296232729       -1.07119454113198       -1.33910320145911
H           -4.66147121509093       -1.88319425333436       -0.00976761276707
H           -2.64108985783841       -0.47337286253313        2.60872750384939
H           -4.00676627611232       -1.28893502591308        2.24955031084742
H            0.74518775698843       -1.00379132835821       -0.90540283763072
H            2.50865254158033       -1.87957183659495       -2.23736327703019
H            3.04908567519016       -0.21527378118118       -2.58460405602101
H            3.67778888915753       -3.11657705115301       -0.58482453783874
H            5.29433928521962       -3.22606107170386        1.29633120353677
H            5.49565507391084        1.05158435097613        1.37922535858366
H            3.87942987311656        1.16377021420817       -0.50955939461293
H            0.88020410630746        3.26687786080828       -1.68452419089329
