      -----------------------------------------------------------      
     |                   =====================                   |     
     |                           x T B                           |     
     |                   =====================                   |     
     |                         S. Grimme                         |     
     |          Mulliken Center for Theoretical Chemistry        |     
     |                    University of Bonn                     |     
      -----------------------------------------------------------      

   * xtb version 6.5.1 (579679a) compiled by 'ehlert@majestix' on 2022-07-11

   xtb is free software: you can redistribute it and/or modify it under
   the terms of the GNU Lesser General Public License as published by
   the Free Software Foundation, either version 3 of the License, or
   (at your option) any later version.
   
   xtb is distributed in the hope that it will be useful,
   but WITHOUT ANY WARRANTY; without even the implied warranty of
   MERCHANTABILITY or FITNESS FOR A PARTICULAR PURPOSE.  See the
   GNU Lesser General Public License for more details.
   
   Cite this work as:
   * C. Bannwarth, E. Caldeweyher, S. Ehlert, A. Hansen, P. Pracht,
     J. Seibert, S. Spicher, S. Grimme, WIREs Comput. Mol. Sci., 2020, 11,
     e01493. DOI: 10.1002/wcms.1493
   
   for GFN2-xTB:
   * C. Bannwarth, S. Ehlert and S. Grimme., J. Chem. Theory Comput., 2019,
     15, 1652-1671. DOI: 10.1021/acs.jctc.8b01176
   for GFN1-xTB:
   * S. Grimme, C. Bannwarth, P. Shushkov, J. Chem. Theory Comput., 2017,
     13, 1989-2009. DOI: 10.1021/acs.jctc.7b00118
   for GFN0-xTB:
   * P. Pracht, E. Caldeweyher, S. Ehlert, S. Grimme, ChemRxiv, 2019, preprint.
     DOI: 10.26434/chemrxiv.8326202.v1
   for GFN-FF:
   * S. Spicher and S. Grimme, Angew. Chem. Int. Ed., 2020, 59, 15665-15673.
     DOI: 10.1002/anie.202004239
   
   for ALPB and GBSA implicit solvation:
   * S. Ehlert, M. Stahn, S. Spicher, S. Grimme, J. Chem. Theory Comput.,
     2021, 17, 4250-4261. DOI: 10.1021/acs.jctc.1c00471
   
   for DFT-D4:
   * E. Caldeweyher, C. Bannwarth and S. Grimme, J. Chem. Phys., 2017,
     147, 034112. DOI: 10.1063/1.4993215
   * E. Caldeweyher, S. Ehlert, A. Hansen, H. Neugebauer, S. Spicher,
     C. Bannwarth and S. Grimme, J. Chem. Phys., 2019, 150, 154122.
     DOI: 10.1063/1.5090222
   * E. Caldeweyher, J.-M. Mewes, S. Ehlert and S. Grimme, Phys. Chem. Chem. Phys.
     2020, 22, 8499-8512. DOI: 10.1039/D0CP00502A
   
   for sTDA-xTB:
   * S. Grimme and C. Bannwarth, J. Chem. Phys., 2016, 145, 054103.
     DOI: 10.1063/1.4959605
   
   in the mass-spec context:
   * V. Asgeirsson, C. Bauer and S. Grimme, Chem. Sci., 2017, 8, 4879.
     DOI: 10.1039/c7sc00601b
   * J. Koopman and S. Grimme, ACS Omega 2019, 4, 12, 15120-15133.
     DOI: 10.1021/acsomega.9b02011
   
   for metadynamics refer to:
   * S. Grimme, J. Chem. Theory Comput., 2019, 155, 2847-2862
     DOI: 10.1021/acs.jctc.9b00143
   
   for SPH calculations refer to:
   * S. Spicher and S. Grimme, J. Chem. Theory Comput., 2021, 17, 1701-1714
     DOI: 10.1021/acs.jctc.0c01306
   
   with help from (in alphabetical order)
   P. Atkinson, C. Bannwarth, F. Bohle, G. Brandenburg, E. Caldeweyher
   M. Checinski, S. Dohm, S. Ehlert, S. Ehrlich, I. Gerasimov, C. Hölzer
   A. Katbashev, J. Koopman, C. Lavigne, S. Lehtola, F. März, M. Müller,
   F. Musil, H. Neugebauer, J. Pisarek, C. Plett, P. Pracht, F. Pultar,
   J. Seibert, P. Shushkov, S. Spicher, M. Stahn, M. Steiner, T. Strunk,
   J. Stückrath, T. Rose, and J. Unsleber
   
 * started run on 2023/06/20 at 15:28:16.054     

           -------------------------------------------------
          |                Calculation Setup                |
           -------------------------------------------------

          program call               : /lustre/hpc/kemi/ree/PhD/git/ReactivityQM/dep/xtb-6.5.1/bin/xtb --gfn 1 /lustre/hpc/kemi/ree/PhD/git/ReactivityQM/calculations/RaltegravirCLI/reac02prodN09/conf17/RaltegravirCLI_reac02prodN09_conf17_gfn1.xyz --opt --vfukui --chrg 1 --uhf 0 --alpb DMSO
          hostname                   : node308
          coordinate file            : /lustre/hpc/kemi/ree/PhD/git/ReactivityQM/calculations/RaltegravirCLI/reac02prodN09/conf17/RaltegravirCLI_reac02prodN09_conf17_gfn1.xyz
          omp threads                :                     1

   ID    Z sym.   atoms
    1    6 C      1-4, 6-9, 11, 13, 15-18, 21, 22, 24
    2    9 F      5
    3    7 N      10, 14, 19, 20
    4    8 O      12, 23, 25
    5    1 H      26-47

           -------------------------------------------------
          |                 G F N 1 - x T B                 |
           -------------------------------------------------

        Reference                      10.1021/acs.jctc.7b00118
      * Hamiltonian:
        H0-scaling (s, p, d)           1.850000    2.250000    2.000000
        zeta-weighting                 0.000000
      * Dispersion:
        s8                             2.400000
        a1                             0.630000
        a2                             5.000000
        s9                             0.000000
      * Repulsion:
        kExp                           1.500000
        rExp                           1.000000
      * Coulomb:
        alpha                          2.000000
        third order                    atomic
        anisotropic                    false
      * Halogen bond correction:
        rad-scale                      1.300000
        damping                        0.440000

      * Solvation model:               ALPB
        Solvent                        DMSO
        Parameter file                 internal GFN1-xTB/ALPB
        Dielectric constant                4.6680E+01
        Reference state                gsolv [1 M gas/solution]
        Free energy shift                  7.6243E-03 Eh       4.7843E+00 kcal/mol
        Temperature                        2.9815E+02 K
        Density                            1.1000E+00 kg/L
        Solvent mass                       7.8130E+01 g/mol
        Interaction kernel             P16
        Born radius scaling (c1)           1.7672E+00
        Born radii integrator          GBOBC
        Born offset                        0.0000E+00 a0       0.0000E+00 AA
        H-bond correction              true
        Ion screening                  false
        Surface tension                    1.0000E-05 Eh       1.5569E+01 dyn/cm
        Grid points                               230 per atom

          ...................................................
          :                      SETUP                      :
          :.................................................:
          :  # basis functions                 144          :
          :  # atomic orbitals                 144          :
          :  # shells                           94          :
          :  # electrons                       134          :
          :  # halogen bonds                     0          :
          :  max. iterations                   250          :
          :  Hamiltonian                  GFN1-xTB          :
          :  restarted?                      false          :
          :  GBSA solvation                   true          :
          :  PC potential                    false          :
          :  electronic temp.          300.0000000     K    :
          :  accuracy                    1.0000000          :
          :  -> integral cutoff          0.2500000E+02      :
          :  -> integral neglect         0.1000000E-07      :
          :  -> SCF convergence          0.1000000E-05 Eh   :
          :  -> wf. convergence          0.2000000E-04 e    :
          :  Broyden damping             0.4000000          :
          ...................................................

 iter      E             dE          RMSdq      gap      omega  full diag
   1    -80.1148006 -0.801148E+02  0.847E+00    1.17       0.0  T
   2    -80.3392586 -0.224458E+00  0.508E+00    0.16       1.0  T
   3    -80.2783481  0.609105E-01  0.129E+00    0.03       1.0  T
   4    -80.3287402 -0.503922E-01  0.665E-01    1.06       1.0  T
   5    -80.3428610 -0.141207E-01  0.345E-01    0.65       1.0  T
   6    -80.3455760 -0.271500E-02  0.190E-01    0.10       1.0  T
   7    -80.3458404 -0.264466E-03  0.195E-01    0.34       1.0  T
   8    -80.3481875 -0.234708E-02  0.789E-02    0.18       1.0  T
   9    -80.3453368  0.285076E-02  0.188E-01    0.10       1.0  T
  10    -80.3473092 -0.197242E-02  0.127E-01    0.21       1.0  T
  11    -80.3484823 -0.117308E-02  0.542E-02    0.16       1.0  T
  12    -80.3486810 -0.198737E-03  0.281E-02    0.15       1.0  T
  13    -80.3487544 -0.734596E-04  0.214E-03    0.14       6.8  T
  14    -80.3487549 -0.442063E-06  0.175E-04    0.14      83.6  T
  15    -80.3487549  0.255013E-07  0.564E-04    0.14      25.9  T
  16    -80.3487549 -0.284341E-07  0.698E-05    0.14     209.0  T

   *** convergence criteria satisfied after 16 iterations ***

         #    Occupation            Energy/Eh            Energy/eV
      -------------------------------------------------------------
         1        2.0000           -0.9047453             -24.6194
       ...           ...                  ...                  ...
        61        2.0000           -0.4850223             -13.1981
        62        2.0000           -0.4764484             -12.9648
        63        2.0000           -0.4649783             -12.6527
        64        2.0000           -0.4627292             -12.5915
        65        2.0000           -0.4482301             -12.1970
        66        2.0000           -0.4329034             -11.7799
        67        1.8783           -0.4254047             -11.5759 (HOMO)
        68        0.1218           -0.4202054             -11.4344 (LUMO)
        69                         -0.3311673              -9.0115
        70                         -0.3192720              -8.6878
        71                         -0.2903843              -7.9018
        72                         -0.2430907              -6.6148
       ...                                ...                  ...
       144                          0.6972181              18.9723
      -------------------------------------------------------------
                  HL-Gap            0.0051993 Eh            0.1415 eV
             Fermi-level           -0.4228049 Eh          -11.5051 eV

 SCC (total)                   0 d,  0 h,  0 min,  0.243 sec
 SCC setup                      ...        0 min,  0.002 sec (  1.006%)
 Dispersion                     ...        0 min,  0.000 sec (  0.200%)
 classical contributions        ...        0 min,  0.000 sec (  0.064%)
 integral evaluation            ...        0 min,  0.062 sec ( 25.500%)
 iterations                     ...        0 min,  0.078 sec ( 32.140%)
 molecular gradient             ...        0 min,  0.099 sec ( 40.651%)
 printout                       ...        0 min,  0.001 sec (  0.419%)

         :::::::::::::::::::::::::::::::::::::::::::::::::::::
         ::                     SUMMARY                     ::
         :::::::::::::::::::::::::::::::::::::::::::::::::::::
         :: total energy             -79.471962242915 Eh    ::
         :: total w/o Gsasa/hb       -79.445437818066 Eh    ::
         :: gradient norm              0.093237330216 Eh/a0 ::
         :: HOMO-LUMO gap              0.141478904759 eV    ::
         ::.................................................::
         :: SCC energy               -80.348754894319 Eh    ::
         :: -> electrostatic           0.334162779303 Eh    ::
         :: -> Gsolv                  -0.114115982128 Eh    ::
         ::    -> Gelec               -0.087591557279 Eh    ::
         ::    -> Gsasa               -0.024259070736 Eh    ::
         ::    -> Ghb                 -0.009889633118 Eh    ::
         ::    -> Gshift               0.007624279005 Eh    ::
         :: repulsion energy           0.907398119244 Eh    ::
         :: dispersion energy         -0.030605467840 Eh    ::
         :: halogen bond corr.         0.000000000000 Eh    ::
         :: add. restraining           0.000000000000 Eh    ::
         :: total charge               1.000000000001 e     ::
         :::::::::::::::::::::::::::::::::::::::::::::::::::::

      ----------------------------------------------------------- 
     |                   =====================                   |
     |                        A N C O P T                        |
     |                   =====================                   |
     |               Approximate Normal Coordinate               |
     |                Rational Function Optimizer                |
      ----------------------------------------------------------- 

          ...................................................
          :                      SETUP                      :
          :.................................................:
          :   optimization level            normal          :
          :   max. optcycles                   200          :
          :   ANC micro-cycles                  20          :
          :   degrees of freedom               135          :
          :.................................................:
          :   RF solver                   davidson          :
          :   write xtbopt.log                true          :
          :   linear?                        false          :
          :   energy convergence         0.5000000E-05 Eh   :
          :   grad. convergence          0.1000000E-02 Eh/α :
          :   maximium RF displ.         1.0000000          :
          :   Hlow (freq-cutoff)         0.1000000E-01      :
          :   Hmax (freq-cutoff)         5.0000000          :
          :   S6 in model hess.         20.0000000          :
          ...................................................

generating ANC from model Hessian ...
Using Lindh-Hessian (1995)
 Shifting diagonal of input Hessian by   9.780103839136271E-003
 Lowest  eigenvalues of input Hessian
    0.000000    0.000000    0.000000    0.000000    0.000000    0.000000
    0.010000    0.010030    0.010321    0.010912    0.011598    0.012095
    0.012845    0.013894    0.015572    0.016519    0.016679    0.017156
 Highest eigenvalues
    1.960558    2.013272    2.059047    2.149766    2.332218    2.380361
 

........................................................................
.............................. CYCLE    1 ..............................
........................................................................
   1    -80.3487549 -0.803488E+02  0.247E-05    0.14       0.0  T
   2    -80.3487549  0.217105E-08  0.153E-04    0.14      95.6  T
   3    -80.3487549 -0.222010E-08  0.668E-06    0.14    2184.2  T
     SCC iter.                  ...        0 min,  0.037 sec
     gradient                   ...        0 min,  0.112 sec
 * total energy  :   -79.4719622 Eh     change       -0.4172165E-09 Eh
   gradient norm :     0.0932368 Eh/α   predicted     0.0000000E+00 (-100.00%)
   displ. norm   :     0.2777513 α      lambda       -0.1196708E-01
   maximum displ.:     0.1043016 α      in ANC's #19, #17, #36, ...

........................................................................
.............................. CYCLE    2 ..............................
........................................................................
   1    -80.3525699 -0.803526E+02  0.808E-02    0.17       0.0  T
   2    -80.2933693  0.592006E-01  0.783E-01    0.03       1.0  T
   3    -80.3529737 -0.596044E-01  0.357E-02    0.16       1.0  T
   4    -80.3530596 -0.858738E-04  0.133E-02    0.15       1.1  T
   5    -80.3530395  0.200802E-04  0.167E-02    0.14       1.0  T
   6    -80.3530331  0.645318E-05  0.173E-02    0.14       1.0  T
   7    -80.3530539 -0.208255E-04  0.882E-03    0.14       1.7  T
   8    -80.3530593 -0.544521E-05  0.453E-03    0.14       3.2  T
   9    -80.3530612 -0.183929E-05  0.108E-03    0.14      13.6  T
  10    -80.3530613 -0.103683E-06  0.243E-04    0.14      60.1  T
  11    -80.3530613 -0.192921E-08  0.189E-04    0.14      77.1  T
  12    -80.3530613 -0.331968E-08  0.373E-05    0.14     390.6  T
     SCC iter.                  ...        0 min,  0.047 sec
     gradient                   ...        0 min,  0.092 sec
 * total energy  :   -79.4804082 Eh     change       -0.8445918E-02 Eh
   gradient norm :     0.0413158 Eh/α   predicted    -0.6449474E-02 ( -23.64%)
   displ. norm   :     0.2803706 α      lambda       -0.4246035E-02
   maximum displ.:     0.1098680 α      in ANC's #19, #17, #7, ...

........................................................................
.............................. CYCLE    3 ..............................
........................................................................
   1    -80.3583574 -0.803584E+02  0.760E-02    0.18       0.0  T
   2    -80.2790055  0.793519E-01  0.902E-01    0.02       1.0  T
   3    -80.3588493 -0.798438E-01  0.224E-02    0.15       1.0  T
   4    -80.3588685 -0.191999E-04  0.155E-02    0.14       1.0  T
   5    -80.3588115  0.569323E-04  0.277E-02    0.14       1.0  T
   6    -80.3588096  0.194816E-05  0.267E-02    0.14       1.0  T
   7    -80.3588559 -0.463758E-04  0.149E-02    0.14       1.0  T
   8    -80.3588690 -0.130758E-04  0.913E-03    0.14       1.6  T
   9    -80.3588763 -0.726260E-05  0.264E-03    0.15       5.5  T
  10    -80.3588769 -0.654030E-06  0.239E-04    0.15      61.0  T
  11    -80.3588769  0.233410E-08  0.279E-04    0.15      52.2  T
  12    -80.3588769 -0.737997E-08  0.446E-05    0.15     326.7  T
  13    -80.3588769 -0.116017E-09  0.310E-05    0.15     470.0  T
     SCC iter.                  ...        0 min,  0.049 sec
     gradient                   ...        0 min,  0.092 sec
 * total energy  :   -79.4828544 Eh     change       -0.2446210E-02 Eh
   gradient norm :     0.0100627 Eh/α   predicted    -0.2290484E-02 (  -6.37%)
   displ. norm   :     0.1858914 α      lambda       -0.5664189E-03
   maximum displ.:     0.0809244 α      in ANC's #7, #17, #4, ...

........................................................................
.............................. CYCLE    4 ..............................
........................................................................
   1    -80.3599007 -0.803599E+02  0.352E-02    0.17       0.0  T
   2    -80.3466355  0.132652E-01  0.369E-01    0.07       1.0  T
   3    -80.3600395 -0.134040E-01  0.422E-03    0.15       3.5  T
   4    -80.3600334  0.610687E-05  0.946E-03    0.15       1.5  T
   5    -80.3600273  0.611394E-05  0.119E-02    0.14       1.2  T
   6    -80.3600339 -0.665926E-05  0.793E-03    0.15       1.8  T
   7    -80.3600385 -0.452115E-05  0.379E-03    0.15       3.9  T
   8    -80.3600396 -0.113973E-05  0.152E-03    0.15       9.6  T
   9    -80.3600398 -0.214348E-06  0.711E-05    0.15     205.0  T
  10    -80.3600398 -0.210889E-09  0.472E-05    0.15     309.2  T
     SCC iter.                  ...        0 min,  0.038 sec
     gradient                   ...        0 min,  0.092 sec
 * total energy  :   -79.4832974 Eh     change       -0.4430062E-03 Eh
   gradient norm :     0.0074675 Eh/α   predicted    -0.2929979E-03 ( -33.86%)
   displ. norm   :     0.3267314 α      lambda       -0.6495647E-03
   maximum displ.:     0.1415069 α      in ANC's #7, #4, #1, ...

........................................................................
.............................. CYCLE    5 ..............................
........................................................................
   1    -80.3605199 -0.803605E+02  0.473E-02    0.18       0.0  T
   2    -80.3304678  0.300521E-01  0.554E-01    0.05       1.0  T
   3    -80.3607591 -0.302913E-01  0.947E-03    0.16       1.5  T
   4    -80.3607678 -0.865263E-05  0.606E-03    0.15       2.4  T
   5    -80.3607511  0.167159E-04  0.147E-02    0.15       1.0  T
   6    -80.3607525 -0.138334E-05  0.134E-02    0.15       1.1  T
   7    -80.3607639 -0.114820E-04  0.746E-03    0.15       2.0  T
   8    -80.3607673 -0.335024E-05  0.450E-03    0.15       3.2  T
   9    -80.3607691 -0.184782E-05  0.759E-04    0.15      19.2  T
  10    -80.3607692 -0.485296E-07  0.231E-04    0.15      63.0  T
  11    -80.3607692 -0.487424E-08  0.106E-05    0.15    1381.3  T
  12    -80.3607692  0.609788E-10  0.274E-05    0.15     531.8  T
     SCC iter.                  ...        0 min,  0.046 sec
     gradient                   ...        0 min,  0.092 sec
 * total energy  :   -79.4837417 Eh     change       -0.4443428E-03 Eh
   gradient norm :     0.0064505 Eh/α   predicted    -0.3594550E-03 ( -19.10%)
   displ. norm   :     0.2674995 α      lambda       -0.2969951E-03
   maximum displ.:     0.1153610 α      in ANC's #4, #7, #1, ...

........................................................................
.............................. CYCLE    6 ..............................
........................................................................
   1    -80.3612710 -0.803613E+02  0.287E-02    0.17       0.0  T
   2    -80.3563993  0.487168E-02  0.225E-01    0.10       1.0  T
   3    -80.3613545 -0.495523E-02  0.466E-03    0.16       3.1  T
   4    -80.3613563 -0.178770E-05  0.351E-03    0.15       4.2  T
   5    -80.3613540  0.228134E-05  0.590E-03    0.15       2.5  T
   6    -80.3613553 -0.130015E-05  0.413E-03    0.15       3.5  T
   7    -80.3613567 -0.136897E-05  0.146E-03    0.15      10.0  T
   8    -80.3613569 -0.179872E-06  0.461E-04    0.15      31.7  T
   9    -80.3613569 -0.182255E-07  0.117E-04    0.15     124.6  T
  10    -80.3613569 -0.126251E-08  0.152E-05    0.15     958.7  T
     SCC iter.                  ...        0 min,  0.038 sec
     gradient                   ...        0 min,  0.092 sec
 * total energy  :   -79.4839643 Eh     change       -0.2225513E-03 Eh
   gradient norm :     0.0059527 Eh/α   predicted    -0.1591326E-03 ( -28.50%)
   displ. norm   :     0.2964501 α      lambda       -0.2707896E-03
   maximum displ.:     0.1272606 α      in ANC's #1, #4, #5, ...

........................................................................
.............................. CYCLE    7 ..............................
........................................................................
   1    -80.3621586 -0.803622E+02  0.172E-02    0.16       0.0  T
   2    -80.3614010  0.757589E-03  0.897E-02    0.13       1.0  T
   3    -80.3621801 -0.779066E-03  0.630E-03    0.16       2.3  T
   4    -80.3621837 -0.362777E-05  0.153E-03    0.16       9.5  T
   5    -80.3621838 -0.808060E-07  0.619E-04    0.16      23.6  T
   6    -80.3621838  0.120045E-07  0.518E-04    0.16      28.2  T
   7    -80.3621838 -0.216221E-07  0.983E-05    0.16     148.4  T
   8    -80.3621838 -0.755065E-09  0.240E-05    0.16     607.0  T
     SCC iter.                  ...        0 min,  0.031 sec
     gradient                   ...        0 min,  0.092 sec
 * total energy  :   -79.4841728 Eh     change       -0.2085255E-03 Eh
   gradient norm :     0.0048583 Eh/α   predicted    -0.1473427E-03 ( -29.34%)
   displ. norm   :     0.3236691 α      lambda       -0.2428355E-03
   maximum displ.:     0.1499158 α      in ANC's #1, #4, #3, ...

........................................................................
.............................. CYCLE    8 ..............................
........................................................................
   1    -80.3628377 -0.803628E+02  0.770E-03    0.16       0.0  T
   2    -80.3628390 -0.128317E-05  0.466E-03    0.16       3.1  T
   3    -80.3628285  0.105556E-04  0.107E-02    0.15       1.4  T
   4    -80.3628388 -0.103534E-04  0.437E-03    0.16       3.3  T
   5    -80.3628400 -0.115383E-05  0.178E-03    0.16       8.2  T
   6    -80.3628402 -0.208069E-06  0.535E-04    0.16      27.3  T
   7    -80.3628402 -0.208555E-07  0.600E-05    0.16     243.2  T
   8    -80.3628402 -0.970601E-11  0.390E-05    0.16     373.7  T
     SCC iter.                  ...        0 min,  0.031 sec
     gradient                   ...        0 min,  0.092 sec
 * total energy  :   -79.4843475 Eh     change       -0.1746850E-03 Eh
   gradient norm :     0.0044167 Eh/α   predicted    -0.1341446E-03 ( -23.21%)
   displ. norm   :     0.2381283 α      lambda       -0.1324624E-03
   maximum displ.:     0.1227115 α      in ANC's #1, #3, #4, ...

........................................................................
.............................. CYCLE    9 ..............................
........................................................................
   1    -80.3633926 -0.803634E+02  0.110E-02    0.15       0.0  T
   2    -80.3632166  0.175918E-03  0.458E-02    0.18       1.0  T
   3    -80.3634008 -0.184190E-03  0.793E-03    0.16       1.8  T
   4    -80.3634051 -0.429916E-05  0.232E-03    0.16       6.3  T
   5    -80.3634054 -0.222374E-06  0.940E-04    0.16      15.5  T
   6    -80.3634054 -0.266601E-07  0.516E-04    0.16      28.3  T
   7    -80.3634054 -0.211786E-07  0.398E-05    0.16     366.1  T
   8    -80.3634054  0.206057E-11  0.194E-05    0.16     752.4  T
     SCC iter.                  ...        0 min,  0.031 sec
     gradient                   ...        0 min,  0.092 sec
 * total energy  :   -79.4844429 Eh     change       -0.9543389E-04 Eh
   gradient norm :     0.0038665 Eh/α   predicted    -0.6998744E-04 ( -26.66%)
   displ. norm   :     0.1743793 α      lambda       -0.8319368E-04
   maximum displ.:     0.1013592 α      in ANC's #1, #3, #4, ...

........................................................................
.............................. CYCLE   10 ..............................
........................................................................
   1    -80.3639119 -0.803639E+02  0.118E-02    0.15       0.0  T
   2    -80.3637122  0.199717E-03  0.487E-02    0.18       1.0  T
   3    -80.3639230 -0.210854E-03  0.669E-03    0.16       2.2  T
   4    -80.3639259 -0.285784E-05  0.265E-03    0.16       5.5  T
   5    -80.3639263 -0.427525E-06  0.376E-04    0.16      38.8  T
   6    -80.3639263  0.218911E-07  0.539E-04    0.16      27.1  T
   7    -80.3639263 -0.231631E-07  0.610E-05    0.16     239.1  T
   8    -80.3639263 -0.844977E-10  0.342E-05    0.16     426.1  T
     SCC iter.                  ...        0 min,  0.031 sec
     gradient                   ...        0 min,  0.092 sec
 * total energy  :   -79.4845061 Eh     change       -0.6319329E-04 Eh
   gradient norm :     0.0029570 Eh/α   predicted    -0.4286600E-04 ( -32.17%)
   displ. norm   :     0.1615329 α      lambda       -0.7030419E-04
   maximum displ.:     0.1022350 α      in ANC's #1, #3, #2, ...

........................................................................
.............................. CYCLE   11 ..............................
........................................................................
   1    -80.3641470 -0.803641E+02  0.879E-03    0.15       0.0  T
   2    -80.3640410  0.105954E-03  0.352E-02    0.17       1.0  T
   3    -80.3641537 -0.112734E-03  0.256E-03    0.16       5.7  T
   4    -80.3641537  0.290891E-08  0.226E-03    0.16       6.4  T
   5    -80.3641541 -0.335752E-06  0.392E-04    0.16      37.2  T
   6    -80.3641541 -0.140639E-08  0.225E-04    0.16      64.8  T
   7    -80.3641541 -0.266327E-08  0.938E-05    0.16     155.5  T
   8    -80.3641541 -0.594966E-09  0.132E-05    0.16    1105.4  T
     SCC iter.                  ...        0 min,  0.031 sec
     gradient                   ...        0 min,  0.092 sec
 * total energy  :   -79.4845605 Eh     change       -0.5440851E-04 Eh
   gradient norm :     0.0024653 Eh/α   predicted    -0.3607035E-04 ( -33.70%)
   displ. norm   :     0.1606025 α      lambda       -0.6577511E-04
   maximum displ.:     0.1064409 α      in ANC's #1, #3, #12, ...

........................................................................
.............................. CYCLE   12 ..............................
........................................................................
   1    -80.3641500 -0.803642E+02  0.399E-03    0.16       0.0  T
   2    -80.3641470  0.305975E-05  0.654E-03    0.16       2.2  T
   3    -80.3641475 -0.472162E-06  0.597E-03    0.15       2.4  T
   4    -80.3641508 -0.333297E-05  0.848E-04    0.16      17.2  T
   5    -80.3641508 -0.182565E-07  0.315E-04    0.16      46.3  T
   6    -80.3641508 -0.535834E-08  0.921E-05    0.16     158.4  T
   7    -80.3641508 -0.303189E-09  0.393E-05    0.16     371.0  T
     SCC iter.                  ...        0 min,  0.027 sec
     gradient                   ...        0 min,  0.092 sec
 * total energy  :   -79.4846136 Eh     change       -0.5312179E-04 Eh
   gradient norm :     0.0026474 Eh/α   predicted    -0.3374383E-04 ( -36.48%)
   displ. norm   :     0.1910483 α      lambda       -0.7576479E-04
   maximum displ.:     0.1270256 α      in ANC's #1, #3, #12, ...

........................................................................
.............................. CYCLE   13 ..............................
........................................................................
   1    -80.3639450 -0.803639E+02  0.612E-03    0.16       0.0  T
   2    -80.3638484  0.966428E-04  0.328E-02    0.14       1.0  T
   3    -80.3639483 -0.999273E-04  0.304E-03    0.16       4.8  T
   4    -80.3639485 -0.189641E-06  0.235E-03    0.16       6.2  T
   5    -80.3639489 -0.366466E-06  0.686E-04    0.16      21.3  T
   6    -80.3639489 -0.313591E-07  0.222E-04    0.16      65.8  T
   7    -80.3639489 -0.327266E-08  0.811E-05    0.16     179.8  T
   8    -80.3639489 -0.420172E-09  0.180E-05    0.16     812.1  T
     SCC iter.                  ...        0 min,  0.031 sec
     gradient                   ...        0 min,  0.070 sec
 * total energy  :   -79.4846760 Eh     change       -0.6233066E-04 Eh
   gradient norm :     0.0030284 Eh/α   predicted    -0.3926582E-04 ( -37.00%)
   displ. norm   :     0.2350044 α      lambda       -0.8600077E-04
   maximum displ.:     0.1566543 α      in ANC's #1, #3, #6, ...

........................................................................
.............................. CYCLE   14 ..............................
........................................................................
   1    -80.3634347 -0.803634E+02  0.121E-02    0.16       0.0  T
   2    -80.3628603  0.574432E-03  0.790E-02    0.13       1.0  T
   3    -80.3634500 -0.589700E-03  0.491E-03    0.16       3.0  T
   4    -80.3634500  0.646058E-07  0.453E-03    0.16       3.2  T
   5    -80.3634511 -0.119702E-05  0.222E-03    0.16       6.6  T
   6    -80.3634515 -0.369505E-06  0.770E-04    0.16      18.9  T
   7    -80.3634516 -0.500351E-07  0.148E-04    0.16      98.3  T
   8    -80.3634516 -0.137334E-08  0.539E-05    0.16     270.4  T
     SCC iter.                  ...        0 min,  0.025 sec
     gradient                   ...        0 min,  0.098 sec
 * total energy  :   -79.4847450 Eh     change       -0.6907839E-04 Eh
   gradient norm :     0.0031988 Eh/α   predicted    -0.4537692E-04 ( -34.31%)
   displ. norm   :     0.2359593 α      lambda       -0.7973071E-04
   maximum displ.:     0.1599710 α      in ANC's #1, #3, #6, ...

........................................................................
.............................. CYCLE   15 ..............................
........................................................................
   1    -80.3631415 -0.803631E+02  0.150E-02    0.17       0.0  T
   2    -80.3622304  0.911121E-03  0.991E-02    0.13       1.0  T
   3    -80.3631660 -0.935586E-03  0.334E-03    0.16       4.4  T
   4    -80.3631650  0.976576E-06  0.445E-03    0.16       3.3  T
   5    -80.3631660 -0.937203E-06  0.264E-03    0.16       5.5  T
   6    -80.3631665 -0.514987E-06  0.978E-04    0.16      14.9  T
   7    -80.3631666 -0.847019E-07  0.128E-04    0.16     114.2  T
   8    -80.3631666 -0.718487E-09  0.741E-05    0.16     196.9  T
     SCC iter.                  ...        0 min,  0.032 sec
     gradient                   ...        0 min,  0.099 sec
 * total energy  :   -79.4848105 Eh     change       -0.6545211E-04 Eh
   gradient norm :     0.0029243 Eh/α   predicted    -0.4209030E-04 ( -35.69%)
   displ. norm   :     0.2286042 α      lambda       -0.7782882E-04
   maximum displ.:     0.1576701 α      in ANC's #1, #3, #2, ...

........................................................................
.............................. CYCLE   16 ..............................
........................................................................
   1    -80.3633391 -0.803633E+02  0.143E-02    0.17       0.0  T
   2    -80.3626291  0.710003E-03  0.876E-02    0.13       1.0  T
   3    -80.3633605 -0.731391E-03  0.132E-03    0.16      11.0  T
   4    -80.3633602  0.352177E-06  0.239E-03    0.16       6.1  T
   5    -80.3633603 -0.740280E-07  0.197E-03    0.16       7.4  T
   6    -80.3633605 -0.274345E-06  0.700E-04    0.16      20.8  T
   7    -80.3633606 -0.426698E-07  0.103E-04    0.16     141.3  T
   8    -80.3633606 -0.820862E-09  0.304E-05    0.16     479.5  T
     SCC iter.                  ...        0 min,  0.032 sec
     gradient                   ...        0 min,  0.099 sec
 * total energy  :   -79.4848764 Eh     change       -0.6594276E-04 Eh
   gradient norm :     0.0023692 Eh/α   predicted    -0.4095799E-04 ( -37.89%)
   displ. norm   :     0.2521556 α      lambda       -0.8396187E-04
   maximum displ.:     0.1747276 α      in ANC's #1, #3, #2, ...

........................................................................
.............................. CYCLE   17 ..............................
........................................................................
   1    -80.3637178 -0.803637E+02  0.108E-02    0.17       0.0  T
   2    -80.3634107  0.307064E-03  0.578E-02    0.14       1.0  T
   3    -80.3637289 -0.318215E-03  0.119E-03    0.16      12.3  T
   4    -80.3637290 -0.392550E-07  0.949E-04    0.16      15.4  T
   5    -80.3637290 -0.313493E-08  0.728E-04    0.16      20.0  T
   6    -80.3637290 -0.351870E-07  0.227E-04    0.16      64.2  T
   7    -80.3637290 -0.410000E-08  0.282E-05    0.16     517.9  T
   8    -80.3637290 -0.875389E-11  0.188E-05    0.16     776.1  T
     SCC iter.                  ...        0 min,  0.032 sec
     gradient                   ...        0 min,  0.099 sec
 * total energy  :   -79.4849485 Eh     change       -0.7210231E-04 Eh
   gradient norm :     0.0023222 Eh/α   predicted    -0.4465416E-04 ( -38.07%)
   displ. norm   :     0.2845060 α      lambda       -0.9104211E-04
   maximum displ.:     0.1961915 α      in ANC's #1, #3, #5, ...

........................................................................
.............................. CYCLE   18 ..............................
........................................................................
   1    -80.3640035 -0.803640E+02  0.508E-03    0.16       0.0  T
   2    -80.3639677  0.358532E-04  0.199E-02    0.15       1.0  T
   3    -80.3640051 -0.374792E-04  0.185E-03    0.16       7.9  T
   4    -80.3640054 -0.232907E-06  0.568E-04    0.16      25.7  T
   5    -80.3640054 -0.574100E-08  0.241E-04    0.16      60.4  T
   6    -80.3640054 -0.182904E-08  0.683E-05    0.16     213.6  T
   7    -80.3640054 -0.121034E-09  0.284E-05    0.16     513.2  T
     SCC iter.                  ...        0 min,  0.028 sec
     gradient                   ...        0 min,  0.099 sec
 * total energy  :   -79.4850288 Eh     change       -0.8023428E-04 Eh
   gradient norm :     0.0027005 Eh/α   predicted    -0.4920892E-04 ( -38.67%)
   displ. norm   :     0.3446954 α      lambda       -0.1098686E-03
   maximum displ.:     0.2354912 α      in ANC's #1, #3, #5, ...

........................................................................
.............................. CYCLE   19 ..............................
........................................................................
   1    -80.3640411 -0.803640E+02  0.333E-03    0.16       0.0  T
   2    -80.3640377  0.333937E-05  0.665E-03    0.16       2.2  T
   3    -80.3640412 -0.341313E-05  0.207E-03    0.16       7.0  T
   4    -80.3640415 -0.320398E-06  0.103E-03    0.16      14.2  T
   5    -80.3640415 -0.568569E-07  0.289E-04    0.16      50.4  T
   6    -80.3640415 -0.394019E-08  0.110E-04    0.16     132.1  T
   7    -80.3640415 -0.656883E-09  0.408E-05    0.16     357.7  T
     SCC iter.                  ...        0 min,  0.028 sec
     gradient                   ...        0 min,  0.099 sec
 * total energy  :   -79.4851260 Eh     change       -0.9724797E-04 Eh
   gradient norm :     0.0029515 Eh/α   predicted    -0.6146516E-04 ( -36.80%)
   displ. norm   :     0.4279199 α      lambda       -0.1308466E-03
   maximum displ.:     0.2897648 α      in ANC's #1, #3, #5, ...

........................................................................
.............................. CYCLE   20 ..............................
........................................................................
   1    -80.3637400 -0.803637E+02  0.604E-03    0.16       0.0  T
   2    -80.3636993  0.407571E-04  0.219E-02    0.17       1.0  T
   3    -80.3637428 -0.435933E-04  0.178E-03    0.16       8.2  T
   4    -80.3637429 -0.392836E-07  0.120E-03    0.16      12.2  T
   5    -80.3637430 -0.690867E-07  0.302E-04    0.16      48.3  T
   6    -80.3637430 -0.366683E-09  0.174E-04    0.16      84.0  T
   7    -80.3637430 -0.186419E-08  0.489E-05    0.16     298.4  T
     SCC iter.                  ...        0 min,  0.028 sec
     gradient                   ...        0 min,  0.099 sec
 * total energy  :   -79.4852366 Eh     change       -0.1106035E-03 Eh
   gradient norm :     0.0029199 Eh/α   predicted    -0.7740475E-04 ( -30.02%)
   displ. norm   :     0.4625581 α      lambda       -0.1223906E-03
   maximum displ.:     0.3120041 α      in ANC's #1, #3, #5, ...
 * RMSD in coord.:     0.6075960 α      energy gain  -0.1327439E-01 Eh

generating ANC from model Hessian ...
Using Lindh-Hessian (1995)
 Shifting diagonal of input Hessian by   9.809179537733876E-003
 Lowest  eigenvalues of input Hessian
    0.000000    0.000000    0.000000    0.000000    0.000000    0.000000
    0.010000    0.010046    0.010285    0.010824    0.011481    0.011853
    0.012763    0.013783    0.015473    0.016087    0.017127    0.017161
 Highest eigenvalues
    1.983280    2.051048    2.072750    2.173515    2.355258    2.384265
 

........................................................................
.............................. CYCLE   21 ..............................
........................................................................
   1    -80.3633695 -0.803634E+02  0.646E-03    0.16       0.0  T
   2    -80.3633248  0.446504E-04  0.229E-02    0.17       1.0  T
   3    -80.3633727 -0.478815E-04  0.150E-03    0.16       9.7  T
   4    -80.3633727  0.750300E-08  0.117E-03    0.16      12.5  T
   5    -80.3633728 -0.592674E-07  0.233E-04    0.16      62.7  T
   6    -80.3633728  0.317073E-09  0.153E-04    0.16      95.3  T
   7    -80.3633728 -0.129673E-08  0.480E-05    0.16     304.2  T
     SCC iter.                  ...        0 min,  0.028 sec
     gradient                   ...        0 min,  0.099 sec
 * total energy  :   -79.4853366 Eh     change       -0.9995373E-04 Eh
   gradient norm :     0.0028737 Eh/α   predicted     0.0000000E+00 (-100.00%)
   displ. norm   :     0.0344582 α      lambda       -0.2959275E-04
   maximum displ.:     0.0168593 α      in ANC's #4, #1, #11, ...

........................................................................
.............................. CYCLE   22 ..............................
........................................................................
   1    -80.3641519 -0.803642E+02  0.250E-03    0.16       0.0  T
   2    -80.3641430  0.885947E-05  0.102E-02    0.16       1.4  T
   3    -80.3641524 -0.937186E-05  0.886E-04    0.16      16.5  T
   4    -80.3641523  0.241754E-07  0.857E-04    0.16      17.0  T
   5    -80.3641524 -0.416060E-07  0.234E-04    0.16      62.4  T
   6    -80.3641524 -0.284842E-08  0.584E-05    0.16     249.8  T
   7    -80.3641524 -0.213930E-09  0.158E-05    0.16     925.1  T
     SCC iter.                  ...        0 min,  0.028 sec
     gradient                   ...        0 min,  0.099 sec
 * total energy  :   -79.4853625 Eh     change       -0.2587146E-04 Eh
   gradient norm :     0.0015747 Eh/α   predicted    -0.1545175E-04 ( -40.27%)
   displ. norm   :     0.1729991 α      lambda       -0.6654965E-04
   maximum displ.:     0.0906066 α      in ANC's #4, #1, #3, ...

........................................................................
.............................. CYCLE   23 ..............................
........................................................................
   1    -80.3658014 -0.803658E+02  0.759E-03    0.17       0.0  T
   2    -80.3657170  0.844406E-04  0.312E-02    0.15       1.0  T
   3    -80.3658061 -0.891334E-04  0.229E-03    0.16       6.4  T
   4    -80.3658057  0.390531E-06  0.272E-03    0.16       5.4  T
   5    -80.3658061 -0.386999E-06  0.105E-03    0.16      13.9  T
   6    -80.3658062 -0.676271E-07  0.340E-04    0.16      43.0  T
   7    -80.3658062 -0.870943E-08  0.560E-05    0.16     260.6  T
   8    -80.3658062 -0.142080E-09  0.121E-05    0.16    1204.0  T
     SCC iter.                  ...        0 min,  0.032 sec
     gradient                   ...        0 min,  0.099 sec
 * total energy  :   -79.4854117 Eh     change       -0.4928322E-04 Eh
   gradient norm :     0.0031968 Eh/α   predicted    -0.3371783E-04 ( -31.58%)
   displ. norm   :     0.0475928 α      lambda       -0.2130100E-04
   maximum displ.:     0.0264742 α      in ANC's #4, #1, #3, ...

........................................................................
.............................. CYCLE   24 ..............................
........................................................................
   1    -80.3654643 -0.803655E+02  0.134E-03    0.16       0.0  T
   2    -80.3654635  0.881330E-06  0.340E-03    0.16       4.3  T
   3    -80.3654644 -0.960812E-06  0.819E-04    0.16      17.8  T
   4    -80.3654645 -0.341729E-07  0.512E-04    0.16      28.5  T
   5    -80.3654645 -0.140572E-07  0.117E-04    0.16     124.4  T
   6    -80.3654645 -0.420314E-09  0.243E-05    0.16     601.3  T
     SCC iter.                  ...        0 min,  0.024 sec
     gradient                   ...        0 min,  0.099 sec
 * total energy  :   -79.4854313 Eh     change       -0.1954634E-04 Eh
   gradient norm :     0.0025056 Eh/α   predicted    -0.1067479E-04 ( -45.39%)
   displ. norm   :     0.1873387 α      lambda       -0.7455620E-04
   maximum displ.:     0.1012982 α      in ANC's #4, #1, #3, ...

........................................................................
.............................. CYCLE   25 ..............................
........................................................................
   1    -80.3641759 -0.803642E+02  0.691E-03    0.16       0.0  T
   2    -80.3641229  0.529665E-04  0.253E-02    0.17       1.0  T
   3    -80.3641802 -0.572484E-04  0.245E-03    0.16       5.9  T
   4    -80.3641801  0.648359E-07  0.219E-03    0.16       6.7  T
   5    -80.3641804 -0.300112E-06  0.426E-04    0.16      34.3  T
   6    -80.3641804 -0.217946E-08  0.128E-04    0.16     113.7  T
   7    -80.3641804 -0.676550E-09  0.613E-05    0.16     237.9  T
     SCC iter.                  ...        0 min,  0.028 sec
     gradient                   ...        0 min,  0.100 sec
 * total energy  :   -79.4854842 Eh     change       -0.5290438E-04 Eh
   gradient norm :     0.0013420 Eh/α   predicted    -0.3858649E-04 ( -27.06%)
   displ. norm   :     0.2575954 α      lambda       -0.3546137E-04
   maximum displ.:     0.1393408 α      in ANC's #4, #1, #3, ...

........................................................................
.............................. CYCLE   26 ..............................
........................................................................
   1    -80.3632005 -0.803632E+02  0.875E-03    0.16       0.0  T
   2    -80.3631024  0.980527E-04  0.342E-02    0.18       1.0  T
   3    -80.3632073 -0.104904E-03  0.379E-03    0.16       3.8  T
   4    -80.3632080 -0.672731E-06  0.204E-03    0.16       7.1  T
   5    -80.3632082 -0.262978E-06  0.418E-04    0.16      34.9  T
   6    -80.3632082  0.127443E-08  0.263E-04    0.16      55.4  T
   7    -80.3632082 -0.452133E-08  0.715E-05    0.16     204.1  T
   8    -80.3632082 -0.341515E-09  0.122E-05    0.16    1199.6  T
     SCC iter.                  ...        0 min,  0.032 sec
     gradient                   ...        0 min,  0.099 sec
 * total energy  :   -79.4855175 Eh     change       -0.3327716E-04 Eh
   gradient norm :     0.0026093 Eh/α   predicted    -0.1826181E-04 ( -45.12%)
   displ. norm   :     0.0928757 α      lambda       -0.2235618E-04
   maximum displ.:     0.0508990 α      in ANC's #1, #4, #3, ...

........................................................................
.............................. CYCLE   27 ..............................
........................................................................
   1    -80.3637537 -0.803638E+02  0.224E-03    0.16       0.0  T
   2    -80.3637461  0.753311E-05  0.935E-03    0.17       1.6  T
   3    -80.3637541 -0.792205E-05  0.105E-03    0.16      13.9  T
   4    -80.3637541 -0.595137E-07  0.335E-04    0.16      43.6  T
   5    -80.3637541 -0.422813E-08  0.107E-04    0.16     136.4  T
   6    -80.3637541 -0.338574E-09  0.276E-05    0.16     528.5  T
     SCC iter.                  ...        0 min,  0.024 sec
     gradient                   ...        0 min,  0.099 sec
 * total energy  :   -79.4855381 Eh     change       -0.2065650E-04 Eh
   gradient norm :     0.0020651 Eh/α   predicted    -0.1127494E-04 ( -45.42%)
   displ. norm   :     0.2317019 α      lambda       -0.6294874E-04
   maximum displ.:     0.1277227 α      in ANC's #1, #4, #2, ...

........................................................................
.............................. CYCLE   28 ..............................
........................................................................
   1    -80.3650508 -0.803651E+02  0.442E-03    0.16       0.0  T
   2    -80.3650322  0.186089E-04  0.149E-02    0.17       1.0  T
   3    -80.3650521 -0.199237E-04  0.160E-03    0.16       9.1  T
   4    -80.3650522 -0.200678E-07  0.960E-04    0.16      15.2  T
   5    -80.3650522 -0.405787E-07  0.238E-04    0.16      61.2  T
   6    -80.3650522 -0.219302E-09  0.601E-05    0.16     242.7  T
   7    -80.3650522 -0.197105E-09  0.197E-05    0.16     740.4  T
     SCC iter.                  ...        0 min,  0.028 sec
     gradient                   ...        0 min,  0.100 sec
 * total energy  :   -79.4855900 Eh     change       -0.5183765E-04 Eh
   gradient norm :     0.0011776 Eh/α   predicted    -0.3316502E-04 ( -36.02%)
   displ. norm   :     0.5215528 α      lambda       -0.6841117E-04
   maximum displ.:     0.2894645 α      in ANC's #1, #4, #2, ...

........................................................................
.............................. CYCLE   29 ..............................
........................................................................
   1    -80.3653662 -0.803654E+02  0.654E-03    0.16       0.0  T
   2    -80.3653408  0.253862E-04  0.177E-02    0.17       1.0  T
   3    -80.3653686 -0.277734E-04  0.217E-03    0.16       6.7  T
   4    -80.3653686  0.616136E-07  0.156E-03    0.16       9.3  T
   5    -80.3653687 -0.111393E-06  0.497E-04    0.16      29.4  T
   6    -80.3653687 -0.347740E-08  0.140E-04    0.16     104.1  T
   7    -80.3653687 -0.118690E-08  0.400E-05    0.16     364.5  T
     SCC iter.                  ...        0 min,  0.028 sec
     gradient                   ...        0 min,  0.100 sec
 * total energy  :   -79.4856611 Eh     change       -0.7110068E-04 Eh
   gradient norm :     0.0032592 Eh/α   predicted    -0.3834582E-04 ( -46.07%)
   displ. norm   :     0.2310108 α      lambda       -0.4244970E-04
   maximum displ.:     0.1306117 α      in ANC's #1, #4, #2, ...

........................................................................
.............................. CYCLE   30 ..............................
........................................................................
   1    -80.3652397 -0.803652E+02  0.362E-03    0.16       0.0  T
   2    -80.3652257  0.139877E-04  0.126E-02    0.16       1.2  T
   3    -80.3652405 -0.148113E-04  0.107E-03    0.16      13.7  T
   4    -80.3652405 -0.378399E-07  0.534E-04    0.16      27.3  T
   5    -80.3652405 -0.280153E-08  0.271E-04    0.16      53.7  T
   6    -80.3652405 -0.391057E-08  0.674E-05    0.16     216.3  T
   7    -80.3652405 -0.226095E-09  0.224E-05    0.16     652.5  T
     SCC iter.                  ...        0 min,  0.028 sec
     gradient                   ...        0 min,  0.100 sec
 * total energy  :   -79.4856996 Eh     change       -0.3850475E-04 Eh
   gradient norm :     0.0029604 Eh/α   predicted    -0.2235893E-04 ( -41.93%)
   displ. norm   :     0.3241535 α      lambda       -0.7638169E-04
   maximum displ.:     0.1844909 α      in ANC's #1, #2, #4, ...

........................................................................
.............................. CYCLE   31 ..............................
........................................................................
   1    -80.3648915 -0.803649E+02  0.102E-02    0.17       0.0  T
   2    -80.3646472  0.244337E-03  0.521E-02    0.14       1.0  T
   3    -80.3649019 -0.254683E-03  0.247E-03    0.16       5.9  T
   4    -80.3649018  0.732746E-07  0.227E-03    0.16       6.4  T
   5    -80.3649020 -0.170640E-06  0.137E-03    0.16      10.7  T
   6    -80.3649021 -0.136941E-06  0.346E-04    0.16      42.1  T
   7    -80.3649021 -0.101201E-07  0.415E-05    0.16     351.6  T
   8    -80.3649021  0.105047E-09  0.388E-05    0.16     376.3  T
     SCC iter.                  ...        0 min,  0.032 sec
     gradient                   ...        0 min,  0.100 sec
 * total energy  :   -79.4857654 Eh     change       -0.6584063E-04 Eh
   gradient norm :     0.0018509 Eh/α   predicted    -0.4220584E-04 ( -35.90%)
   displ. norm   :     0.6640522 α      lambda       -0.9226627E-04
   maximum displ.:     0.3795816 α      in ANC's #1, #2, #3, ...

........................................................................
.............................. CYCLE   32 ..............................
........................................................................
   1    -80.3621236 -0.803621E+02  0.216E-02    0.18       0.0  T
   2    -80.3607190  0.140457E-02  0.123E-01    0.12       1.0  T
   3    -80.3621691 -0.145002E-02  0.428E-03    0.17       3.4  T
   4    -80.3621699 -0.791760E-06  0.255E-03    0.17       5.7  T
   5    -80.3621691  0.727903E-06  0.326E-03    0.17       4.5  T
   6    -80.3621699 -0.790274E-06  0.107E-03    0.17      13.7  T
   7    -80.3621700 -0.100133E-06  0.209E-04    0.17      69.7  T
   8    -80.3621700 -0.212351E-08  0.126E-04    0.17     115.8  T
   9    -80.3621700 -0.112207E-08  0.547E-05    0.17     266.6  T
     SCC iter.                  ...        0 min,  0.036 sec
     gradient                   ...        0 min,  0.100 sec
 * total energy  :   -79.4858614 Eh     change       -0.9597219E-04 Eh
   gradient norm :     0.0036310 Eh/α   predicted    -0.5517620E-04 ( -42.51%)
   displ. norm   :     0.2591563 α      lambda       -0.5933385E-04
   maximum displ.:     0.1525084 α      in ANC's #1, #2, #3, ...

........................................................................
.............................. CYCLE   33 ..............................
........................................................................
   1    -80.3624343 -0.803624E+02  0.104E-02    0.17       0.0  T
   2    -80.3621964  0.237924E-03  0.517E-02    0.15       1.0  T
   3    -80.3624456 -0.249251E-03  0.250E-03    0.17       5.8  T
   4    -80.3624456  0.745546E-07  0.240E-03    0.17       6.1  T
   5    -80.3624458 -0.212106E-06  0.145E-03    0.17      10.1  T
   6    -80.3624459 -0.159498E-06  0.315E-04    0.17      46.4  T
   7    -80.3624459 -0.751905E-08  0.646E-05    0.17     225.7  T
   8    -80.3624459 -0.195399E-09  0.253E-05    0.17     575.5  T
     SCC iter.                  ...        0 min,  0.032 sec
     gradient                   ...        0 min,  0.100 sec
 * total energy  :   -79.4859114 Eh     change       -0.5001664E-04 Eh
   gradient norm :     0.0039534 Eh/α   predicted    -0.3166232E-04 ( -36.70%)
   displ. norm   :     0.3771241 α      lambda       -0.9677455E-04
   maximum displ.:     0.2228955 α      in ANC's #1, #2, #3, ...

........................................................................
.............................. CYCLE   34 ..............................
........................................................................
   1    -80.3629213 -0.803629E+02  0.128E-02    0.18       0.0  T
   2    -80.3625655  0.355779E-03  0.630E-02    0.14       1.0  T
   3    -80.3629381 -0.372596E-03  0.200E-03    0.17       7.3  T
   4    -80.3629379  0.179477E-06  0.214E-03    0.17       6.8  T
   5    -80.3629380 -0.116956E-06  0.146E-03    0.17      10.0  T
   6    -80.3629382 -0.159480E-06  0.361E-04    0.17      40.4  T
   7    -80.3629382 -0.911740E-08  0.106E-04    0.17     138.2  T
   8    -80.3629382 -0.771891E-09  0.196E-05    0.17     742.5  T
     SCC iter.                  ...        0 min,  0.032 sec
     gradient                   ...        0 min,  0.101 sec
 * total energy  :   -79.4859858 Eh     change       -0.7439749E-04 Eh
   gradient norm :     0.0035502 Eh/α   predicted    -0.5527162E-04 ( -25.71%)
   displ. norm   :     0.3241401 α      lambda       -0.8273824E-04
   maximum displ.:     0.1908435 α      in ANC's #1, #2, #3, ...

........................................................................
.............................. CYCLE   35 ..............................
........................................................................
   1    -80.3640129 -0.803640E+02  0.853E-03    0.18       0.0  T
   2    -80.3639032  0.109670E-03  0.352E-02    0.16       1.0  T
   3    -80.3640193 -0.116076E-03  0.151E-03    0.17       9.6  T
   4    -80.3640193 -0.621839E-08  0.678E-04    0.17      21.5  T
   5    -80.3640193 -0.105297E-07  0.228E-04    0.17      63.9  T
   6    -80.3640193 -0.643524E-09  0.767E-05    0.17     190.1  T
   7    -80.3640193 -0.780744E-10  0.324E-05    0.17     450.0  T
     SCC iter.                  ...        0 min,  0.028 sec
     gradient                   ...        0 min,  0.101 sec
 * total energy  :   -79.4860486 Eh     change       -0.6279189E-04 Eh
   gradient norm :     0.0024124 Eh/α   predicted    -0.4571688E-04 ( -27.19%)
   displ. norm   :     0.3328139 α      lambda       -0.6371561E-04
   maximum displ.:     0.1929233 α      in ANC's #1, #2, #3, ...

........................................................................
.............................. CYCLE   36 ..............................
........................................................................
   1    -80.3641199 -0.803641E+02  0.574E-03    0.17       0.0  T
   2    -80.3640975  0.224498E-04  0.159E-02    0.16       1.0  T
   3    -80.3641207 -0.232538E-04  0.389E-03    0.17       3.8  T
   4    -80.3641217 -0.953548E-06  0.155E-03    0.17       9.4  T
   5    -80.3641217 -0.831995E-07  0.838E-04    0.17      17.4  T
   6    -80.3641218 -0.490997E-07  0.178E-04    0.17      82.0  T
   7    -80.3641218 -0.180874E-08  0.348E-05    0.17     419.4  T
     SCC iter.                  ...        0 min,  0.028 sec
     gradient                   ...        0 min,  0.101 sec
 * total energy  :   -79.4860963 Eh     change       -0.4774743E-04 Eh
   gradient norm :     0.0018847 Eh/α   predicted    -0.3539086E-04 ( -25.88%)
   displ. norm   :     0.4010831 α      lambda       -0.5353233E-04
   maximum displ.:     0.2280053 α      in ANC's #2, #1, #3, ...

........................................................................
.............................. CYCLE   37 ..............................
........................................................................
   1    -80.3659313 -0.803659E+02  0.815E-03    0.17       0.0  T
   2    -80.3659138  0.175336E-04  0.150E-02    0.16       1.0  T
   3    -80.3659295 -0.157576E-04  0.777E-03    0.18       1.9  T
   4    -80.3659343 -0.473857E-05  0.171E-03    0.17       8.5  T
   5    -80.3659343 -0.629039E-08  0.988E-04    0.17      14.8  T
   6    -80.3659343 -0.683796E-07  0.157E-04    0.17      93.0  T
   7    -80.3659343 -0.403844E-09  0.474E-05    0.17     308.0  T
     SCC iter.                  ...        0 min,  0.028 sec
     gradient                   ...        0 min,  0.101 sec
 * total energy  :   -79.4861406 Eh     change       -0.4426321E-04 Eh
   gradient norm :     0.0027158 Eh/α   predicted    -0.2868432E-04 ( -35.20%)
   displ. norm   :     0.3782586 α      lambda       -0.4927537E-04
   maximum displ.:     0.2141067 α      in ANC's #1, #2, #3, ...

........................................................................
.............................. CYCLE   38 ..............................
........................................................................
   1    -80.3631062 -0.803631E+02  0.795E-03    0.18       0.0  T
   2    -80.3630682  0.380119E-04  0.206E-02    0.16       1.0  T
   3    -80.3631061 -0.379207E-04  0.663E-03    0.18       2.2  T
   4    -80.3631089 -0.278842E-05  0.249E-03    0.17       5.8  T
   5    -80.3631092 -0.298421E-06  0.526E-04    0.17      27.7  T
   6    -80.3631093 -0.185710E-07  0.894E-05    0.17     163.1  T
   7    -80.3631093 -0.205546E-09  0.339E-05    0.17     430.7  T
     SCC iter.                  ...        0 min,  0.027 sec
     gradient                   ...        0 min,  0.101 sec
 * total energy  :   -79.4861575 Eh     change       -0.1692833E-04 Eh
   gradient norm :     0.0034111 Eh/α   predicted    -0.2817431E-04 (  66.43%)
   displ. norm   :     0.0638284 α      lambda       -0.3301636E-04
   maximum displ.:     0.0342455 α      in ANC's #1, #6, #2, ...

........................................................................
.............................. CYCLE   39 ..............................
........................................................................
   1    -80.3646410 -0.803646E+02  0.282E-03    0.17       0.0  T
   2    -80.3646356  0.538107E-05  0.850E-03    0.17       1.7  T
   3    -80.3646414 -0.580685E-05  0.196E-03    0.17       7.5  T
   4    -80.3646414  0.291060E-07  0.168E-03    0.17       8.7  T
   5    -80.3646415 -0.158155E-06  0.444E-04    0.17      32.8  T
   6    -80.3646415 -0.127940E-07  0.667E-05    0.17     218.8  T
   7    -80.3646415 -0.291763E-09  0.286E-05    0.17     510.5  T
     SCC iter.                  ...        0 min,  0.027 sec
     gradient                   ...        0 min,  0.101 sec
 * total energy  :   -79.4861809 Eh     change       -0.2339413E-04 Eh
   gradient norm :     0.0016736 Eh/α   predicted    -0.1657550E-04 ( -29.15%)
   displ. norm   :     0.1835261 α      lambda       -0.2629442E-04
   maximum displ.:     0.1102429 α      in ANC's #2, #3, #1, ...

........................................................................
.............................. CYCLE   40 ..............................
........................................................................
   1    -80.3651477 -0.803651E+02  0.106E-02    0.18       0.0  T
   2    -80.3649512  0.196425E-03  0.478E-02    0.15       1.0  T
   3    -80.3651590 -0.207767E-03  0.341E-03    0.17       4.3  T
   4    -80.3651587  0.327041E-06  0.348E-03    0.17       4.2  T
   5    -80.3651592 -0.566438E-06  0.180E-03    0.17       8.1  T
   6    -80.3651595 -0.223688E-06  0.527E-04    0.17      27.7  T
   7    -80.3651595 -0.235078E-07  0.431E-05    0.18     338.8  T
   8    -80.3651595  0.298343E-09  0.603E-05    0.18     241.8  T
     SCC iter.                  ...        0 min,  0.030 sec
     gradient                   ...        0 min,  0.101 sec
 * total energy  :   -79.4861975 Eh     change       -0.1655598E-04 Eh
   gradient norm :     0.0018284 Eh/α   predicted    -0.1334421E-04 ( -19.40%)
   displ. norm   :     0.0944115 α      lambda       -0.7120414E-05
   maximum displ.:     0.0618053 α      in ANC's #2, #1, #3, ...

........................................................................
.............................. CYCLE   41 ..............................
........................................................................
   1    -80.3646782 -0.803647E+02  0.311E-03    0.18       0.0  T
   2    -80.3646691  0.914708E-05  0.104E-02    0.17       1.4  T
   3    -80.3646789 -0.986700E-05  0.877E-04    0.18      16.6  T
   4    -80.3646790 -0.293980E-07  0.387E-04    0.18      37.7  T
   5    -80.3646790  0.153051E-10  0.116E-04    0.18     125.9  T
   6    -80.3646790 -0.859359E-09  0.246E-05    0.18     591.9  T
     SCC iter.                  ...        0 min,  0.021 sec
     gradient                   ...        0 min,  0.097 sec
 * total energy  :   -79.4862035 Eh     change       -0.6066885E-05 Eh
   gradient norm :     0.0012682 Eh/α   predicted    -0.3577071E-05 ( -41.04%)
   displ. norm   :     0.0313290 α      lambda       -0.6709266E-05
   maximum displ.:     0.0204632 α      in ANC's #2, #4, #20, ...

........................................................................
.............................. CYCLE   42 ..............................
........................................................................
   1    -80.3645272 -0.803645E+02  0.283E-03    0.18       0.0  T
   2    -80.3645208  0.642227E-05  0.881E-03    0.17       1.7  T
   3    -80.3645278 -0.700114E-05  0.751E-04    0.18      19.4  T
   4    -80.3645278 -0.159606E-07  0.472E-04    0.18      30.9  T
   5    -80.3645278 -0.372026E-08  0.204E-04    0.18      71.6  T
   6    -80.3645278 -0.256921E-08  0.317E-05    0.18     459.7  T
   7    -80.3645278 -0.383125E-10  0.897E-06    0.18    1625.6  T
     SCC iter.                  ...        0 min,  0.027 sec
     gradient                   ...        0 min,  0.100 sec
 * total energy  :   -79.4862086 Eh     change       -0.5082208E-05 Eh
   gradient norm :     0.0008745 Eh/α   predicted    -0.3358513E-05 ( -33.92%)
   displ. norm   :     0.0288588 α      lambda       -0.3040610E-05
   maximum displ.:     0.0197896 α      in ANC's #2, #11, #1, ...
 * RMSD in coord.:     0.6941591 α      energy gain  -0.9719929E-03 Eh

generating ANC from model Hessian ...
Using Lindh-Hessian (1995)
 Shifting diagonal of input Hessian by   9.818217685902146E-003
 Lowest  eigenvalues of input Hessian
    0.000000    0.000000    0.000000    0.000000    0.000000    0.000000
    0.010000    0.010063    0.010387    0.010823    0.011466    0.011963
    0.012886    0.013714    0.015643    0.016244    0.017574    0.017835
 Highest eigenvalues
    1.977607    2.046577    2.075672    2.174674    2.357335    2.382251
 

........................................................................
.............................. CYCLE   43 ..............................
........................................................................
   1    -80.3648272 -0.803648E+02  0.130E-03    0.18       0.0  T
   2    -80.3648258  0.139440E-05  0.421E-03    0.17       3.5  T
   3    -80.3648273 -0.153491E-05  0.484E-04    0.18      30.1  T
   4    -80.3648273  0.885491E-08  0.517E-04    0.18      28.2  T
   5    -80.3648273 -0.116052E-07  0.204E-04    0.18      71.7  T
   6    -80.3648273 -0.300199E-08  0.287E-05    0.18     508.0  T
   7    -80.3648273 -0.493259E-10  0.116E-05    0.18    1254.7  T
     SCC iter.                  ...        0 min,  0.024 sec
     gradient                   ...        0 min,  0.091 sec
 * total energy  :   -79.4862121 Eh     change       -0.3471419E-05 Eh
   gradient norm :     0.0006713 Eh/α   predicted     0.0000000E+00 (-100.00%)
   displ. norm   :     0.0161779 α      lambda       -0.4624573E-06
   maximum displ.:     0.0126038 α      in ANC's #2, #1, #3, ...

   *** GEOMETRY OPTIMIZATION CONVERGED AFTER 43 ITERATIONS ***

------------------------------------------------------------------------
 total energy gain   :        -0.0142499 Eh       -8.9419 kcal/mol
 total RMSD          :         1.2012208 a0        0.6357 Å
 total power (kW/mol):        -0.8700694 (step)   -4.9317 (real)
------------------------------------------------------------------------

 ANCopt (total)                0 d,  0 h,  0 min,  7.586 sec
 optimizer setup                ...        0 min,  0.001 sec (  0.011%)
 model hessian                  ...        0 min,  0.128 sec (  1.693%)
 ANC generation                 ...        0 min,  0.009 sec (  0.117%)
 coordinate transformation      ...        0 min,  0.002 sec (  0.021%)
 single point calculation       ...        0 min,  7.424 sec ( 97.861%)
 optimization log               ...        0 min,  0.011 sec (  0.152%)
 hessian update                 ...        0 min,  0.001 sec (  0.017%)
 rational function              ...        0 min,  0.006 sec (  0.073%)

================
 final structure:
================
47
 xtb: 6.5.1 (579679a)
C            2.28501555117421       -0.36403385094232        2.56399981884452
C            3.57630059289027       -0.58910369020781        1.73478025251809
C            4.49921234597947        0.55476495834568        1.85144420688357
C            5.10609611981891        1.06614290485926        0.74690148276158
F            5.94386136425484        2.08735066537898        0.87219396671894
C            4.86509273244770        0.56835700724252       -0.54221258100976
C            3.98803218250350       -0.49559424138278       -0.71579669456389
C            3.34033571949188       -1.07651707739240        0.35897744350420
C            2.36063483193444       -2.19119357135446        0.12153380400291
N            1.08160129977637       -1.56974400286646       -0.17920187273546
C            0.79517177375182       -1.13213423678180       -1.42668893247686
O            1.54186110658324       -1.31395321889735       -2.38596108702681
C           -0.50938566216807       -0.45225829068132       -1.53426526381082
N           -1.17847098435342       -0.22766569051800       -0.36728107128318
C           -2.33295676168307        0.36959580664208       -0.36674447723422
C           -2.97460682524163        0.55958446937347        1.00187828840030
C           -1.93569841098941        0.24706153137266        2.09135233526277
C           -4.16914465427054       -0.39125081888674        1.15612301323374
N           -3.42227089299190        1.93898852544469        1.15813250891358
N           -2.93067489349178        0.76182277592049       -1.53071315100970
C           -4.25569321862445        1.38959237540899       -1.59568728306672
C           -2.34437881718827        0.56743603803428       -2.78423621777929
O           -2.92510975898841        0.90617899242951       -3.80483746203420
C           -1.02732623261819       -0.06107476246417       -2.74154736537021
O           -0.40795223978820       -0.23861845643034       -3.91143873811692
H            1.72093368878515       -1.28974353009706        2.63917654114171
H            1.67497439947774        0.39486774356303        2.07937930663863
H            2.55183102669656       -0.03063071166021        3.56456767867620
H            4.08001372587060       -1.42749196892368        2.25384612612131
H            4.68086796428545        0.97129592376975        2.83474093603784
H            5.36428791144646        1.02411689914162       -1.38967107704100
H            3.79744171246789       -0.87013672921048       -1.71591698746744
H            2.24255866420268       -2.82876470905566        0.99670774624212
H            2.66096362524811       -2.78618822651647       -0.74530124561715
H            0.48178811663821       -1.28198314095952        0.57995671253942
H           -1.05343756695750        0.87024289571480        1.95782759215041
H           -2.36523591580064        0.44773954384661        3.07119069859772
H           -1.63343010833230       -0.79733833224704        2.04199306707808
H           -4.96307683995999       -0.14393807473205        0.45425086710227
H           -4.56358531010885       -0.31404340230357        2.16811604021726
H           -3.84752840676195       -1.41697240447711        0.98141068840256
H           -2.62260685652230        2.55555268951078        1.17867533594336
H           -3.91650503575239        2.03188915799251        2.03411391931965
H           -4.49346756695023        1.85277911857679       -0.64306925095631
H           -4.23623460847895        2.14933880502182       -2.37825960872139
H           -4.99908288834613        0.63290110531630       -1.84942842670934
H            0.46898500065328       -0.65722779392035       -3.76404558321440
 
 Bond Distances (Angstroems)
 ---------------------------
C1-C2=1.5510         C1-H26=1.0866        C1-H27=1.0876        C1-H28=1.0879        C2-C1=1.5510         C2-C3=1.4744         
C2-C8=1.4785         C2-H29=1.1073        C3-C2=1.4744         C3-C4=1.3601         C3-H30=1.0832        C4-C3=1.3601         
C4-F5=1.3268         C4-C6=1.4027         F5-C4=1.3268         C6-C4=1.4027         C6-C7=1.3897         C6-H31=1.0840        
C7-C6=1.3897         C7-C8=1.3828         C7-H32=1.0848        C8-C2=1.4785         C8-C7=1.3828         C8-C9=1.5029         
C9-C8=1.5029         C9-N10=1.4535        C9-H33=1.0892        C9-H34=1.0934        N10-C9=1.4535        N10-C11=1.3527       
N10-H35=1.0094       C11-N10=1.3527       C11-O12=1.2291       C11-C13=1.4750       O12-C11=1.2291       C13-C11=1.4750       
C13-N14=1.3638       C13-C24=1.3707       N14-C13=1.3638       N14-C15=1.2998       C15-N14=1.2998       C15-C16=1.5235       
C15-N20=1.3660       C16-C15=1.5235       C16-C17=1.5375       C16-C18=1.5345       C16-N19=1.4586       C17-C16=1.5375       
C17-H36=1.0884       C17-H37=1.0885       C17-H38=1.0884       C18-C16=1.5345       C18-H39=1.0882       C18-H40=1.0889       
C18-H41=1.0891       N19-C16=1.4586       N19-H42=1.0100       N19-H43=1.0101       N20-C15=1.3660       N20-C21=1.4676       
N20-C22=1.3974       C21-N20=1.4676       C21-H44=1.0856       C21-H45=1.0909       C21-H46=1.0907       C22-N20=1.3974       
C22-O23=1.2221       C22-C24=1.4600       O23-C22=1.2221       C24-C13=1.3707       C24-C22=1.4600       C24-O25=1.3356       
O25-C24=1.3356       O25-H47=0.9828       H26-C1=1.0866        H27-C1=1.0876        H28-C1=1.0879        H29-C2=1.1073        
H30-C3=1.0832        H31-C6=1.0840        H32-C7=1.0848        H33-C9=1.0892        H34-C9=1.0934        H35-N10=1.0094       
H36-C17=1.0884       H37-C17=1.0885       H38-C17=1.0884       H39-C18=1.0882       H40-C18=1.0889       H41-C18=1.0891       
H42-N19=1.0100       H43-N19=1.0101       H44-C21=1.0856       H45-C21=1.0909       H46-C21=1.0907       H47-O25=0.9828       
 C  H  Rav=1.0890 sigma=0.0050  Rmin=1.0832  Rmax=1.1073    18
 C  C  Rav=1.4602 sigma=0.0647  Rmin=1.3601  Rmax=1.5510    14
 N  H  Rav=1.0098 sigma=0.0003  Rmin=1.0094  Rmax=1.0101     3
 N  C  Rav=1.3949 sigma=0.0564  Rmin=1.2998  Rmax=1.4676     8
 O  H  Rav=0.9828 sigma=0.0000  Rmin=0.9828  Rmax=0.9828     1
 O  C  Rav=1.2623 sigma=0.0519  Rmin=1.2221  Rmax=1.3356     3
 F  C  Rav=1.3268 sigma=0.0000  Rmin=1.3268  Rmax=1.3268     1
 
 selected bond angles (degree)
 --------------------
H26-C1-C2=110.21               H27-C1-C2=109.27               H27-C1-H26=109.52              H28-C1-C2=109.39               
H28-C1-H26=108.95              H28-C1-H27=109.48              C3-C2-C1=111.48                C8-C2-C1=114.36                
C8-C2-C3=115.42                H29-C2-C1=103.77               H29-C2-C3=105.40               H29-C2-C8=105.02               
C4-C3-C2=120.45                H30-C3-C2=118.37               H30-C3-C4=121.18               F5-C4-C3=119.63                
C6-C4-C3=122.43                C6-C4-F5=117.93                C7-C6-C4=119.66                H31-C6-C4=119.35               
H31-C6-C7=120.99               C8-C7-C6=121.34                H32-C7-C6=119.36               H32-C7-C8=119.29               
C7-C8-C2=120.66                C9-C8-C2=119.71                C9-C8-C7=119.61                N10-C9-C8=106.81               
H33-C9-C8=112.20               H33-C9-N10=108.73              H34-C9-C8=110.47               H34-C9-N10=108.08              
H34-C9-H33=110.38              C11-N10-C9=121.03              H35-N10-C9=119.29              H35-N10-C11=118.39             
 
 selected dihedral angles (degree)
 ---------------------------------
C3-C2-C1-H26=192.09           C3-C2-C1-H27= 71.70           C3-C2-C1-H28=311.85           C8-C2-C1-H26= 58.88           
C8-C2-C1-H27=298.49           C8-C2-C1-H28=178.65           H29-C2-C1-H26=305.06          H29-C2-C1-H27=184.67          
H29-C2-C1-H28= 64.83          C4-C3-C2-C1=225.17            C4-C3-C2-C8=357.85            C4-C3-C2-H29=113.23           
H30-C3-C2-C1= 45.34           H30-C3-C2-C8=178.02           H30-C3-C2-H29=293.40          F5-C4-C3-C2=180.66            
F5-C4-C3-H30=  0.49           C6-C4-C3-C2=  1.75            C6-C4-C3-H30=181.58           C7-C6-C4-C3=359.29            
C7-C6-C4-F5=180.37            H31-C6-C4-C3=179.02           H31-C6-C4-F5=  0.10           C8-C7-C6-C4=  0.18            
C8-C7-C6-H31=180.45           H32-C7-C6-C4=179.38           H32-C7-C6-H31=359.65          C7-C8-C2-C1=132.98            
C7-C8-C2-C3=  1.65            C7-C8-C2-H29=246.06           C9-C8-C2-C1=314.54            C9-C8-C2-C3=183.21            
C9-C8-C2-H29= 67.62           C2-C8-C7-C6=359.27            C2-C8-C7-H32=180.07           C9-C8-C7-C6=177.71            
C9-C8-C7-H32=358.51           N10-C9-C8-C2= 93.36           N10-C9-C8-C7=274.91           H33-C9-C8-C2=334.30           
H33-C9-C8-C7=155.85           H34-C9-C8-C2=210.67           H34-C9-C8-C7= 32.22           C11-N10-C9-C8= 82.63          
C11-N10-C9-H33=203.91         C11-N10-C9-H34=323.74         H35-N10-C9-C8=275.80          H35-N10-C9-H33= 37.08         
H35-N10-C9-H34=156.92         
           -------------------------------------------------
          |                Final Singlepoint                |
           -------------------------------------------------

          ...................................................
          :                      SETUP                      :
          :.................................................:
          :  # basis functions                 144          :
          :  # atomic orbitals                 144          :
          :  # shells                           94          :
          :  # electrons                       134          :
          :  # halogen bonds                     0          :
          :  max. iterations                   250          :
          :  Hamiltonian                  GFN1-xTB          :
          :  restarted?                      false          :
          :  GBSA solvation                   true          :
          :  PC potential                    false          :
          :  electronic temp.          300.0000000     K    :
          :  accuracy                    1.0000000          :
          :  -> integral cutoff          0.2500000E+02      :
          :  -> integral neglect         0.1000000E-07      :
          :  -> SCF convergence          0.1000000E-05 Eh   :
          :  -> wf. convergence          0.2000000E-04 e    :
          :  Broyden damping             0.4000000          :
          ...................................................

 iter      E             dE          RMSdq      gap      omega  full diag
   1    -80.3648273 -0.803648E+02  0.123E-06    0.18       0.0  T
   2    -80.3648273  0.639488E-12  0.265E-06    0.18    5500.3  T
   3    -80.3648273 -0.838440E-12  0.776E-07    0.18   18789.5  T

   *** convergence criteria satisfied after 3 iterations ***

         #    Occupation            Energy/Eh            Energy/eV
      -------------------------------------------------------------
         1        2.0000           -0.9137629             -24.8648
       ...           ...                  ...                  ...
        61        2.0000           -0.4861045             -13.2276
        62        2.0000           -0.4782789             -13.0146
        63        2.0000           -0.4672115             -12.7135
        64        2.0000           -0.4621226             -12.5750
        65        2.0000           -0.4463132             -12.1448
        66        1.9999           -0.4295664             -11.6891
        67        1.9359           -0.4233432             -11.5198 (HOMO)
        68        0.0642           -0.4168684             -11.3436 (LUMO)
        69                         -0.3275791              -8.9139
        70                         -0.3230689              -8.7912
        71                         -0.2863862              -7.7930
        72                         -0.2448213              -6.6619
       ...                                ...                  ...
       144                          0.7082791              19.2733
      -------------------------------------------------------------
                  HL-Gap            0.0064748 Eh            0.1762 eV
             Fermi-level           -0.4201051 Eh          -11.4316 eV

 SCC (total)                   0 d,  0 h,  0 min,  0.152 sec
 SCC setup                      ...        0 min,  0.002 sec (  1.461%)
 Dispersion                     ...        0 min,  0.000 sec (  0.278%)
 classical contributions        ...        0 min,  0.000 sec (  0.092%)
 integral evaluation            ...        0 min,  0.040 sec ( 26.055%)
 iterations                     ...        0 min,  0.012 sec (  8.138%)
 molecular gradient             ...        0 min,  0.096 sec ( 63.366%)
 printout                       ...        0 min,  0.001 sec (  0.589%)

         :::::::::::::::::::::::::::::::::::::::::::::::::::::
         ::                     SUMMARY                     ::
         :::::::::::::::::::::::::::::::::::::::::::::::::::::
         :: total energy             -79.486212095766 Eh    ::
         :: total w/o Gsasa/hb       -79.460358520679 Eh    ::
         :: gradient norm              0.000672271432 Eh/a0 ::
         :: HOMO-LUMO gap              0.176188130655 eV    ::
         ::.................................................::
         :: SCC energy               -80.364827332531 Eh    ::
         :: -> electrostatic           0.338811668001 Eh    ::
         :: -> Gsolv                  -0.117016789143 Eh    ::
         ::    -> Gelec               -0.091163214057 Eh    ::
         ::    -> Gsasa               -0.023552343220 Eh    ::
         ::    -> Ghb                 -0.009925510871 Eh    ::
         ::    -> Gshift               0.007624279005 Eh    ::
         :: repulsion energy           0.910239162800 Eh    ::
         :: dispersion energy         -0.031623926034 Eh    ::
         :: halogen bond corr.         0.000000000000 Eh    ::
         :: add. restraining           0.000000000000 Eh    ::
         :: total charge               1.000000000020 e     ::
         :::::::::::::::::::::::::::::::::::::::::::::::::::::

           -------------------------------------------------
          |                Property Printout                |
           -------------------------------------------------

    * Orbital Energies and Occupations

         #    Occupation            Energy/Eh            Energy/eV
      -------------------------------------------------------------
         1        2.0000           -0.9137629             -24.8648
       ...           ...                  ...                  ...
        55        2.0000           -0.5219231             -14.2023
        56        2.0000           -0.5182731             -14.1029
        57        2.0000           -0.5089197             -13.8484
        58        2.0000           -0.5033397             -13.6966
        59        2.0000           -0.5016620             -13.6509
        60        2.0000           -0.4951111             -13.4727
        61        2.0000           -0.4861045             -13.2276
        62        2.0000           -0.4782789             -13.0146
        63        2.0000           -0.4672115             -12.7135
        64        2.0000           -0.4621226             -12.5750
        65        2.0000           -0.4463132             -12.1448
        66        1.9999           -0.4295664             -11.6891
        67        1.9359           -0.4233432             -11.5198 (HOMO)
        68        0.0642           -0.4168684             -11.3436 (LUMO)
        69                         -0.3275791              -8.9139
        70                         -0.3230689              -8.7912
        71                         -0.2863862              -7.7930
        72                         -0.2448213              -6.6619
        73                         -0.2398070              -6.5255
        74                         -0.1656449              -4.5074
        75                         -0.1609784              -4.3804
        76                         -0.1565094              -4.2588
        77                         -0.1448383              -3.9413
        78                         -0.1392971              -3.7905
       ...                                ...                  ...
       144                          0.7082791              19.2733
      -------------------------------------------------------------
                  HL-Gap            0.0064748 Eh            0.1762 eV
             Fermi-level           -0.4201051 Eh          -11.4316 eV

  Mulliken/CM5 charges         n(s)   n(p)   n(d)
     1C    -0.07673 -0.22619   1.026  3.051  0.000
     2C    -0.01462 -0.07396   1.062  2.952  0.000
     3C     0.00207 -0.05112   1.101  2.897  0.000
     4C     0.26692  0.27862   1.038  2.695  0.000
     5F    -0.22597 -0.25105   1.818  5.408  0.000
     6C     0.03502 -0.01572   1.099  2.866  0.000
     7C    -0.00747 -0.05967   1.071  2.937  0.000
     8C     0.07316  0.06208   1.140  2.786  0.000
     9C     0.08918  0.04510   1.011  2.899  0.000
    10N    -0.31664 -0.67837   1.431  3.886  0.000
    11C     0.46675  0.57162   0.989  2.545  0.000
    12O    -0.58872 -0.65131   1.729  4.860  0.000
    13C     0.06174  0.14129   1.043  2.895  0.000
    14N    -0.39616 -0.59289   1.527  3.869  0.000
    15C     0.27957  0.43112   1.025  2.696  0.000
    16C     0.14558  0.18008   1.066  2.789  0.000
    17C    -0.10956 -0.24946   1.024  3.086  0.000
    18C    -0.10795 -0.24949   1.021  3.087  0.000
    19N    -0.49355 -0.95816   1.475  4.019  0.000
    20N    -0.20673 -0.45347   1.456  3.750  0.000
    21C     0.04511 -0.04250   0.995  2.960  0.000
    22C     0.44278  0.54462   0.987  2.571  0.000
    23O    -0.57576 -0.61899   1.727  4.849  0.000
    24C     0.23550  0.26972   1.026  2.739  0.000
    25O    -0.50531 -0.69437   1.695  4.810  0.000
    26H     0.07239  0.12728   0.928  0.000  0.000
    27H     0.06895  0.12353   0.931  0.000  0.000
    28H     0.08132  0.13392   0.919  0.000  0.000
    29H     0.15519  0.21495   0.845  0.000  0.000
    30H     0.11298  0.17043   0.887  0.000  0.000
    31H     0.11261  0.16952   0.887  0.000  0.000
    32H     0.10441  0.16729   0.896  0.000  0.000
    33H     0.07737  0.14368   0.923  0.000  0.000
    34H     0.09359  0.16417   0.906  0.000  0.000
    35H     0.25797  0.46435   0.742  0.000  0.000
    36H     0.03927  0.09856   0.961  0.000  0.000
    37H     0.05115  0.10688   0.949  0.000  0.000
    38H     0.04165  0.09997   0.958  0.000  0.000
    39H     0.04535  0.10289   0.955  0.000  0.000
    40H     0.05566  0.11087   0.944  0.000  0.000
    41H     0.04589  0.10062   0.954  0.000  0.000
    42H     0.23261  0.42438   0.767  0.000  0.000
    43H     0.23773  0.42853   0.762  0.000  0.000
    44H     0.05862  0.13505   0.941  0.000  0.000
    45H     0.07076  0.13942   0.929  0.000  0.000
    46H     0.05993  0.12337   0.940  0.000  0.000
    47H     0.40640  0.59281   0.594  0.000  0.000

Wiberg/Mayer (AO) data.
largest (>0.10) Wiberg bond orders for each atom

 ---------------------------------------------------------------------------
     #   Z sym  total        # sym  WBO       # sym  WBO       # sym  WBO
 ---------------------------------------------------------------------------
     1   6 C    3.963 --    27 H    0.982    26 H    0.981    28 H    0.980
                             2 C    0.917
     2   6 C    3.987 --     3 C    1.084     8 C    1.081     1 C    0.917
                            29 H    0.836
     3   6 C    3.931 --     4 C    1.539     2 C    1.084    30 H    0.959
     4   6 C    3.882 --     3 C    1.539     6 C    1.288     5 F    0.965
     5   9 F    1.107 --     4 C    0.965
     6   6 C    3.912 --     7 C    1.420     4 C    1.288    31 H    0.961
     7   6 C    3.980 --     8 C    1.475     6 C    1.420    32 H    0.954
     8   6 C    3.897 --     7 C    1.475     2 C    1.081     9 C    1.010
     9   6 C    3.946 --     8 C    1.010    33 H    0.970    34 H    0.961
                            10 N    0.935
    10   7 N    3.346 --    11 C    1.231     9 C    0.935    35 H    0.884
                            12 O    0.147
    11   6 C    3.897 --    12 O    1.548    10 N    1.231    13 C    1.027
    12   8 O    1.922 --    11 C    1.548    10 N    0.147
    13   6 C    3.958 --    24 C    1.469    14 N    1.192    11 C    1.027
    14   7 N    3.043 --    15 C    1.540    13 C    1.192
    15   6 C    3.918 --    14 N    1.540    20 N    1.195    16 C    0.975
    16   6 C    3.958 --    17 C    0.986    18 C    0.983    19 N    0.981
                            15 C    0.975
    17   6 C    3.983 --    16 C    0.986    37 H    0.984    36 H    0.984
                            38 H    0.982
    18   6 C    3.991 --    41 H    0.985    16 C    0.983    40 H    0.982
                            39 H    0.982
    19   7 N    2.971 --    16 C    0.981    42 H    0.934    43 H    0.932
    20   7 N    3.511 --    15 C    1.195    22 C    1.108    21 C    0.927
                            23 O    0.134
    21   6 C    3.913 --    45 H    0.976    46 H    0.976    44 H    0.966
                            20 N    0.927
    22   6 C    3.911 --    23 O    1.584    20 N    1.108    24 C    1.071
    23   8 O    1.894 --    22 C    1.584    20 N    0.134
    24   6 C    3.910 --    13 C    1.469    25 O    1.119    22 C    1.071
    25   8 O    2.083 --    24 C    1.119    47 H    0.783
    26   1 H    0.994 --     1 C    0.981
    27   1 H    0.999 --     1 C    0.982
    28   1 H    0.992 --     1 C    0.980
    29   1 H    0.970 --     2 C    0.836
    30   1 H    0.985 --     3 C    0.959
    31   1 H    0.988 --     6 C    0.961
    32   1 H    1.004 --     7 C    0.954
    33   1 H    0.995 --     9 C    0.970
    34   1 H    0.999 --     9 C    0.961
    35   1 H    0.954 --    10 N    0.884
    36   1 H    1.010 --    17 C    0.984
    37   1 H    1.001 --    17 C    0.984
    38   1 H    1.010 --    17 C    0.982
    39   1 H    1.002 --    18 C    0.982
    40   1 H    0.998 --    18 C    0.982
    41   1 H    1.002 --    18 C    0.985
    42   1 H    0.949 --    19 N    0.934
    43   1 H    0.947 --    19 N    0.932
    44   1 H    1.024 --    21 C    0.966
    45   1 H    1.008 --    21 C    0.976
    46   1 H    1.002 --    21 C    0.976
    47   1 H    0.854 --    25 O    0.783
 ---------------------------------------------------------------------------

Topologies differ in total number of bonds
Writing topology from bond orders to xtbtopo.mol

 dipole moment from electron density (au)
     X       Y       Z   
   4.7502  -0.9690   5.9345  total (Debye):   19.477

           -------------------------------------------------
          |                Geometry Summary                 |
           -------------------------------------------------

      molecular mass/u    :      349.3806376
   center of mass at/Å    :        0.3440537       0.0683045      -0.4076230
  moments of inertia/u·Å² :        0.1463602E+04   0.4127622E+04   0.4792208E+04
rotational constants/cm⁻¹ :        0.1151791E-01   0.4084102E-02   0.3517717E-02

 * 43 selected distances

     #   Z          #   Z                                           value/Å
     2   6 C        3   6 C                                       1.4743855
     3   6 C        4   6 C                                       1.3600847
     4   6 C        5   9 F                                       1.3268061
     4   6 C        6   6 C                                       1.4027433
     6   6 C        7   6 C                                       1.3897335
     2   6 C        8   6 C                                       1.4785415
     7   6 C        8   6 C                                       1.3827949
     9   6 C       10   7 N                                       1.4534678
    10   7 N       11   6 C                                       1.3526894
    11   6 C       12   8 O                                       1.2291487
    13   6 C       14   7 N                                       1.3638070
    14   7 N       15   6 C                                       1.2998305
    16   6 C       17   6 C                                       1.5375160 (max)
    16   6 C       18   6 C                                       1.5345358
    16   6 C       19   7 N                                       1.4586207
    15   6 C       20   7 N                                       1.3659914
    20   7 N       21   6 C                                       1.4676479
    20   7 N       22   6 C                                       1.3974440
    22   6 C       23   8 O                                       1.2221385
    13   6 C       24   6 C                                       1.3706996
    24   6 C       25   8 O                                       1.3355868
     1   6 C       26   1 H                                       1.0866363
     1   6 C       27   1 H                                       1.0876300
     1   6 C       28   1 H                                       1.0878807
     2   6 C       29   1 H                                       1.1072721
     3   6 C       30   1 H                                       1.0832218
     6   6 C       31   1 H                                       1.0840198
     7   6 C       32   1 H                                       1.0848261
     9   6 C       33   1 H                                       1.0892055
     9   6 C       34   1 H                                       1.0934438
    10   7 N       35   1 H                                       1.0094078
    17   6 C       36   1 H                                       1.0883787
    17   6 C       37   1 H                                       1.0885116
    17   6 C       38   1 H                                       1.0883813
    18   6 C       39   1 H                                       1.0881712
    18   6 C       40   1 H                                       1.0888868
    18   6 C       41   1 H                                       1.0890668
    19   7 N       42   1 H                                       1.0099684
    19   7 N       43   1 H                                       1.0100701
    21   6 C       44   1 H                                       1.0856150
    21   6 C       45   1 H                                       1.0908771
    21   6 C       46   1 H                                       1.0906854
    25   8 O       47   1 H                                       0.9828416 (min)

 * 7 distinct bonds (by element types)

   Z      Z             #   av. dist./Å        max./Å        min./Å
   1 H    6 C          18     1.0890395     1.1072721     1.0832218
   6 C    6 C           9     1.4367817     1.5375160     1.3600847
   1 H    7 N           3     1.0098154     1.0100701     1.0094078
   6 C    7 N           8     1.3949373     1.4676479     1.2998305
   1 H    8 O           1     0.9828416     0.9828416     0.9828416
   6 C    8 O           3     1.2622913     1.3355868     1.2221385
   6 C    9 F           1     1.3268061     1.3268061     1.3268061


optimized geometry written to: xtbopt.xyz


           -------------------------------------------------
          | TOTAL ENERGY              -79.486212095766 Eh   |
          | GRADIENT NORM               0.000672271432 Eh/α |
          | HOMO-LUMO GAP               0.176188130655 eV   |
           -------------------------------------------------

------------------------------------------------------------------------
 * finished run on 2023/06/20 at 15:28:24.153     
------------------------------------------------------------------------
 total:
 * wall-time:     0 d,  0 h,  0 min,  8.098 sec
 *  cpu-time:     0 d,  0 h,  0 min,  7.903 sec
 * ratio c/w:     0.976 speedup
 SCF:
 * wall-time:     0 d,  0 h,  0 min,  0.244 sec
 *  cpu-time:     0 d,  0 h,  0 min,  0.208 sec
 * ratio c/w:     0.851 speedup
 ANC optimizer:
 * wall-time:     0 d,  0 h,  0 min,  7.755 sec
 *  cpu-time:     0 d,  0 h,  0 min,  7.642 sec
 * ratio c/w:     0.985 speedup

