      -----------------------------------------------------------      
     |                   =====================                   |     
     |                           x T B                           |     
     |                   =====================                   |     
     |                         S. Grimme                         |     
     |          Mulliken Center for Theoretical Chemistry        |     
     |                    University of Bonn                     |     
      -----------------------------------------------------------      

   * xtb version 6.5.1 (579679a) compiled by 'ehlert@majestix' on 2022-07-11

   xtb is free software: you can redistribute it and/or modify it under
   the terms of the GNU Lesser General Public License as published by
   the Free Software Foundation, either version 3 of the License, or
   (at your option) any later version.
   
   xtb is distributed in the hope that it will be useful,
   but WITHOUT ANY WARRANTY; without even the implied warranty of
   MERCHANTABILITY or FITNESS FOR A PARTICULAR PURPOSE.  See the
   GNU Lesser General Public License for more details.
   
   Cite this work as:
   * C. Bannwarth, E. Caldeweyher, S. Ehlert, A. Hansen, P. Pracht,
     J. Seibert, S. Spicher, S. Grimme, WIREs Comput. Mol. Sci., 2020, 11,
     e01493. DOI: 10.1002/wcms.1493
   
   for GFN2-xTB:
   * C. Bannwarth, S. Ehlert and S. Grimme., J. Chem. Theory Comput., 2019,
     15, 1652-1671. DOI: 10.1021/acs.jctc.8b01176
   for GFN1-xTB:
   * S. Grimme, C. Bannwarth, P. Shushkov, J. Chem. Theory Comput., 2017,
     13, 1989-2009. DOI: 10.1021/acs.jctc.7b00118
   for GFN0-xTB:
   * P. Pracht, E. Caldeweyher, S. Ehlert, S. Grimme, ChemRxiv, 2019, preprint.
     DOI: 10.26434/chemrxiv.8326202.v1
   for GFN-FF:
   * S. Spicher and S. Grimme, Angew. Chem. Int. Ed., 2020, 59, 15665-15673.
     DOI: 10.1002/anie.202004239
   
   for ALPB and GBSA implicit solvation:
   * S. Ehlert, M. Stahn, S. Spicher, S. Grimme, J. Chem. Theory Comput.,
     2021, 17, 4250-4261. DOI: 10.1021/acs.jctc.1c00471
   
   for DFT-D4:
   * E. Caldeweyher, C. Bannwarth and S. Grimme, J. Chem. Phys., 2017,
     147, 034112. DOI: 10.1063/1.4993215
   * E. Caldeweyher, S. Ehlert, A. Hansen, H. Neugebauer, S. Spicher,
     C. Bannwarth and S. Grimme, J. Chem. Phys., 2019, 150, 154122.
     DOI: 10.1063/1.5090222
   * E. Caldeweyher, J.-M. Mewes, S. Ehlert and S. Grimme, Phys. Chem. Chem. Phys.
     2020, 22, 8499-8512. DOI: 10.1039/D0CP00502A
   
   for sTDA-xTB:
   * S. Grimme and C. Bannwarth, J. Chem. Phys., 2016, 145, 054103.
     DOI: 10.1063/1.4959605
   
   in the mass-spec context:
   * V. Asgeirsson, C. Bauer and S. Grimme, Chem. Sci., 2017, 8, 4879.
     DOI: 10.1039/c7sc00601b
   * J. Koopman and S. Grimme, ACS Omega 2019, 4, 12, 15120-15133.
     DOI: 10.1021/acsomega.9b02011
   
   for metadynamics refer to:
   * S. Grimme, J. Chem. Theory Comput., 2019, 155, 2847-2862
     DOI: 10.1021/acs.jctc.9b00143
   
   for SPH calculations refer to:
   * S. Spicher and S. Grimme, J. Chem. Theory Comput., 2021, 17, 1701-1714
     DOI: 10.1021/acs.jctc.0c01306
   
   with help from (in alphabetical order)
   P. Atkinson, C. Bannwarth, F. Bohle, G. Brandenburg, E. Caldeweyher
   M. Checinski, S. Dohm, S. Ehlert, S. Ehrlich, I. Gerasimov, C. Hölzer
   A. Katbashev, J. Koopman, C. Lavigne, S. Lehtola, F. März, M. Müller,
   F. Musil, H. Neugebauer, J. Pisarek, C. Plett, P. Pracht, F. Pultar,
   J. Seibert, P. Shushkov, S. Spicher, M. Stahn, M. Steiner, T. Strunk,
   J. Stückrath, T. Rose, and J. Unsleber
   
 * started run on 2023/06/20 at 15:06:07.814     

           -------------------------------------------------
          |                Calculation Setup                |
           -------------------------------------------------

          program call               : /lustre/hpc/kemi/ree/PhD/git/ReactivityQM/dep/xtb-6.5.1/bin/xtb --gfn 1 /lustre/hpc/kemi/ree/PhD/git/ReactivityQM/calculations/RaltegravirCLI/reac02prodE07/conf20/RaltegravirCLI_reac02prodE07_conf20_gfn1.xyz --opt --vfukui --chrg -1 --uhf 0 --alpb DMSO
          hostname                   : node308
          coordinate file            : /lustre/hpc/kemi/ree/PhD/git/ReactivityQM/calculations/RaltegravirCLI/reac02prodE07/conf20/RaltegravirCLI_reac02prodE07_conf20_gfn1.xyz
          omp threads                :                     1

   ID    Z sym.   atoms
    1    6 C      1-4, 6-9, 11, 13, 15-18, 21, 22, 24
    2    9 F      5
    3    7 N      10, 14, 19, 20
    4    8 O      12, 23, 25
    5    1 H      26-47

           -------------------------------------------------
          |                 G F N 1 - x T B                 |
           -------------------------------------------------

        Reference                      10.1021/acs.jctc.7b00118
      * Hamiltonian:
        H0-scaling (s, p, d)           1.850000    2.250000    2.000000
        zeta-weighting                 0.000000
      * Dispersion:
        s8                             2.400000
        a1                             0.630000
        a2                             5.000000
        s9                             0.000000
      * Repulsion:
        kExp                           1.500000
        rExp                           1.000000
      * Coulomb:
        alpha                          2.000000
        third order                    atomic
        anisotropic                    false
      * Halogen bond correction:
        rad-scale                      1.300000
        damping                        0.440000

      * Solvation model:               ALPB
        Solvent                        DMSO
        Parameter file                 internal GFN1-xTB/ALPB
        Dielectric constant                4.6680E+01
        Reference state                gsolv [1 M gas/solution]
        Free energy shift                  7.6243E-03 Eh       4.7843E+00 kcal/mol
        Temperature                        2.9815E+02 K
        Density                            1.1000E+00 kg/L
        Solvent mass                       7.8130E+01 g/mol
        Interaction kernel             P16
        Born radius scaling (c1)           1.7672E+00
        Born radii integrator          GBOBC
        Born offset                        0.0000E+00 a0       0.0000E+00 AA
        H-bond correction              true
        Ion screening                  false
        Surface tension                    1.0000E-05 Eh       1.5569E+01 dyn/cm
        Grid points                               230 per atom

          ...................................................
          :                      SETUP                      :
          :.................................................:
          :  # basis functions                 144          :
          :  # atomic orbitals                 144          :
          :  # shells                           94          :
          :  # electrons                       136          :
          :  # halogen bonds                     0          :
          :  max. iterations                   250          :
          :  Hamiltonian                  GFN1-xTB          :
          :  restarted?                      false          :
          :  GBSA solvation                   true          :
          :  PC potential                    false          :
          :  electronic temp.          300.0000000     K    :
          :  accuracy                    1.0000000          :
          :  -> integral cutoff          0.2500000E+02      :
          :  -> integral neglect         0.1000000E-07      :
          :  -> SCF convergence          0.1000000E-05 Eh   :
          :  -> wf. convergence          0.2000000E-04 e    :
          :  Broyden damping             0.4000000          :
          ...................................................

 iter      E             dE          RMSdq      gap      omega  full diag
   1    -80.8335074 -0.808335E+02  0.882E+00    1.18       0.0  T
   2    -80.7221015  0.111406E+00  0.544E+00    0.25       1.0  T
   3    -79.5203658  0.120174E+01  0.400E+00    0.42       1.0  T
   4    -80.9936471 -0.147328E+01  0.136E+00    1.54       1.0  T
   5    -81.0182655 -0.246184E-01  0.720E-01    1.30       1.0  T
   6    -81.0298117 -0.115463E-01  0.351E-01    0.51       1.0  T
   7    -81.0034105  0.264012E-01  0.602E-01    0.09       1.0  T
   8    -81.0287444 -0.253339E-01  0.403E-01    0.57       1.0  T
   9    -81.0315525 -0.280806E-02  0.335E-01    0.38       1.0  T
  10    -81.0371940 -0.564148E-02  0.211E-01    0.21       1.0  T
  11    -81.0168093  0.203846E-01  0.460E-01    0.09       1.0  T
  12    -81.0407159 -0.239065E-01  0.102E-01    0.16       1.0  T
  13    -81.0416970 -0.981112E-03  0.376E-02    0.15       1.0  T
  14    -81.0416833  0.136265E-04  0.391E-02    0.15       1.0  T
  15    -81.0418472 -0.163808E-03  0.101E-02    0.14       1.4  T
  16    -81.0418367  0.104432E-04  0.140E-02    0.14       1.0  T
  17    -81.0418590 -0.223011E-04  0.502E-04    0.14      29.1  T
  18    -81.0418590  0.676479E-09  0.504E-04    0.14      28.9  T
  19    -81.0418590 -0.148381E-07  0.348E-04    0.14      41.9  T
  20    -81.0418590 -0.126927E-07  0.988E-05    0.14     147.7  T
  21    -81.0418590 -0.958877E-09  0.358E-05    0.14     407.0  T

   *** convergence criteria satisfied after 21 iterations ***

         #    Occupation            Energy/Eh            Energy/eV
      -------------------------------------------------------------
         1        2.0000           -0.8108402             -22.0641
       ...           ...                  ...                  ...
        62        2.0000           -0.4136249             -11.2553
        63        2.0000           -0.4097618             -11.1502
        64        2.0000           -0.4049800             -11.0201
        65        2.0000           -0.4019517             -10.9377
        66        2.0000           -0.3930601             -10.6957
        67        2.0000           -0.3828203             -10.4171
        68        1.8672           -0.2953315              -8.0364 (HOMO)
        69        0.1328           -0.2903084              -7.8997 (LUMO)
        70                         -0.2568848              -6.9902
        71                         -0.2039281              -5.5492
        72                         -0.1971847              -5.3657
        73                         -0.1274299              -3.4675
       ...                                ...                  ...
       144                          0.7208589              19.6156
      -------------------------------------------------------------
                  HL-Gap            0.0050231 Eh            0.1367 eV
             Fermi-level           -0.2928200 Eh           -7.9680 eV

 SCC (total)                   0 d,  0 h,  0 min,  0.221 sec
 SCC setup                      ...        0 min,  0.002 sec (  1.125%)
 Dispersion                     ...        0 min,  0.000 sec (  0.226%)
 classical contributions        ...        0 min,  0.000 sec (  0.075%)
 integral evaluation            ...        0 min,  0.041 sec ( 18.330%)
 iterations                     ...        0 min,  0.085 sec ( 38.500%)
 molecular gradient             ...        0 min,  0.091 sec ( 41.237%)
 printout                       ...        0 min,  0.001 sec (  0.482%)

         :::::::::::::::::::::::::::::::::::::::::::::::::::::
         ::                     SUMMARY                     ::
         :::::::::::::::::::::::::::::::::::::::::::::::::::::
         :: total energy             -80.182986838032 Eh    ::
         :: total w/o Gsasa/hb       -80.159072200481 Eh    ::
         :: gradient norm              0.086252891973 Eh/a0 ::
         :: HOMO-LUMO gap              0.136684671642 eV    ::
         ::.................................................::
         :: SCC energy               -81.041859036006 Eh    ::
         :: -> electrostatic           0.319858908760 Eh    ::
         :: -> Gsolv                  -0.098742613406 Eh    ::
         ::    -> Gelec               -0.074827975854 Eh    ::
         ::    -> Gsasa               -0.024604189071 Eh    ::
         ::    -> Ghb                 -0.006934727486 Eh    ::
         ::    -> Gshift               0.007624279005 Eh    ::
         :: repulsion energy           0.889225718486 Eh    ::
         :: dispersion energy         -0.030353520512 Eh    ::
         :: halogen bond corr.         0.000000000000 Eh    ::
         :: add. restraining           0.000000000000 Eh    ::
         :: total charge              -1.000000000000 e     ::
         :::::::::::::::::::::::::::::::::::::::::::::::::::::

      ----------------------------------------------------------- 
     |                   =====================                   |
     |                        A N C O P T                        |
     |                   =====================                   |
     |               Approximate Normal Coordinate               |
     |                Rational Function Optimizer                |
      ----------------------------------------------------------- 

          ...................................................
          :                      SETUP                      :
          :.................................................:
          :   optimization level            normal          :
          :   max. optcycles                   200          :
          :   ANC micro-cycles                  20          :
          :   degrees of freedom               135          :
          :.................................................:
          :   RF solver                   davidson          :
          :   write xtbopt.log                true          :
          :   linear?                        false          :
          :   energy convergence         0.5000000E-05 Eh   :
          :   grad. convergence          0.1000000E-02 Eh/α :
          :   maximium RF displ.         1.0000000          :
          :   Hlow (freq-cutoff)         0.1000000E-01      :
          :   Hmax (freq-cutoff)         5.0000000          :
          :   S6 in model hess.         20.0000000          :
          ...................................................

generating ANC from model Hessian ...
Using Lindh-Hessian (1995)
 Shifting diagonal of input Hessian by   9.811438677487233E-003
 Lowest  eigenvalues of input Hessian
    0.000000    0.000000    0.000000    0.000000    0.000000    0.000000
    0.010000    0.010020    0.010234    0.010671    0.011112    0.011770
    0.012490    0.013307    0.014889    0.015190    0.015874    0.016626
 Highest eigenvalues
    1.939378    1.963191    2.036162    2.114928    2.282342    2.338925
 

........................................................................
.............................. CYCLE    1 ..............................
........................................................................
   1    -81.0418590 -0.810419E+02  0.285E-06    0.14       0.0  T
   2    -81.0418590  0.563887E-10  0.222E-05    0.14     656.2  T
   3    -81.0418590 -0.571418E-10  0.282E-07    0.14   51645.0  T
     SCC iter.                  ...        0 min,  0.016 sec
     gradient                   ...        0 min,  0.093 sec
 * total energy  :   -80.1829868 Eh     change       -0.1461444E-09 Eh
   gradient norm :     0.0862521 Eh/α   predicted     0.0000000E+00 (-100.00%)
   displ. norm   :     0.2909416 α      lambda       -0.1258482E-01
   maximum displ.:     0.0926079 α      in ANC's #9, #75, #40, ...

........................................................................
.............................. CYCLE    2 ..............................
........................................................................
   1    -81.0391501 -0.810392E+02  0.140E-01    0.19       0.0  T
   2    -80.8147510  0.224399E+00  0.137E+00    0.15       1.0  T
   3    -81.0402413 -0.225490E+00  0.846E-02    0.17       1.0  T
   4    -81.0409788 -0.737504E-03  0.286E-02    0.16       1.0  T
   5    -81.0410314 -0.525784E-04  0.163E-02    0.14       1.0  T
   6    -81.0410368 -0.544691E-05  0.141E-02    0.15       1.0  T
   7    -81.0410567 -0.198890E-04  0.495E-03    0.15       2.9  T
   8    -81.0410594 -0.272851E-05  0.751E-04    0.15      19.4  T
   9    -81.0410595 -0.532904E-07  0.253E-04    0.15      57.7  T
  10    -81.0410595 -0.456734E-08  0.143E-04    0.15     102.3  T
  11    -81.0410595 -0.204969E-08  0.432E-05    0.15     338.0  T
     SCC iter.                  ...        0 min,  0.042 sec
     gradient                   ...        0 min,  0.092 sec
 * total energy  :   -80.1917756 Eh     change       -0.8788804E-02 Eh
   gradient norm :     0.0417281 Eh/α   predicted    -0.6830803E-02 ( -22.28%)
   displ. norm   :     0.2629653 α      lambda       -0.4343636E-02
   maximum displ.:     0.0941872 α      in ANC's #9, #10, #7, ...

........................................................................
.............................. CYCLE    3 ..............................
........................................................................
   1    -81.0427561 -0.810428E+02  0.125E-01    0.20       0.0  T
   2    -80.8614474  0.181309E+00  0.123E+00    0.13       1.0  T
   3    -81.0435024 -0.182055E+00  0.840E-02    0.19       1.0  T
   4    -81.0440519 -0.549520E-03  0.458E-02    0.17       1.0  T
   5    -81.0442794 -0.227491E-03  0.255E-03    0.16       5.7  T
   6    -81.0442766  0.282579E-05  0.511E-03    0.16       2.9  T
   7    -81.0442789 -0.239454E-05  0.217E-03    0.16       6.7  T
   8    -81.0442795 -0.539381E-06  0.126E-04    0.16     115.7  T
   9    -81.0442795  0.855650E-09  0.139E-04    0.16     104.9  T
     SCC iter.                  ...        0 min,  0.035 sec
     gradient                   ...        0 min,  0.092 sec
 * total energy  :   -80.1942777 Eh     change       -0.2502040E-02 Eh
   gradient norm :     0.0130334 Eh/α   predicted    -0.2323184E-02 (  -7.15%)
   displ. norm   :     0.1666951 α      lambda       -0.5658072E-03
   maximum displ.:     0.0719349 α      in ANC's #7, #10, #9, ...

........................................................................
.............................. CYCLE    4 ..............................
........................................................................
   1    -81.0461986 -0.810462E+02  0.432E-02    0.18       0.0  T
   2    -81.0313301  0.148685E-01  0.357E-01    0.11       1.0  T
   3    -81.0463597 -0.150296E-01  0.195E-02    0.17       1.0  T
   4    -81.0463880 -0.283141E-04  0.101E-02    0.17       1.4  T
   5    -81.0463986 -0.106510E-04  0.174E-03    0.16       8.4  T
   6    -81.0463988 -0.172246E-06  0.420E-04    0.16      34.7  T
   7    -81.0463988 -0.167391E-07  0.103E-04    0.16     141.8  T
   8    -81.0463988  0.776765E-10  0.876E-05    0.16     166.6  T
     SCC iter.                  ...        0 min,  0.031 sec
     gradient                   ...        0 min,  0.092 sec
 * total energy  :   -80.1947159 Eh     change       -0.4382082E-03 Eh
   gradient norm :     0.0081157 Eh/α   predicted    -0.2907687E-03 ( -33.65%)
   displ. norm   :     0.2930272 α      lambda       -0.6522898E-03
   maximum displ.:     0.1207701 α      in ANC's #10, #7, #2, ...

........................................................................
.............................. CYCLE    5 ..............................
........................................................................
   1    -81.0479326 -0.810479E+02  0.407E-02    0.18       0.0  T
   2    -81.0372926  0.106400E-01  0.303E-01    0.12       1.0  T
   3    -81.0480727 -0.107801E-01  0.195E-02    0.17       1.0  T
   4    -81.0480954 -0.226887E-04  0.116E-02    0.17       1.3  T
   5    -81.0481082 -0.128104E-04  0.318E-03    0.17       4.6  T
   6    -81.0481090 -0.805896E-06  0.362E-04    0.17      40.3  T
   7    -81.0481090 -0.488271E-09  0.213E-04    0.17      68.5  T
   8    -81.0481091 -0.285389E-08  0.114E-04    0.17     128.1  T
   9    -81.0481091 -0.119361E-08  0.319E-05    0.17     456.8  T
     SCC iter.                  ...        0 min,  0.040 sec
     gradient                   ...        0 min,  0.103 sec
 * total energy  :   -80.1951575 Eh     change       -0.4415638E-03 Eh
   gradient norm :     0.0078681 Eh/α   predicted    -0.3541516E-03 ( -19.80%)
   displ. norm   :     0.2382048 α      lambda       -0.3067623E-03
   maximum displ.:     0.0946247 α      in ANC's #2, #10, #7, ...

........................................................................
.............................. CYCLE    6 ..............................
........................................................................
   1    -81.0483619 -0.810484E+02  0.130E-02    0.17       0.0  T
   2    -81.0479254  0.436522E-03  0.625E-02    0.15       1.0  T
   3    -81.0483759 -0.450564E-03  0.623E-03    0.17       2.3  T
   4    -81.0483787 -0.272263E-05  0.237E-03    0.17       6.1  T
   5    -81.0483790 -0.302521E-06  0.772E-04    0.17      18.9  T
   6    -81.0483790 -0.234195E-08  0.176E-04    0.17      82.9  T
   7    -81.0483790  0.208118E-09  0.127E-04    0.17     115.0  T
     SCC iter.                  ...        0 min,  0.028 sec
     gradient                   ...        0 min,  0.093 sec
 * total energy  :   -80.1953884 Eh     change       -0.2309805E-03 Eh
   gradient norm :     0.0078791 Eh/α   predicted    -0.1621179E-03 ( -29.81%)
   displ. norm   :     0.2917411 α      lambda       -0.3060766E-03
   maximum displ.:     0.1242760 α      in ANC's #2, #6, #10, ...

........................................................................
.............................. CYCLE    7 ..............................
........................................................................
   1    -81.0481889 -0.810482E+02  0.747E-03    0.17       0.0  T
   2    -81.0481537  0.351653E-04  0.189E-02    0.17       1.0  T
   3    -81.0481871 -0.333235E-04  0.762E-03    0.17       1.9  T
   4    -81.0481929 -0.584184E-05  0.181E-03    0.17       8.0  T
   5    -81.0481929 -0.203622E-07  0.991E-04    0.17      14.7  T
   6    -81.0481930 -0.538958E-07  0.160E-04    0.17      91.1  T
   7    -81.0481930 -0.198833E-08  0.417E-05    0.17     349.5  T
     SCC iter.                  ...        0 min,  0.031 sec
     gradient                   ...        0 min,  0.110 sec
 * total energy  :   -80.1956170 Eh     change       -0.2285566E-03 Eh
   gradient norm :     0.0066864 Eh/α   predicted    -0.1660642E-03 ( -27.34%)
   displ. norm   :     0.3041087 α      lambda       -0.2508643E-03
   maximum displ.:     0.1348597 α      in ANC's #2, #6, #8, ...

........................................................................
.............................. CYCLE    8 ..............................
........................................................................
   1    -81.0478482 -0.810478E+02  0.647E-03    0.17       0.0  T
   2    -81.0478071  0.410810E-04  0.201E-02    0.17       1.0  T
   3    -81.0478495 -0.424141E-04  0.393E-03    0.17       3.7  T
   4    -81.0478505 -0.915016E-06  0.252E-03    0.17       5.8  T
   5    -81.0478508 -0.369728E-06  0.109E-03    0.17      13.4  T
   6    -81.0478509 -0.792919E-07  0.296E-04    0.17      49.3  T
   7    -81.0478509 -0.719844E-08  0.539E-05    0.17     270.6  T
   8    -81.0478509 -0.182055E-09  0.208E-05    0.17     702.1  T
     SCC iter.                  ...        0 min,  0.032 sec
     gradient                   ...        0 min,  0.091 sec
 * total energy  :   -80.1958012 Eh     change       -0.1842502E-03 Eh
   gradient norm :     0.0058100 Eh/α   predicted    -0.1370330E-03 ( -25.63%)
   displ. norm   :     0.2777816 α      lambda       -0.1966986E-03
   maximum displ.:     0.1329191 α      in ANC's #6, #2, #8, ...

........................................................................
.............................. CYCLE    9 ..............................
........................................................................
   1    -81.0481884 -0.810482E+02  0.818E-03    0.17       0.0  T
   2    -81.0480852  0.103270E-03  0.311E-02    0.16       1.0  T
   3    -81.0481909 -0.105712E-03  0.485E-03    0.17       3.0  T
   4    -81.0481931 -0.217374E-05  0.186E-03    0.17       7.8  T
   5    -81.0481932 -0.168169E-06  0.717E-04    0.17      20.3  T
   6    -81.0481932 -0.280350E-07  0.284E-04    0.17      51.3  T
   7    -81.0481933 -0.688384E-08  0.433E-05    0.17     337.1  T
   8    -81.0481933 -0.105146E-09  0.236E-05    0.17     618.2  T
     SCC iter.                  ...        0 min,  0.036 sec
     gradient                   ...        0 min,  0.100 sec
 * total energy  :   -80.1959475 Eh     change       -0.1462815E-03 Eh
   gradient norm :     0.0050476 Eh/α   predicted    -0.1059407E-03 ( -27.58%)
   displ. norm   :     0.2781730 α      lambda       -0.1707297E-03
   maximum displ.:     0.1361877 α      in ANC's #6, #2, #8, ...

........................................................................
.............................. CYCLE   10 ..............................
........................................................................
   1    -81.0484012 -0.810484E+02  0.107E-02    0.18       0.0  T
   2    -81.0481342  0.266906E-03  0.493E-02    0.16       1.0  T
   3    -81.0484087 -0.274460E-03  0.523E-03    0.17       2.8  T
   4    -81.0484115 -0.278400E-05  0.115E-03    0.17      12.6  T
   5    -81.0484115 -0.140098E-07  0.498E-04    0.17      29.3  T
   6    -81.0484115 -0.428383E-08  0.149E-04    0.17      98.2  T
   7    -81.0484115 -0.105619E-08  0.433E-05    0.17     336.7  T
     SCC iter.                  ...        0 min,  0.035 sec
     gradient                   ...        0 min,  0.095 sec
 * total energy  :   -80.1960761 Eh     change       -0.1286024E-03 Eh
   gradient norm :     0.0042842 Eh/α   predicted    -0.9197195E-04 ( -28.48%)
   displ. norm   :     0.2863254 α      lambda       -0.1533359E-03
   maximum displ.:     0.1468808 α      in ANC's #2, #6, #8, ...

........................................................................
.............................. CYCLE   11 ..............................
........................................................................
   1    -81.0492157 -0.810492E+02  0.107E-02    0.18       0.0  T
   2    -81.0489841  0.231669E-03  0.458E-02    0.16       1.0  T
   3    -81.0492224 -0.238314E-03  0.592E-03    0.18       2.5  T
   4    -81.0492253 -0.287153E-05  0.195E-03    0.17       7.5  T
   5    -81.0492254 -0.138817E-06  0.676E-04    0.17      21.6  T
   6    -81.0492254 -0.193862E-07  0.983E-05    0.17     148.4  T
   7    -81.0492254 -0.567454E-09  0.274E-05    0.17     531.9  T
     SCC iter.                  ...        0 min,  0.027 sec
     gradient                   ...        0 min,  0.092 sec
 * total energy  :   -80.1961853 Eh     change       -0.1091349E-03 Eh
   gradient norm :     0.0047376 Eh/α   predicted    -0.8295657E-04 ( -23.99%)
   displ. norm   :     0.3174998 α      lambda       -0.1192522E-03
   maximum displ.:     0.1647296 α      in ANC's #2, #6, #3, ...

........................................................................
.............................. CYCLE   12 ..............................
........................................................................
   1    -81.0470519 -0.810471E+02  0.123E-02    0.18       0.0  T
   2    -81.0465676  0.484241E-03  0.660E-02    0.16       1.0  T
   3    -81.0470678 -0.500135E-03  0.306E-03    0.18       4.8  T
   4    -81.0470679 -0.133586E-06  0.144E-03    0.18      10.2  T
   5    -81.0470679 -0.108458E-07  0.559E-04    0.18      26.1  T
   6    -81.0470679 -0.110322E-07  0.194E-04    0.18      75.1  T
   7    -81.0470679 -0.247564E-08  0.550E-05    0.18     265.3  T
     SCC iter.                  ...        0 min,  0.034 sec
     gradient                   ...        0 min,  0.097 sec
 * total energy  :   -80.1962506 Eh     change       -0.6533236E-04 Eh
   gradient norm :     0.0056627 Eh/α   predicted    -0.6564239E-04 (   0.47%)
   displ. norm   :     0.2240863 α      lambda       -0.1295707E-03
   maximum displ.:     0.1266170 α      in ANC's #2, #3, #6, ...

........................................................................
.............................. CYCLE   13 ..............................
........................................................................
   1    -81.0496517 -0.810497E+02  0.801E-03    0.18       0.0  T
   2    -81.0496076  0.441435E-04  0.214E-02    0.19       1.0  T
   3    -81.0496547 -0.471579E-04  0.365E-03    0.18       4.0  T
   4    -81.0496541  0.625959E-06  0.381E-03    0.18       3.8  T
   5    -81.0496551 -0.990973E-06  0.120E-03    0.18      12.2  T
   6    -81.0496552 -0.108452E-06  0.226E-04    0.18      64.7  T
   7    -81.0496552 -0.385833E-08  0.258E-05    0.18     565.5  T
   8    -81.0496552 -0.316902E-11  0.117E-05    0.18    1248.8  T
     SCC iter.                  ...        0 min,  0.031 sec
     gradient                   ...        0 min,  0.092 sec
 * total energy  :   -80.1963254 Eh     change       -0.7482115E-04 Eh
   gradient norm :     0.0042759 Eh/α   predicted    -0.6803951E-04 (  -9.06%)
   displ. norm   :     0.1640889 α      lambda       -0.6280139E-04
   maximum displ.:     0.0978722 α      in ANC's #2, #3, #6, ...

........................................................................
.............................. CYCLE   14 ..............................
........................................................................
   1    -81.0493277 -0.810493E+02  0.399E-03    0.18       0.0  T
   2    -81.0493084  0.193139E-04  0.138E-02    0.18       1.1  T
   3    -81.0493290 -0.206514E-04  0.158E-03    0.18       9.2  T
   4    -81.0493289  0.155718E-06  0.177E-03    0.18       8.2  T
   5    -81.0493291 -0.245121E-06  0.310E-04    0.18      47.1  T
   6    -81.0493291 -0.592027E-08  0.671E-05    0.18     217.5  T
   7    -81.0493291 -0.972733E-10  0.252E-05    0.18     577.9  T
     SCC iter.                  ...        0 min,  0.028 sec
     gradient                   ...        0 min,  0.092 sec
 * total energy  :   -80.1963775 Eh     change       -0.5205882E-04 Eh
   gradient norm :     0.0031333 Eh/α   predicted    -0.3224773E-04 ( -38.06%)
   displ. norm   :     0.2027101 α      lambda       -0.1016938E-03
   maximum displ.:     0.1239699 α      in ANC's #2, #3, #18, ...

........................................................................
.............................. CYCLE   15 ..............................
........................................................................
   1    -81.0504551 -0.810505E+02  0.887E-03    0.18       0.0  T
   2    -81.0503695  0.855486E-04  0.286E-02    0.19       1.0  T
   3    -81.0504594 -0.898828E-04  0.448E-03    0.18       3.3  T
   4    -81.0504613 -0.186789E-05  0.117E-03    0.18      12.5  T
   5    -81.0504613 -0.188047E-07  0.389E-04    0.18      37.5  T
   6    -81.0504613 -0.104083E-08  0.906E-05    0.18     161.0  T
   7    -81.0504613 -0.168100E-09  0.304E-05    0.18     479.9  T
     SCC iter.                  ...        0 min,  0.028 sec
     gradient                   ...        0 min,  0.096 sec
 * total energy  :   -80.1964466 Eh     change       -0.6912445E-04 Eh
   gradient norm :     0.0035850 Eh/α   predicted    -0.5293788E-04 ( -23.42%)
   displ. norm   :     0.2173372 α      lambda       -0.6665964E-04
   maximum displ.:     0.1377167 α      in ANC's #2, #3, #6, ...

........................................................................
.............................. CYCLE   16 ..............................
........................................................................
   1    -81.0494167 -0.810494E+02  0.107E-02    0.18       0.0  T
   2    -81.0492397  0.176975E-03  0.405E-02    0.20       1.0  T
   3    -81.0494255 -0.185756E-03  0.401E-03    0.19       3.6  T
   4    -81.0494267 -0.127206E-05  0.148E-03    0.19       9.9  T
   5    -81.0494269 -0.120765E-06  0.536E-04    0.19      27.2  T
   6    -81.0494269 -0.195357E-07  0.610E-05    0.19     239.3  T
   7    -81.0494269 -0.225896E-09  0.201E-05    0.19     726.1  T
     SCC iter.                  ...        0 min,  0.028 sec
     gradient                   ...        0 min,  0.092 sec
 * total energy  :   -80.1964967 Eh     change       -0.5010031E-04 Eh
   gradient norm :     0.0047797 Eh/α   predicted    -0.3490731E-04 ( -30.33%)
   displ. norm   :     0.1654536 α      lambda       -0.6019438E-04
   maximum displ.:     0.1033762 α      in ANC's #2, #3, #4, ...

........................................................................
.............................. CYCLE   17 ..............................
........................................................................
   1    -81.0496748 -0.810497E+02  0.121E-02    0.19       0.0  T
   2    -81.0493895  0.285276E-03  0.520E-02    0.21       1.0  T
   3    -81.0496912 -0.301722E-03  0.270E-03    0.19       5.4  T
   4    -81.0496920 -0.741103E-06  0.444E-04    0.19      32.9  T
   5    -81.0496920 -0.156896E-08  0.182E-04    0.19      80.0  T
   6    -81.0496920 -0.595548E-09  0.329E-05    0.19     443.2  T
     SCC iter.                  ...        0 min,  0.024 sec
     gradient                   ...        0 min,  0.092 sec
 * total energy  :   -80.1965491 Eh     change       -0.5237073E-04 Eh
   gradient norm :     0.0042538 Eh/α   predicted    -0.3092498E-04 ( -40.95%)
   displ. norm   :     0.2795848 α      lambda       -0.1046469E-03
   maximum displ.:     0.1757042 α      in ANC's #2, #3, #1, ...

........................................................................
.............................. CYCLE   18 ..............................
........................................................................
   1    -81.0494493 -0.810494E+02  0.210E-02    0.19       0.0  T
   2    -81.0487500  0.699348E-03  0.826E-02    0.23       1.0  T
   3    -81.0494973 -0.747301E-03  0.605E-03    0.19       2.4  T
   4    -81.0495010 -0.377548E-05  0.848E-04    0.19      17.2  T
   5    -81.0495010 -0.125253E-07  0.436E-04    0.19      33.5  T
   6    -81.0495011 -0.103519E-07  0.737E-05    0.19     198.0  T
   7    -81.0495011  0.197630E-09  0.601E-05    0.19     242.5  T
     SCC iter.                  ...        0 min,  0.028 sec
     gradient                   ...        0 min,  0.092 sec
 * total energy  :   -80.1966315 Eh     change       -0.8241344E-04 Eh
   gradient norm :     0.0023781 Eh/α   predicted    -0.5641793E-04 ( -31.54%)
   displ. norm   :     0.2918440 α      lambda       -0.8013500E-04
   maximum displ.:     0.1856189 α      in ANC's #3, #2, #1, ...

........................................................................
.............................. CYCLE   19 ..............................
........................................................................
   1    -81.0493391 -0.810493E+02  0.170E-02    0.19       0.0  T
   2    -81.0488577  0.481446E-03  0.683E-02    0.22       1.0  T
   3    -81.0493707 -0.513018E-03  0.456E-03    0.20       3.2  T
   4    -81.0493728 -0.206055E-05  0.724E-04    0.20      20.1  T
   5    -81.0493728 -0.231996E-08  0.278E-04    0.20      52.5  T
   6    -81.0493728 -0.800327E-09  0.779E-05    0.20     187.1  T
   7    -81.0493728 -0.887468E-10  0.281E-05    0.20     518.5  T
     SCC iter.                  ...        0 min,  0.027 sec
     gradient                   ...        0 min,  0.097 sec
 * total energy  :   -80.1966944 Eh     change       -0.6294823E-04 Eh
   gradient norm :     0.0028168 Eh/α   predicted    -0.4348130E-04 ( -30.93%)
   displ. norm   :     0.2737711 α      lambda       -0.6287474E-04
   maximum displ.:     0.1751876 α      in ANC's #3, #2, #1, ...

........................................................................
.............................. CYCLE   20 ..............................
........................................................................
   1    -81.0492848 -0.810493E+02  0.976E-03    0.19       0.0  T
   2    -81.0491098  0.174965E-03  0.409E-02    0.21       1.0  T
   3    -81.0492953 -0.185522E-03  0.195E-03    0.20       7.5  T
   4    -81.0492956 -0.273776E-06  0.741E-04    0.20      19.7  T
   5    -81.0492956 -0.195263E-07  0.160E-04    0.20      91.3  T
   6    -81.0492956 -0.314927E-09  0.480E-05    0.20     303.6  T
     SCC iter.                  ...        0 min,  0.023 sec
     gradient                   ...        0 min,  0.074 sec
 * total energy  :   -80.1967461 Eh     change       -0.5162725E-04 Eh
   gradient norm :     0.0034685 Eh/α   predicted    -0.3379758E-04 ( -34.54%)
   displ. norm   :     0.2804691 α      lambda       -0.6572404E-04
   maximum displ.:     0.1803913 α      in ANC's #2, #3, #1, ...
 * RMSD in coord.:     0.5706622 α      energy gain  -0.1375922E-01 Eh

generating ANC from model Hessian ...
Using Lindh-Hessian (1995)
 Shifting diagonal of input Hessian by   9.806514080224123E-003
 Lowest  eigenvalues of input Hessian
    0.000000    0.000000    0.000000    0.000000    0.000000    0.000000
    0.010000    0.010036    0.010215    0.010710    0.011263    0.011879
    0.012468    0.013055    0.015167    0.015332    0.015736    0.016526
 Highest eigenvalues
    1.964697    1.996585    2.008809    2.147621    2.302900    2.338538
 

........................................................................
.............................. CYCLE   21 ..............................
........................................................................
   1    -81.0491959 -0.810492E+02  0.334E-03    0.20       0.0  T
   2    -81.0491912  0.473761E-05  0.697E-03    0.20       2.1  T
   3    -81.0491952 -0.407028E-05  0.347E-03    0.20       4.2  T
   4    -81.0491965 -0.126064E-05  0.607E-04    0.20      24.0  T
   5    -81.0491965  0.299816E-08  0.264E-04    0.20      55.3  T
   6    -81.0491965 -0.560732E-08  0.569E-05    0.20     256.4  T
   7    -81.0491965 -0.184997E-09  0.204E-05    0.20     716.5  T
     SCC iter.                  ...        0 min,  0.029 sec
     gradient                   ...        0 min,  0.099 sec
 * total energy  :   -80.1968011 Eh     change       -0.5505649E-04 Eh
   gradient norm :     0.0036677 Eh/α   predicted     0.0000000E+00 (-100.00%)
   displ. norm   :     0.0309230 α      lambda       -0.1566074E-04
   maximum displ.:     0.0154526 α      in ANC's #2, #16, #3, ...

........................................................................
.............................. CYCLE   22 ..............................
........................................................................
   1    -81.0494839 -0.810495E+02  0.317E-03    0.20       0.0  T
   2    -81.0494733  0.105797E-04  0.101E-02    0.20       1.4  T
   3    -81.0494844 -0.111330E-04  0.165E-03    0.20       8.8  T
   4    -81.0494847 -0.254923E-06  0.400E-04    0.20      36.5  T
   5    -81.0494847  0.606296E-08  0.280E-04    0.20      52.0  T
   6    -81.0494847 -0.607356E-08  0.792E-05    0.20     184.3  T
   7    -81.0494847 -0.493571E-09  0.116E-05    0.20    1260.6  T
     SCC iter.                  ...        0 min,  0.029 sec
     gradient                   ...        0 min,  0.098 sec
 * total energy  :   -80.1968243 Eh     change       -0.2322921E-04 Eh
   gradient norm :     0.0019903 Eh/α   predicted    -0.1373609E-04 ( -40.87%)
   displ. norm   :     0.1766253 α      lambda       -0.6911540E-04
   maximum displ.:     0.0892912 α      in ANC's #2, #3, #16, ...

........................................................................
.............................. CYCLE   23 ..............................
........................................................................
   1    -81.0500195 -0.810500E+02  0.146E-02    0.20       0.0  T
   2    -81.0496222  0.397288E-03  0.606E-02    0.18       1.0  T
   3    -81.0500387 -0.416524E-03  0.396E-03    0.20       3.7  T
   4    -81.0500399 -0.115660E-05  0.145E-03    0.20      10.1  T
   5    -81.0500399  0.160038E-07  0.679E-04    0.20      21.5  T
   6    -81.0500399 -0.206580E-07  0.286E-04    0.20      51.1  T
   7    -81.0500399 -0.489246E-08  0.948E-05    0.20     153.8  T
   8    -81.0500399 -0.873726E-09  0.165E-05    0.20     886.6  T
     SCC iter.                  ...        0 min,  0.033 sec
     gradient                   ...        0 min,  0.099 sec
 * total energy  :   -80.1968756 Eh     change       -0.5123555E-04 Eh
   gradient norm :     0.0047933 Eh/α   predicted    -0.3503809E-04 ( -31.61%)
   displ. norm   :     0.0496544 α      lambda       -0.2414979E-04
   maximum displ.:     0.0281145 α      in ANC's #2, #3, #19, ...

........................................................................
.............................. CYCLE   24 ..............................
........................................................................
   1    -81.0500003 -0.810500E+02  0.308E-03    0.20       0.0  T
   2    -81.0499808  0.195484E-04  0.136E-02    0.20       1.1  T
   3    -81.0500014 -0.206129E-04  0.605E-04    0.20      24.1  T
   4    -81.0500014 -0.307239E-08  0.399E-04    0.20      36.5  T
   5    -81.0500014 -0.525822E-08  0.178E-04    0.20      82.1  T
   6    -81.0500014 -0.181038E-08  0.201E-05    0.20     724.0  T
     SCC iter.                  ...        0 min,  0.025 sec
     gradient                   ...        0 min,  0.098 sec
 * total energy  :   -80.1968974 Eh     change       -0.2185238E-04 Eh
   gradient norm :     0.0038606 Eh/α   predicted    -0.1210505E-04 ( -44.61%)
   displ. norm   :     0.1861401 α      lambda       -0.7724079E-04
   maximum displ.:     0.1042294 α      in ANC's #2, #3, #19, ...

........................................................................
.............................. CYCLE   25 ..............................
........................................................................
   1    -81.0496659 -0.810497E+02  0.726E-03    0.20       0.0  T
   2    -81.0495863  0.796227E-04  0.276E-02    0.19       1.0  T
   3    -81.0496710 -0.846841E-04  0.186E-03    0.20       7.9  T
   4    -81.0496711 -0.106120E-06  0.114E-03    0.20      12.8  T
   5    -81.0496711 -0.243126E-07  0.653E-04    0.20      22.3  T
   6    -81.0496711 -0.255751E-07  0.103E-04    0.20     141.6  T
   7    -81.0496711 -0.584848E-09  0.270E-05    0.20     540.1  T
     SCC iter.                  ...        0 min,  0.029 sec
     gradient                   ...        0 min,  0.099 sec
 * total energy  :   -80.1969488 Eh     change       -0.5138807E-04 Eh
   gradient norm :     0.0013257 Eh/α   predicted    -0.3995866E-04 ( -22.24%)
   displ. norm   :     0.1899155 α      lambda       -0.2302688E-04
   maximum displ.:     0.1097298 α      in ANC's #2, #3, #19, ...

........................................................................
.............................. CYCLE   26 ..............................
........................................................................
   1    -81.0495145 -0.810495E+02  0.351E-03    0.20       0.0  T
   2    -81.0495116  0.298872E-05  0.600E-03    0.20       2.4  T
   3    -81.0495140 -0.240625E-05  0.356E-03    0.20       4.1  T
   4    -81.0495153 -0.133758E-05  0.778E-04    0.20      18.8  T
   5    -81.0495153 -0.242825E-07  0.307E-04    0.20      47.5  T
   6    -81.0495153 -0.129435E-08  0.674E-05    0.20     216.4  T
   7    -81.0495153 -0.176399E-09  0.265E-05    0.20     549.5  T
     SCC iter.                  ...        0 min,  0.029 sec
     gradient                   ...        0 min,  0.098 sec
 * total energy  :   -80.1969699 Eh     change       -0.2103775E-04 Eh
   gradient norm :     0.0019098 Eh/α   predicted    -0.1169900E-04 ( -44.39%)
   displ. norm   :     0.0813088 α      lambda       -0.1257183E-04
   maximum displ.:     0.0499951 α      in ANC's #2, #3, #19, ...

........................................................................
.............................. CYCLE   27 ..............................
........................................................................
   1    -81.0503160 -0.810503E+02  0.404E-03    0.20       0.0  T
   2    -81.0502865  0.294768E-04  0.167E-02    0.21       1.0  T
   3    -81.0503178 -0.312738E-04  0.746E-04    0.20      19.6  T
   4    -81.0503178 -0.145825E-07  0.409E-04    0.20      35.7  T
   5    -81.0503178 -0.246084E-08  0.145E-04    0.20     100.4  T
   6    -81.0503178 -0.140258E-08  0.227E-05    0.20     642.2  T
     SCC iter.                  ...        0 min,  0.025 sec
     gradient                   ...        0 min,  0.099 sec
 * total energy  :   -80.1969858 Eh     change       -0.1594198E-04 Eh
   gradient norm :     0.0013253 Eh/α   predicted    -0.6305261E-05 ( -60.45%)
   displ. norm   :     0.1351781 α      lambda       -0.2153961E-04
   maximum displ.:     0.0838889 α      in ANC's #3, #2, #19, ...

........................................................................
.............................. CYCLE   28 ..............................
........................................................................
   1    -81.0507405 -0.810507E+02  0.847E-03    0.20       0.0  T
   2    -81.0506198  0.120712E-03  0.340E-02    0.22       1.0  T
   3    -81.0507485 -0.128711E-03  0.133E-03    0.20      10.9  T
   4    -81.0507486 -0.886115E-07  0.602E-04    0.20      24.2  T
   5    -81.0507486 -0.491305E-08  0.275E-04    0.20      53.1  T
   6    -81.0507486 -0.452671E-08  0.392E-05    0.20     372.5  T
   7    -81.0507486 -0.970175E-10  0.842E-06    0.20    1732.1  T
     SCC iter.                  ...        0 min,  0.029 sec
     gradient                   ...        0 min,  0.099 sec
 * total energy  :   -80.1970116 Eh     change       -0.2580536E-04 Eh
   gradient norm :     0.0012733 Eh/α   predicted    -0.1085754E-04 ( -57.93%)
   displ. norm   :     0.1812667 α      lambda       -0.2206081E-04
   maximum displ.:     0.1144675 α      in ANC's #3, #2, #19, ...

........................................................................
.............................. CYCLE   29 ..............................
........................................................................
   1    -81.0505673 -0.810506E+02  0.106E-02    0.20       0.0  T
   2    -81.0503846  0.182668E-03  0.420E-02    0.22       1.0  T
   3    -81.0505799 -0.195242E-03  0.161E-03    0.21       9.1  T
   4    -81.0505800 -0.154299E-06  0.627E-04    0.21      23.3  T
   5    -81.0505800 -0.865136E-08  0.230E-04    0.21      63.5  T
   6    -81.0505800 -0.849909E-09  0.379E-05    0.21     384.4  T
   7    -81.0505800 -0.833893E-10  0.770E-06    0.21    1894.9  T
     SCC iter.                  ...        0 min,  0.029 sec
     gradient                   ...        0 min,  0.099 sec
 * total energy  :   -80.1970377 Eh     change       -0.2609081E-04 Eh
   gradient norm :     0.0017186 Eh/α   predicted    -0.1119358E-04 ( -57.10%)
   displ. norm   :     0.1829700 α      lambda       -0.1843671E-04
   maximum displ.:     0.1169857 α      in ANC's #3, #2, #5, ...

........................................................................
.............................. CYCLE   30 ..............................
........................................................................
   1    -81.0502284 -0.810502E+02  0.739E-03    0.21       0.0  T
   2    -81.0501378  0.905997E-04  0.295E-02    0.22       1.0  T
   3    -81.0502344 -0.966638E-04  0.123E-03    0.21      11.9  T
   4    -81.0502345 -0.599456E-07  0.604E-04    0.21      24.1  T
   5    -81.0502345 -0.124975E-07  0.207E-04    0.21      70.5  T
   6    -81.0502345 -0.533689E-09  0.339E-05    0.21     429.9  T
   7    -81.0502345 -0.549392E-10  0.103E-05    0.21    1410.1  T
     SCC iter.                  ...        0 min,  0.029 sec
     gradient                   ...        0 min,  0.099 sec
 * total energy  :   -80.1970598 Eh     change       -0.2211544E-04 Eh
   gradient norm :     0.0013576 Eh/α   predicted    -0.9359372E-05 ( -57.68%)
   displ. norm   :     0.1767330 α      lambda       -0.1603424E-04
   maximum displ.:     0.1134943 α      in ANC's #3, #2, #1, ...

........................................................................
.............................. CYCLE   31 ..............................
........................................................................
   1    -81.0496387 -0.810496E+02  0.509E-03    0.21       0.0  T
   2    -81.0496017  0.369774E-04  0.188E-02    0.22       1.0  T
   3    -81.0496411 -0.394189E-04  0.925E-04    0.21      15.8  T
   4    -81.0496411 -0.362185E-07  0.454E-04    0.21      32.1  T
   5    -81.0496411 -0.318475E-08  0.151E-04    0.21      96.7  T
   6    -81.0496411 -0.550671E-09  0.330E-05    0.21     441.9  T
     SCC iter.                  ...        0 min,  0.025 sec
     gradient                   ...        0 min,  0.099 sec
 * total energy  :   -80.1970798 Eh     change       -0.2001890E-04 Eh
   gradient norm :     0.0009441 Eh/α   predicted    -0.8128646E-05 ( -59.40%)
   displ. norm   :     0.1859814 α      lambda       -0.1593598E-04
   maximum displ.:     0.1207766 α      in ANC's #3, #2, #1, ...

........................................................................
.............................. CYCLE   32 ..............................
........................................................................
   1    -81.0495388 -0.810495E+02  0.349E-03    0.21       0.0  T
   2    -81.0495216  0.171716E-04  0.129E-02    0.22       1.1  T
   3    -81.0495400 -0.183273E-04  0.565E-04    0.21      25.8  T
   4    -81.0495400 -0.782114E-08  0.342E-04    0.21      42.7  T
   5    -81.0495400 -0.251237E-08  0.106E-04    0.21     138.1  T
   6    -81.0495400 -0.472198E-09  0.279E-05    0.21     523.1  T
     SCC iter.                  ...        0 min,  0.025 sec
     gradient                   ...        0 min,  0.099 sec
 * total energy  :   -80.1970998 Eh     change       -0.1996448E-04 Eh
   gradient norm :     0.0012070 Eh/α   predicted    -0.8093828E-05 ( -59.46%)
   displ. norm   :     0.2164166 α      lambda       -0.1662611E-04
   maximum displ.:     0.1403657 α      in ANC's #3, #2, #1, ...

........................................................................
.............................. CYCLE   33 ..............................
........................................................................
   1    -81.0491616 -0.810492E+02  0.275E-03    0.21       0.0  T
   2    -81.0491562  0.534385E-05  0.717E-03    0.22       2.0  T
   3    -81.0491617 -0.545448E-05  0.184E-03    0.21       7.9  T
   4    -81.0491620 -0.320142E-06  0.355E-04    0.21      41.1  T
   5    -81.0491620 -0.831861E-09  0.106E-04    0.21     138.1  T
   6    -81.0491620 -0.204139E-09  0.298E-05    0.21     489.7  T
     SCC iter.                  ...        0 min,  0.025 sec
     gradient                   ...        0 min,  0.099 sec
 * total energy  :   -80.1971198 Eh     change       -0.2000643E-04 Eh
   gradient norm :     0.0016805 Eh/α   predicted    -0.8489833E-05 ( -57.56%)
   displ. norm   :     0.2179352 α      lambda       -0.1655800E-04
   maximum displ.:     0.1453141 α      in ANC's #3, #2, #1, ...

........................................................................
.............................. CYCLE   34 ..............................
........................................................................
   1    -81.0496276 -0.810496E+02  0.268E-03    0.21       0.0  T
   2    -81.0496191  0.845348E-05  0.901E-03    0.22       1.6  T
   3    -81.0496282 -0.904237E-05  0.822E-04    0.21      17.7  T
   4    -81.0496282 -0.337959E-07  0.323E-04    0.21      45.2  T
   5    -81.0496282 -0.693348E-09  0.997E-05    0.21     146.4  T
   6    -81.0496282  0.608225E-11  0.320E-05    0.21     455.8  T
     SCC iter.                  ...        0 min,  0.025 sec
     gradient                   ...        0 min,  0.099 sec
 * total energy  :   -80.1971394 Eh     change       -0.1962729E-04 Eh
   gradient norm :     0.0018490 Eh/α   predicted    -0.8455056E-05 ( -56.92%)
   displ. norm   :     0.2524204 α      lambda       -0.1745816E-04
   maximum displ.:     0.1693887 α      in ANC's #3, #2, #1, ...

........................................................................
.............................. CYCLE   35 ..............................
........................................................................
   1    -81.0497368 -0.810497E+02  0.216E-03    0.21       0.0  T
   2    -81.0497370 -0.145589E-06  0.925E-04    0.21      15.8  T
   3    -81.0497366  0.411056E-06  0.208E-03    0.21       7.0  T
   4    -81.0497370 -0.439518E-06  0.415E-04    0.21      35.1  T
   5    -81.0497370 -0.571796E-08  0.165E-04    0.21      88.6  T
   6    -81.0497370 -0.221902E-09  0.388E-05    0.21     375.9  T
     SCC iter.                  ...        0 min,  0.025 sec
     gradient                   ...        0 min,  0.099 sec
 * total energy  :   -80.1971604 Eh     change       -0.2093047E-04 Eh
   gradient norm :     0.0012928 Eh/α   predicted    -0.8977003E-05 ( -57.11%)
   displ. norm   :     0.2474186 α      lambda       -0.1640014E-04
   maximum displ.:     0.1708076 α      in ANC's #3, #2, #1, ...

........................................................................
.............................. CYCLE   36 ..............................
........................................................................
   1    -81.0503292 -0.810503E+02  0.190E-03    0.22       0.0  T
   2    -81.0503288  0.456698E-06  0.244E-03    0.22       6.0  T
   3    -81.0503286  0.120864E-06  0.274E-03    0.21       5.3  T
   4    -81.0503294 -0.779243E-06  0.382E-04    0.22      38.2  T
   5    -81.0503294 -0.379585E-08  0.146E-04    0.22     100.2  T
   6    -81.0503294 -0.159886E-09  0.371E-05    0.22     393.3  T
     SCC iter.                  ...        0 min,  0.025 sec
     gradient                   ...        0 min,  0.099 sec
 * total energy  :   -80.1971808 Eh     change       -0.2045000E-04 Eh
   gradient norm :     0.0008166 Eh/α   predicted    -0.8423935E-05 ( -58.81%)
   displ. norm   :     0.2629547 α      lambda       -0.1631470E-04
   maximum displ.:     0.1842203 α      in ANC's #3, #2, #1, ...

........................................................................
.............................. CYCLE   37 ..............................
........................................................................
   1    -81.0505764 -0.810506E+02  0.181E-03    0.22       0.0  T
   2    -81.0505757  0.719365E-06  0.308E-03    0.22       4.7  T
   3    -81.0505764 -0.708209E-06  0.151E-03    0.22       9.7  T
   4    -81.0505766 -0.221211E-06  0.579E-04    0.22      25.2  T
   5    -81.0505766 -0.217415E-07  0.153E-04    0.22      95.6  T
   6    -81.0505766 -0.941043E-10  0.461E-05    0.22     316.5  T
     SCC iter.                  ...        0 min,  0.025 sec
     gradient                   ...        0 min,  0.099 sec
 * total energy  :   -80.1972011 Eh     change       -0.2024784E-04 Eh
   gradient norm :     0.0009059 Eh/α   predicted    -0.8409769E-05 ( -58.47%)
   displ. norm   :     0.2203704 α      lambda       -0.1401412E-04
   maximum displ.:     0.1574462 α      in ANC's #3, #2, #1, ...

........................................................................
.............................. CYCLE   38 ..............................
........................................................................
   1    -81.0510340 -0.810510E+02  0.137E-03    0.22       0.0  T
   2    -81.0510340  0.184172E-07  0.109E-03    0.22      13.4  T
   3    -81.0510336  0.333542E-06  0.199E-03    0.22       7.3  T
   4    -81.0510341 -0.421871E-06  0.381E-04    0.22      38.3  T
   5    -81.0510341 -0.191405E-08  0.188E-04    0.22      77.6  T
   6    -81.0510341 -0.292648E-08  0.251E-05    0.22     581.4  T
     SCC iter.                  ...        0 min,  0.026 sec
     gradient                   ...        0 min,  0.099 sec
 * total energy  :   -80.1972179 Eh     change       -0.1686570E-04 Eh
   gradient norm :     0.0011755 Eh/α   predicted    -0.7162665E-05 ( -57.53%)
   displ. norm   :     0.1852599 α      lambda       -0.1126806E-04
   maximum displ.:     0.1340573 α      in ANC's #3, #2, #1, ...

........................................................................
.............................. CYCLE   39 ..............................
........................................................................
   1    -81.0510084 -0.810510E+02  0.127E-03    0.22       0.0  T
   2    -81.0510077  0.668080E-06  0.266E-03    0.22       5.5  T
   3    -81.0510084 -0.718531E-06  0.785E-04    0.22      18.6  T
   4    -81.0510085 -0.450228E-07  0.295E-04    0.22      49.4  T
   5    -81.0510085  0.127530E-08  0.145E-04    0.22     100.7  T
   6    -81.0510085 -0.182322E-08  0.189E-05    0.22     771.2  T
     SCC iter.                  ...        0 min,  0.022 sec
     gradient                   ...        0 min,  0.094 sec
 * total energy  :   -80.1972321 Eh     change       -0.1419149E-04 Eh
   gradient norm :     0.0010342 Eh/α   predicted    -0.5723486E-05 ( -59.67%)
   displ. norm   :     0.1477807 α      lambda       -0.9150184E-05
   maximum displ.:     0.1086080 α      in ANC's #3, #2, #1, ...

........................................................................
.............................. CYCLE   40 ..............................
........................................................................
   1    -81.0507672 -0.810508E+02  0.161E-03    0.22       0.0  T
   2    -81.0507659  0.138196E-05  0.378E-03    0.22       3.9  T
   3    -81.0507673 -0.143071E-05  0.103E-03    0.22      14.2  T
   4    -81.0507674 -0.952904E-07  0.365E-04    0.22      40.0  T
   5    -81.0507674 -0.388789E-08  0.108E-04    0.22     134.8  T
   6    -81.0507674 -0.783970E-09  0.206E-05    0.22     706.4  T
     SCC iter.                  ...        0 min,  0.025 sec
     gradient                   ...        0 min,  0.097 sec
 * total energy  :   -80.1972439 Eh     change       -0.1177420E-04 Eh
   gradient norm :     0.0006501 Eh/α   predicted    -0.4622350E-05 ( -60.74%)
   displ. norm   :     0.1292754 α      lambda       -0.8136240E-05
   maximum displ.:     0.0961941 α      in ANC's #3, #2, #1, ...

........................................................................
.............................. CYCLE   41 ..............................
........................................................................
   1    -81.0507150 -0.810507E+02  0.167E-03    0.22       0.0  T
   2    -81.0507134  0.158738E-05  0.405E-03    0.22       3.6  T
   3    -81.0507151 -0.165082E-05  0.102E-03    0.22      14.3  T
   4    -81.0507152 -0.107049E-06  0.335E-04    0.22      43.6  T
   5    -81.0507152 -0.531125E-08  0.113E-04    0.22     129.2  T
   6    -81.0507152 -0.570793E-09  0.187E-05    0.22     779.6  T
     SCC iter.                  ...        0 min,  0.026 sec
     gradient                   ...        0 min,  0.094 sec
 * total energy  :   -80.1972545 Eh     change       -0.1061140E-04 Eh
   gradient norm :     0.0005165 Eh/α   predicted    -0.4102257E-05 ( -61.34%)
   displ. norm   :     0.1458051 α      lambda       -0.8972058E-05
   maximum displ.:     0.1089260 α      in ANC's #3, #2, #6, ...

........................................................................
.............................. CYCLE   42 ..............................
........................................................................
   1    -81.0504665 -0.810505E+02  0.183E-03    0.22       0.0  T
   2    -81.0504643  0.213020E-05  0.471E-03    0.22       3.1  T
   3    -81.0504666 -0.230354E-05  0.831E-04    0.22      17.6  T
   4    -81.0504667 -0.585719E-07  0.404E-04    0.22      36.1  T
   5    -81.0504667 -0.101241E-07  0.783E-05    0.22     186.3  T
   6    -81.0504667 -0.559339E-10  0.218E-05    0.22     668.5  T
     SCC iter.                  ...        0 min,  0.027 sec
     gradient                   ...        0 min,  0.094 sec
 * total energy  :   -80.1972665 Eh     change       -0.1203708E-04 Eh
   gradient norm :     0.0008509 Eh/α   predicted    -0.4531675E-05 ( -62.35%)
   displ. norm   :     0.1868020 α      lambda       -0.1143900E-04
   maximum displ.:     0.1400787 α      in ANC's #3, #2, #6, ...
 * RMSD in coord.:     0.5076223 α      energy gain  -0.5204783E-03 Eh

generating ANC from model Hessian ...
Using Lindh-Hessian (1995)
 Shifting diagonal of input Hessian by   9.820107652801349E-003
 Lowest  eigenvalues of input Hessian
    0.000000    0.000000    0.000000    0.000000    0.000000    0.000000
    0.010000    0.010051    0.010228    0.010709    0.011192    0.011927
    0.012547    0.013030    0.015155    0.015362    0.015897    0.016776
 Highest eigenvalues
    1.966957    1.996847    2.002296    2.148865    2.305058    2.338889
 

........................................................................
.............................. CYCLE   43 ..............................
........................................................................
   1    -81.0502884 -0.810503E+02  0.207E-03    0.22       0.0  T
   2    -81.0502857  0.266575E-05  0.523E-03    0.23       2.8  T
   3    -81.0502886 -0.284768E-05  0.105E-03    0.22      13.9  T
   4    -81.0502887 -0.102746E-06  0.359E-04    0.22      40.6  T
   5    -81.0502887 -0.552065E-08  0.782E-05    0.22     186.6  T
   6    -81.0502887 -0.354845E-10  0.200E-05    0.22     730.9  T
     SCC iter.                  ...        0 min,  0.025 sec
     gradient                   ...        0 min,  0.096 sec
 * total energy  :   -80.1972813 Eh     change       -0.1473623E-04 Eh
   gradient norm :     0.0011227 Eh/α   predicted     0.0000000E+00 (-100.00%)
   displ. norm   :     0.0215025 α      lambda       -0.3626741E-05
   maximum displ.:     0.0136688 α      in ANC's #3, #6, #4, ...

........................................................................
.............................. CYCLE   44 ..............................
........................................................................
   1    -81.0508159 -0.810508E+02  0.147E-03    0.22       0.0  T
   2    -81.0508152  0.733661E-06  0.276E-03    0.22       5.3  T
   3    -81.0508158 -0.604096E-06  0.150E-03    0.22       9.7  T
   4    -81.0508160 -0.227486E-06  0.267E-04    0.22      54.7  T
   5    -81.0508160 -0.935501E-10  0.700E-05    0.22     208.5  T
   6    -81.0508160 -0.204849E-09  0.119E-05    0.22    1225.2  T
     SCC iter.                  ...        0 min,  0.025 sec
     gradient                   ...        0 min,  0.096 sec
 * total energy  :   -80.1972862 Eh     change       -0.4932972E-05 Eh
   gradient norm :     0.0004501 Eh/α   predicted    -0.2168084E-05 ( -56.05%)
   displ. norm   :     0.0540749 α      lambda       -0.6214810E-05
   maximum displ.:     0.0340759 α      in ANC's #3, #6, #4, ...

   *** GEOMETRY OPTIMIZATION CONVERGED AFTER 44 ITERATIONS ***

------------------------------------------------------------------------
 total energy gain   :        -0.0142994 Eh       -8.9730 kcal/mol
 total RMSD          :         1.0115664 a0        0.5353 Å
 total power (kW/mol):        -0.8532496 (step)   -4.9729 (real)
------------------------------------------------------------------------

 ANCopt (total)                0 d,  0 h,  0 min,  7.550 sec
 optimizer setup                ...        0 min,  0.001 sec (  0.013%)
 model hessian                  ...        0 min,  0.099 sec (  1.310%)
 ANC generation                 ...        0 min,  0.009 sec (  0.119%)
 coordinate transformation      ...        0 min,  0.002 sec (  0.026%)
 single point calculation       ...        0 min,  7.412 sec ( 98.180%)
 optimization log               ...        0 min,  0.014 sec (  0.180%)
 hessian update                 ...        0 min,  0.002 sec (  0.021%)
 rational function              ...        0 min,  0.007 sec (  0.087%)

================
 final structure:
================
47
 xtb: 6.5.1 (579679a)
C            4.82114863444312       -2.12698636957926        0.50258346605294
C            3.60500453557084       -1.22340877637496        0.86371272320947
C            3.88839771225968       -0.46131284841747        2.13878603638190
C            4.17693353232837        0.85906346573967        2.09182192244728
F            4.52090247773605        1.47859963415483        3.26318591661854
C            4.08723769533729        1.67408924484384        0.95296964870676
C            3.56677815151476        1.06636547138428       -0.20307566000427
C            3.29289744888213       -0.27225242794461       -0.28004281685971
C            2.60606813870460       -0.84383998439361       -1.49099787977280
N            1.16065321609016       -0.56059718947276       -1.41707238000522
C            0.59328402295937        0.46240414206077       -2.07948522192848
O            1.15469893429549        1.06421889571900       -3.01768491215118
C           -0.77725247622899        0.79230858650747       -1.66266920650181
N           -1.30566388218464        0.11414723815610       -0.59690035715711
C           -2.52437751381382        0.33151787385761       -0.21397342264033
C           -3.00704980426593       -0.51485542108679        0.96039781066617
C           -3.75412335995105       -1.74026860982215        0.41290966635773
C           -1.78937178335705       -0.99133975784315        1.77045110317857
N           -3.89857756595628        0.24728958358335        1.83137386134752
N           -3.33929610446358        1.22367744285416       -0.86465575713939
C           -4.72986390195272        1.45529476160641       -0.47651230965918
C           -2.88214038164273        2.01270244998012       -1.93965811935917
O           -3.62965783300775        2.84269870995786       -2.46379239857682
C           -1.52494503862077        1.73958028785462       -2.33578752793205
O           -1.02598836403780        2.43741760191130       -3.37907770543053
H            5.03119088583691       -2.81454090765762        1.32237633003538
H            4.61314254294940       -2.70821308352788       -0.39615319577423
H            5.70381240883726       -1.51158448248108        0.32556102662864
H            2.75201862828873       -1.90675071667325        1.02668515286720
H            3.90954493095657       -1.01309535214234        3.07005500616249
H            4.32274285778752        2.72801823891755        0.99694965659157
H            3.35893824594792        1.69479429789728       -1.06787652028733
H            2.97227830748251       -0.39993039453492       -2.42358273702736
H            2.72728542112884       -1.93040338073741       -1.55279798319227
H            0.66853037819698       -0.90984763071934       -0.60558819869397
H           -4.03533242091682       -2.39574018509677        1.23572390043268
H           -4.65751493500453       -1.44759115964103       -0.11956113880352
H           -3.10830914782021       -2.29165005896586       -0.26980388184836
H           -2.13034199602713       -1.55141772892872        2.63927124076277
H           -1.15276247968395       -1.63223939465435        1.16192766854805
H           -1.20552148423888       -0.13570704676130        2.10737679455547
H           -4.37127269375613       -0.38984276531999        2.45577073965542
H           -3.35477124462339        0.88136293207721        2.40310644995116
H           -4.77369142025138        2.13029269181795        0.37823242169027
H           -5.21225792538459        0.51918628438835       -0.21480091516349
H           -5.25274988924339        1.90637034888648       -1.32097462653489
H           -0.09065646111565        2.11201548860833       -3.51870467040825
 
 Bond Distances (Angstroems)
 ---------------------------
C1-C2=1.5575         C1-H26=1.0904        C1-H27=1.0903        C1-H28=1.0905        C2-C1=1.5575         C2-C3=1.5123         
C2-C8=1.5200         C2-H29=1.1050        C3-C2=1.5123         C3-C4=1.3524         C3-H30=1.0827        C4-C3=1.3524         
C4-F5=1.3690         C4-C6=1.4033         F5-C4=1.3690         C6-C4=1.4033         C6-C7=1.4059         C6-H31=1.0808        
C7-C6=1.4059         C7-C8=1.3685         C7-H32=1.0890        C8-C2=1.5200         C8-C7=1.3685         C8-C9=1.5049         
C9-C8=1.5049         C9-N10=1.4748        C9-H33=1.0958        C9-H34=1.0950        N10-C9=1.4748        N10-C11=1.3443       
N10-H35=1.0113       C11-N10=1.3443       C11-O12=1.2480       C11-C13=1.4700       O12-C11=1.2480       C13-C11=1.4700       
C13-N14=1.3693       C13-C24=1.3818       N14-C13=1.3693       N14-C15=1.2958       C15-N14=1.2958       C15-C16=1.5259       
C15-N20=1.3724       C16-C15=1.5259       C16-C17=1.5361       C16-C18=1.5382       C16-N19=1.4609       C17-C16=1.5361       
C17-H36=1.0889       C17-H37=1.0887       C17-H38=1.0896       C18-C16=1.5382       C18-H39=1.0885       C18-H40=1.0892       
C18-H41=1.0893       N19-C16=1.4609       N19-H42=1.0096       N19-H43=1.0123       N20-C15=1.3724       N20-C21=1.4622       
N20-C22=1.4097       C21-N20=1.4622       C21-H44=1.0900       C21-H45=1.0851       C21-H46=1.0909       C22-N20=1.4097       
C22-O23=1.2339       C22-C24=1.4400       O23-C22=1.2339       C24-C13=1.3818       C24-C22=1.4400       C24-O25=1.3507       
O25-C24=1.3507       O25-H47=1.0001       H26-C1=1.0904        H27-C1=1.0903        H28-C1=1.0905        H29-C2=1.1050        
H30-C3=1.0827        H31-C6=1.0808        H32-C7=1.0890        H33-C9=1.0958        H34-C9=1.0950        H35-N10=1.0113       
H36-C17=1.0889       H37-C17=1.0887       H38-C17=1.0896       H39-C18=1.0885       H40-C18=1.0892       H41-C18=1.0893       
H42-N19=1.0096       H43-N19=1.0123       H44-C21=1.0900       H45-C21=1.0851       H46-C21=1.0909       H47-O25=1.0001       
 C  H  Rav=1.0900 sigma=0.0050  Rmin=1.0808  Rmax=1.1050    18
 C  C  Rav=1.4655 sigma=0.0689  Rmin=1.3524  Rmax=1.5575    14
 N  H  Rav=1.0110 sigma=0.0011  Rmin=1.0096  Rmax=1.0123     3
 N  C  Rav=1.3987 sigma=0.0601  Rmin=1.2958  Rmax=1.4748     8
 O  H  Rav=1.0001 sigma=0.0000  Rmin=1.0001  Rmax=1.0001     1
 O  C  Rav=1.2775 sigma=0.0521  Rmin=1.2339  Rmax=1.3507     3
 F  C  Rav=1.3690 sigma=0.0000  Rmin=1.3690  Rmax=1.3690     1
 
 selected bond angles (degree)
 --------------------
H26-C1-C2=109.99               H27-C1-C2=110.57               H27-C1-H26=108.68              H28-C1-C2=110.01               
H28-C1-H26=108.78              H28-C1-H27=108.75              C3-C2-C1=109.97                C8-C2-C1=110.42                
C8-C2-C3=110.95                H29-C2-C1=106.15               H29-C2-C3=109.39               H29-C2-C8=109.84               
C4-C3-C2=120.18                H30-C3-C2=118.17               H30-C3-C4=121.55               F5-C4-C3=117.76                
C6-C4-C3=125.56                C6-C4-F5=116.59                C7-C6-C4=116.10                H31-C6-C4=121.29               
H31-C6-C7=122.39               C8-C7-C6=122.90                H32-C7-C6=118.31               H32-C7-C8=118.79               
C7-C8-C2=121.92                C9-C8-C2=117.49                C9-C8-C7=120.54                N10-C9-C8=109.51               
H33-C9-C8=112.23               H33-C9-N10=107.00              H34-C9-C8=111.82               H34-C9-N10=107.57              
H34-C9-H33=108.48              C11-N10-C9=122.35              H35-N10-C9=116.80              H35-N10-C11=116.92             
 
 selected dihedral angles (degree)
 ---------------------------------
C3-C2-C1-H26= 57.92           C3-C2-C1-H27=177.97           C3-C2-C1-H28=298.11           C8-C2-C1-H26=180.69           
C8-C2-C1-H27=300.74           C8-C2-C1-H28= 60.88           H29-C2-C1-H26=299.70          H29-C2-C1-H27= 59.75          
H29-C2-C1-H28=179.89          C4-C3-C2-C1=105.72            C4-C3-C2-C8=343.26            C4-C3-C2-H29=221.92           
H30-C3-C2-C1=289.22           H30-C3-C2-C8=166.76           H30-C3-C2-H29= 45.42          F5-C4-C3-C2=184.67            
F5-C4-C3-H30=  1.05           C6-C4-C3-C2=  8.24            C6-C4-C3-H30=184.62           C7-C6-C4-C3=  4.46            
C7-C6-C4-F5=187.99            H31-C6-C4-C3=179.15           H31-C6-C4-F5=  2.68           C8-C7-C6-C4=353.12            
C8-C7-C6-H31=178.50           H32-C7-C6-C4=172.12           H32-C7-C6-H31=357.49          C7-C8-C2-C1=252.46            
C7-C8-C2-C3= 14.65            C7-C8-C2-H29=135.72           C9-C8-C2-C1= 75.26            C9-C8-C2-C3=197.45            
C9-C8-C2-H29=318.52           C2-C8-C7-C6=356.56            C2-C8-C7-H32=177.57           C9-C8-C7-C6=173.68            
C9-C8-C7-H32=354.69           N10-C9-C8-C2= 98.91           N10-C9-C8-C7=281.67           H33-C9-C8-C2=217.60           
H33-C9-C8-C7= 40.36           H34-C9-C8-C2=339.77           H34-C9-C8-C7=162.53           C11-N10-C9-C8= 98.77          
C11-N10-C9-H33=336.88         C11-N10-C9-H34=220.50         H35-N10-C9-C8=301.77          H35-N10-C9-H33=179.89         
H35-N10-C9-H34= 63.50         
           -------------------------------------------------
          |                Final Singlepoint                |
           -------------------------------------------------

          ...................................................
          :                      SETUP                      :
          :.................................................:
          :  # basis functions                 144          :
          :  # atomic orbitals                 144          :
          :  # shells                           94          :
          :  # electrons                       136          :
          :  # halogen bonds                     0          :
          :  max. iterations                   250          :
          :  Hamiltonian                  GFN1-xTB          :
          :  restarted?                      false          :
          :  GBSA solvation                   true          :
          :  PC potential                    false          :
          :  electronic temp.          300.0000000     K    :
          :  accuracy                    1.0000000          :
          :  -> integral cutoff          0.2500000E+02      :
          :  -> integral neglect         0.1000000E-07      :
          :  -> SCF convergence          0.1000000E-05 Eh   :
          :  -> wf. convergence          0.2000000E-04 e    :
          :  Broyden damping             0.4000000          :
          ...................................................

 iter      E             dE          RMSdq      gap      omega  full diag
   1    -81.0508160 -0.810508E+02  0.441E-06    0.22       0.0  T
   2    -81.0508160  0.146798E-10  0.121E-05    0.22    1201.5  T
   3    -81.0508160 -0.158167E-10  0.156E-06    0.22    9323.5  T

   *** convergence criteria satisfied after 3 iterations ***

         #    Occupation            Energy/Eh            Energy/eV
      -------------------------------------------------------------
         1        2.0000           -0.8067136             -21.9518
       ...           ...                  ...                  ...
        62        2.0000           -0.4186561             -11.3922
        63        2.0000           -0.4106100             -11.1733
        64        2.0000           -0.4069877             -11.0747
        65        2.0000           -0.4048799             -11.0173
        66        2.0000           -0.3943408             -10.7306
        67        2.0000           -0.3810257             -10.3682
        68        1.9736           -0.2993671              -8.1462 (HOMO)
        69        0.0264           -0.2911719              -7.9232 (LUMO)
        70                         -0.2544630              -6.9243
        71                         -0.2067111              -5.6249
        72                         -0.1978963              -5.3850
        73                         -0.1277385              -3.4759
       ...                                ...                  ...
       144                          0.7073633              19.2483
      -------------------------------------------------------------
                  HL-Gap            0.0081953 Eh            0.2230 eV
             Fermi-level           -0.2952695 Eh           -8.0347 eV

 SCC (total)                   0 d,  0 h,  0 min,  0.154 sec
 SCC setup                      ...        0 min,  0.002 sec (  1.477%)
 Dispersion                     ...        0 min,  0.000 sec (  0.279%)
 classical contributions        ...        0 min,  0.000 sec (  0.091%)
 integral evaluation            ...        0 min,  0.041 sec ( 26.446%)
 iterations                     ...        0 min,  0.013 sec (  8.491%)
 molecular gradient             ...        0 min,  0.096 sec ( 62.472%)
 printout                       ...        0 min,  0.001 sec (  0.699%)

         :::::::::::::::::::::::::::::::::::::::::::::::::::::
         ::                     SUMMARY                     ::
         :::::::::::::::::::::::::::::::::::::::::::::::::::::
         :: total energy             -80.197286204303 Eh    ::
         :: total w/o Gsasa/hb       -80.173698321294 Eh    ::
         :: gradient norm              0.000450474747 Eh/a0 ::
         :: HOMO-LUMO gap              0.223004841933 eV    ::
         ::.................................................::
         :: SCC energy               -81.050815990862 Eh    ::
         :: -> electrostatic           0.322795170719 Eh    ::
         :: -> Gsolv                  -0.098085985734 Eh    ::
         ::    -> Gelec               -0.074498102725 Eh    ::
         ::    -> Gsasa               -0.024158616099 Eh    ::
         ::    -> Ghb                 -0.007053545915 Eh    ::
         ::    -> Gshift               0.007624279005 Eh    ::
         :: repulsion energy           0.884096001506 Eh    ::
         :: dispersion energy         -0.030566214946 Eh    ::
         :: halogen bond corr.         0.000000000000 Eh    ::
         :: add. restraining           0.000000000000 Eh    ::
         :: total charge              -1.000000000000 e     ::
         :::::::::::::::::::::::::::::::::::::::::::::::::::::

           -------------------------------------------------
          |                Property Printout                |
           -------------------------------------------------

    * Orbital Energies and Occupations

         #    Occupation            Energy/Eh            Energy/eV
      -------------------------------------------------------------
         1        2.0000           -0.8067136             -21.9518
       ...           ...                  ...                  ...
        56        2.0000           -0.4543011             -12.3622
        57        2.0000           -0.4467015             -12.1554
        58        2.0000           -0.4435240             -12.0689
        59        2.0000           -0.4415460             -12.0151
        60        2.0000           -0.4316401             -11.7455
        61        2.0000           -0.4238169             -11.5326
        62        2.0000           -0.4186561             -11.3922
        63        2.0000           -0.4106100             -11.1733
        64        2.0000           -0.4069877             -11.0747
        65        2.0000           -0.4048799             -11.0173
        66        2.0000           -0.3943408             -10.7306
        67        2.0000           -0.3810257             -10.3682
        68        1.9736           -0.2993671              -8.1462 (HOMO)
        69        0.0264           -0.2911719              -7.9232 (LUMO)
        70                         -0.2544630              -6.9243
        71                         -0.2067111              -5.6249
        72                         -0.1978963              -5.3850
        73                         -0.1277385              -3.4759
        74                         -0.1255150              -3.4154
        75                         -0.1222746              -3.3273
        76                         -0.1172365              -3.1902
        77                         -0.1124271              -3.0593
        78                         -0.0981102              -2.6697
        79                         -0.0969334              -2.6377
       ...                                ...                  ...
       144                          0.7073633              19.2483
      -------------------------------------------------------------
                  HL-Gap            0.0081953 Eh            0.2230 eV
             Fermi-level           -0.2952695 Eh           -8.0347 eV

  Mulliken/CM5 charges         n(s)   n(p)   n(d)
     1C    -0.09860 -0.24631   1.017  3.081  0.000
     2C     0.02775 -0.03152   1.045  2.927  0.000
     3C    -0.19206 -0.24448   1.041  3.151  0.000
     4C     0.23668  0.24656   1.051  2.713  0.000
     5F    -0.33243 -0.35544   1.846  5.487  0.000
     6C    -0.20557 -0.25673   1.026  3.179  0.000
     7C    -0.02831 -0.07995   1.050  2.978  0.000
     8C    -0.12487 -0.13624   1.072  3.053  0.000
     9C     0.09990  0.05396   1.009  2.891  0.000
    10N    -0.32470 -0.67971   1.436  3.889  0.000
    11C     0.43829  0.54213   0.982  2.580  0.000
    12O    -0.63764 -0.70402   1.736  4.902  0.000
    13C     0.04482  0.12299   1.047  2.908  0.000
    14N    -0.40034 -0.59487   1.530  3.870  0.000
    15C     0.26534  0.41656   1.022  2.713  0.000
    16C     0.14701  0.18151   1.064  2.789  0.000
    17C    -0.10293 -0.24455   1.019  3.084  0.000
    18C    -0.10205 -0.24198   1.020  3.082  0.000
    19N    -0.51848 -0.97903   1.474  4.045  0.000
    20N    -0.22746 -0.47114   1.456  3.772  0.000
    21C     0.05846 -0.02736   0.986  2.955  0.000
    22C     0.41834  0.51719   0.987  2.594  0.000
    23O    -0.62074 -0.66407   1.734  4.887  0.000
    24C     0.19921  0.23235   1.022  2.779  0.000
    25O    -0.54247 -0.72396   1.708  4.835  0.000
    26H     0.01481  0.06676   0.985  0.000  0.000
    27H     0.01317  0.06552   0.987  0.000  0.000
    28H     0.01060  0.06352   0.989  0.000  0.000
    29H    -0.00772  0.05078   1.008  0.000  0.000
    30H     0.01121  0.06827   0.989  0.000  0.000
    31H     0.00681  0.06361   0.993  0.000  0.000
    32H     0.00152  0.06015   0.998  0.000  0.000
    33H     0.03342  0.10391   0.967  0.000  0.000
    34H     0.01496  0.08044   0.985  0.000  0.000
    35H     0.22267  0.42720   0.777  0.000  0.000
    36H     0.04506  0.10024   0.955  0.000  0.000
    37H     0.03815  0.09488   0.962  0.000  0.000
    38H     0.03848  0.09354   0.962  0.000  0.000
    39H     0.03775  0.09345   0.962  0.000  0.000
    40H     0.03528  0.09383   0.965  0.000  0.000
    41H     0.03623  0.09396   0.964  0.000  0.000
    42H     0.22197  0.41313   0.778  0.000  0.000
    43H     0.21795  0.40849   0.782  0.000  0.000
    44H     0.04337  0.10971   0.957  0.000  0.000
    45H     0.03878  0.10783   0.961  0.000  0.000
    46H     0.05968  0.13034   0.940  0.000  0.000
    47H     0.38873  0.57854   0.611  0.000  0.000

Wiberg/Mayer (AO) data.
largest (>0.10) Wiberg bond orders for each atom

 ---------------------------------------------------------------------------
     #   Z sym  total        # sym  WBO       # sym  WBO       # sym  WBO
 ---------------------------------------------------------------------------
     1   6 C    3.973 --    28 H    0.989    26 H    0.987    27 H    0.985
                             2 C    0.966
     2   6 C    3.992 --     3 C    1.008     8 C    0.999     1 C    0.966
                            29 H    0.966
     3   6 C    3.844 --     4 C    1.607     2 C    1.008    30 H    0.974
     4   6 C    3.835 --     3 C    1.607     6 C    1.275     5 F    0.870
     5   9 F    0.982 --     4 C    0.870
     6   6 C    3.819 --     7 C    1.327     4 C    1.275    31 H    0.977
     7   6 C    3.995 --     8 C    1.584     6 C    1.327    32 H    0.971
     8   6 C    3.867 --     7 C    1.584     9 C    1.003     2 C    0.999
     9   6 C    3.937 --     8 C    1.003    34 H    0.978    33 H    0.974
                            10 N    0.909
    10   7 N    3.354 --    11 C    1.274     9 C    0.909    35 H    0.906
                            12 O    0.150
    11   6 C    3.896 --    12 O    1.457    10 N    1.274    13 C    1.054
    12   8 O    1.862 --    11 C    1.457    10 N    0.150
    13   6 C    3.913 --    24 C    1.415    14 N    1.179    11 C    1.054
    14   7 N    3.040 --    15 C    1.562    13 C    1.179
    15   6 C    3.914 --    14 N    1.562    20 N    1.172    16 C    0.975
    16   6 C    3.966 --    18 C    0.990    17 C    0.984    19 N    0.983
                            15 C    0.975
    17   6 C    3.993 --    38 H    0.985    16 C    0.984    36 H    0.983
                            37 H    0.980
    18   6 C    3.995 --    16 C    0.990    39 H    0.986    41 H    0.985
                            40 H    0.982
    19   7 N    2.977 --    16 C    0.983    43 H    0.943    42 H    0.942
    20   7 N    3.441 --    15 C    1.172    22 C    1.071    21 C    0.939
                            23 O    0.119
    21   6 C    3.935 --    45 H    0.979    44 H    0.978    46 H    0.976
                            20 N    0.939
    22   6 C    3.872 --    23 O    1.524    24 C    1.134    20 N    1.071
    23   8 O    1.823 --    22 C    1.524    20 N    0.119
    24   6 C    3.850 --    13 C    1.415    22 C    1.134    25 O    1.084
    25   8 O    2.023 --    24 C    1.084    47 H    0.763
    26   1 H    1.011 --     1 C    0.987
    27   1 H    1.009 --     1 C    0.985
    28   1 H    1.017 --     1 C    0.989
    29   1 H    1.011 --     2 C    0.966
    30   1 H    1.003 --     3 C    0.974
    31   1 H    1.004 --     6 C    0.977
    32   1 H    1.007 --     7 C    0.971
    33   1 H    1.018 --     9 C    0.974
    34   1 H    1.014 --     9 C    0.978
    35   1 H    0.974 --    10 N    0.906
    36   1 H    1.000 --    17 C    0.983
    37   1 H    1.005 --    17 C    0.980
    38   1 H    1.005 --    17 C    0.985
    39   1 H    1.004 --    18 C    0.986
    40   1 H    1.016 --    18 C    0.982
    41   1 H    1.008 --    18 C    0.985
    42   1 H    0.957 --    19 N    0.942
    43   1 H    0.959 --    19 N    0.943
    44   1 H    1.019 --    21 C    0.978
    45   1 H    1.024 --    21 C    0.979
    46   1 H    1.014 --    21 C    0.976
    47   1 H    0.871 --    25 O    0.763
 ---------------------------------------------------------------------------

Topologies differ in total number of bonds
Writing topology from bond orders to xtbtopo.mol

 dipole moment from electron density (au)
     X       Y       Z   
  -4.4913  -4.6068   2.7829  total (Debye):   17.817

           -------------------------------------------------
          |                Geometry Summary                 |
           -------------------------------------------------

      molecular mass/u    :      349.3806376
   center of mass at/Å    :        0.1117472       0.4563645      -0.2822610
  moments of inertia/u·Å² :        0.1566273E+04   0.4236240E+04   0.4868637E+04
rotational constants/cm⁻¹ :        0.1076289E-01   0.3979386E-02   0.3462495E-02

 * 39 selected distances

     #   Z          #   Z                                           value/Å
     3   6 C        4   6 C                                       1.3523507
     4   6 C        6   6 C                                       1.4033165
     6   6 C        7   6 C                                       1.4059329
     7   6 C        8   6 C                                       1.3685148
     9   6 C       10   7 N                                       1.4747597
    10   7 N       11   6 C                                       1.3443328
    13   6 C       14   7 N                                       1.3693009
    14   7 N       15   6 C                                       1.2958188
    16   6 C       17   6 C                                       1.5360664
    16   6 C       18   6 C                                       1.5381690 (max)
    16   6 C       19   7 N                                       1.4609197
    15   6 C       20   7 N                                       1.3723807
    20   7 N       21   6 C                                       1.4621837
    20   7 N       22   6 C                                       1.4096745
    22   6 C       23   8 O                                       1.2338530
    13   6 C       24   6 C                                       1.3818308
    24   6 C       25   8 O                                       1.3506996
     1   6 C       26   1 H                                       1.0903713
     1   6 C       27   1 H                                       1.0903297
     1   6 C       28   1 H                                       1.0904825
     2   6 C       29   1 H                                       1.1050346
     3   6 C       30   1 H                                       1.0826695
     6   6 C       31   1 H                                       1.0808161
     7   6 C       32   1 H                                       1.0890367
     9   6 C       33   1 H                                       1.0958469
     9   6 C       34   1 H                                       1.0950494
    10   7 N       35   1 H                                       1.0112703
    17   6 C       36   1 H                                       1.0889192
    17   6 C       37   1 H                                       1.0887157
    17   6 C       38   1 H                                       1.0895850
    18   6 C       39   1 H                                       1.0884837
    18   6 C       40   1 H                                       1.0891854
    18   6 C       41   1 H                                       1.0892693
    19   7 N       42   1 H                                       1.0095791
    19   7 N       43   1 H                                       1.0122513
    21   6 C       44   1 H                                       1.0900146
    21   6 C       45   1 H                                       1.0851249
    21   6 C       46   1 H                                       1.0908693
    25   8 O       47   1 H                                       1.0001141 (min)

 * 6 distinct bonds (by element types)

   Z      Z             #   av. dist./Å        max./Å        min./Å
   1 H    6 C          18     1.0899891     1.1050346     1.0808161
   6 C    6 C           7     1.4265973     1.5381690     1.3523507
   1 H    7 N           3     1.0110335     1.0122513     1.0095791
   6 C    7 N           8     1.3986714     1.4747597     1.2958188
   1 H    8 O           1     1.0001141     1.0001141     1.0001141
   6 C    8 O           2     1.2922763     1.3506996     1.2338530


optimized geometry written to: xtbopt.xyz


           -------------------------------------------------
          | TOTAL ENERGY              -80.197286204303 Eh   |
          | GRADIENT NORM               0.000450474747 Eh/α |
          | HOMO-LUMO GAP               0.223004841933 eV   |
           -------------------------------------------------

------------------------------------------------------------------------
 * finished run on 2023/06/20 at 15:06:15.837     
------------------------------------------------------------------------
 total:
 * wall-time:     0 d,  0 h,  0 min,  8.023 sec
 *  cpu-time:     0 d,  0 h,  0 min,  7.969 sec
 * ratio c/w:     0.993 speedup
 SCF:
 * wall-time:     0 d,  0 h,  0 min,  0.222 sec
 *  cpu-time:     0 d,  0 h,  0 min,  0.221 sec
 * ratio c/w:     0.997 speedup
 ANC optimizer:
 * wall-time:     0 d,  0 h,  0 min,  7.711 sec
 *  cpu-time:     0 d,  0 h,  0 min,  7.692 sec
 * ratio c/w:     0.998 speedup

