      -----------------------------------------------------------      
     |                   =====================                   |     
     |                           x T B                           |     
     |                   =====================                   |     
     |                         S. Grimme                         |     
     |          Mulliken Center for Theoretical Chemistry        |     
     |                    University of Bonn                     |     
      -----------------------------------------------------------      

   * xtb version 6.5.1 (579679a) compiled by 'ehlert@majestix' on 2022-07-11

   xtb is free software: you can redistribute it and/or modify it under
   the terms of the GNU Lesser General Public License as published by
   the Free Software Foundation, either version 3 of the License, or
   (at your option) any later version.
   
   xtb is distributed in the hope that it will be useful,
   but WITHOUT ANY WARRANTY; without even the implied warranty of
   MERCHANTABILITY or FITNESS FOR A PARTICULAR PURPOSE.  See the
   GNU Lesser General Public License for more details.
   
   Cite this work as:
   * C. Bannwarth, E. Caldeweyher, S. Ehlert, A. Hansen, P. Pracht,
     J. Seibert, S. Spicher, S. Grimme, WIREs Comput. Mol. Sci., 2020, 11,
     e01493. DOI: 10.1002/wcms.1493
   
   for GFN2-xTB:
   * C. Bannwarth, S. Ehlert and S. Grimme., J. Chem. Theory Comput., 2019,
     15, 1652-1671. DOI: 10.1021/acs.jctc.8b01176
   for GFN1-xTB:
   * S. Grimme, C. Bannwarth, P. Shushkov, J. Chem. Theory Comput., 2017,
     13, 1989-2009. DOI: 10.1021/acs.jctc.7b00118
   for GFN0-xTB:
   * P. Pracht, E. Caldeweyher, S. Ehlert, S. Grimme, ChemRxiv, 2019, preprint.
     DOI: 10.26434/chemrxiv.8326202.v1
   for GFN-FF:
   * S. Spicher and S. Grimme, Angew. Chem. Int. Ed., 2020, 59, 15665-15673.
     DOI: 10.1002/anie.202004239
   
   for ALPB and GBSA implicit solvation:
   * S. Ehlert, M. Stahn, S. Spicher, S. Grimme, J. Chem. Theory Comput.,
     2021, 17, 4250-4261. DOI: 10.1021/acs.jctc.1c00471
   
   for DFT-D4:
   * E. Caldeweyher, C. Bannwarth and S. Grimme, J. Chem. Phys., 2017,
     147, 034112. DOI: 10.1063/1.4993215
   * E. Caldeweyher, S. Ehlert, A. Hansen, H. Neugebauer, S. Spicher,
     C. Bannwarth and S. Grimme, J. Chem. Phys., 2019, 150, 154122.
     DOI: 10.1063/1.5090222
   * E. Caldeweyher, J.-M. Mewes, S. Ehlert and S. Grimme, Phys. Chem. Chem. Phys.
     2020, 22, 8499-8512. DOI: 10.1039/D0CP00502A
   
   for sTDA-xTB:
   * S. Grimme and C. Bannwarth, J. Chem. Phys., 2016, 145, 054103.
     DOI: 10.1063/1.4959605
   
   in the mass-spec context:
   * V. Asgeirsson, C. Bauer and S. Grimme, Chem. Sci., 2017, 8, 4879.
     DOI: 10.1039/c7sc00601b
   * J. Koopman and S. Grimme, ACS Omega 2019, 4, 12, 15120-15133.
     DOI: 10.1021/acsomega.9b02011
   
   for metadynamics refer to:
   * S. Grimme, J. Chem. Theory Comput., 2019, 155, 2847-2862
     DOI: 10.1021/acs.jctc.9b00143
   
   for SPH calculations refer to:
   * S. Spicher and S. Grimme, J. Chem. Theory Comput., 2021, 17, 1701-1714
     DOI: 10.1021/acs.jctc.0c01306
   
   with help from (in alphabetical order)
   P. Atkinson, C. Bannwarth, F. Bohle, G. Brandenburg, E. Caldeweyher
   M. Checinski, S. Dohm, S. Ehlert, S. Ehrlich, I. Gerasimov, C. Hölzer
   A. Katbashev, J. Koopman, C. Lavigne, S. Lehtola, F. März, M. Müller,
   F. Musil, H. Neugebauer, J. Pisarek, C. Plett, P. Pracht, F. Pultar,
   J. Seibert, P. Shushkov, S. Spicher, M. Stahn, M. Steiner, T. Strunk,
   J. Stückrath, T. Rose, and J. Unsleber
   
 * started run on 2023/06/21 at 17:43:35.667     

           -------------------------------------------------
          |                Calculation Setup                |
           -------------------------------------------------

          program call               : /lustre/hpc/kemi/ree/PhD/git/ReactivityQM/dep/xtb-6.5.1/bin/xtb --gfn 1 /lustre/hpc/kemi/ree/PhD/git/ReactivityQM/calculations/R02methylcation/reac01prodN11/conf12/R02methylcation_reac01prodN11_conf12_gfn1.xyz --opt --vfukui --chrg 0 --uhf 0 --alpb DMSO
          hostname                   : node317
          coordinate file            : /lustre/hpc/kemi/ree/PhD/git/ReactivityQM/calculations/R02methylcation/reac01prodN11/conf12/R02methylcation_reac01prodN11_conf12_gfn1.xyz
          omp threads                :                     1

   ID    Z sym.   atoms
    1    6 C      1, 3, 5, 7-10, 12, 13, 15, 18, 19, 22, 24
    2    8 O      2, 4, 14, 20, 23, 25
    3    7 N      6, 11, 16, 17, 21
    4    1 H      26-42

           -------------------------------------------------
          |                 G F N 1 - x T B                 |
           -------------------------------------------------

        Reference                      10.1021/acs.jctc.7b00118
      * Hamiltonian:
        H0-scaling (s, p, d)           1.850000    2.250000    2.000000
        zeta-weighting                 0.000000
      * Dispersion:
        s8                             2.400000
        a1                             0.630000
        a2                             5.000000
        s9                             0.000000
      * Repulsion:
        kExp                           1.500000
        rExp                           1.000000
      * Coulomb:
        alpha                          2.000000
        third order                    atomic
        anisotropic                    false
      * Halogen bond correction:
        rad-scale                      1.300000
        damping                        0.440000

      * Solvation model:               ALPB
        Solvent                        DMSO
        Parameter file                 internal GFN1-xTB/ALPB
        Dielectric constant                4.6680E+01
        Reference state                gsolv [1 M gas/solution]
        Free energy shift                  7.6243E-03 Eh       4.7843E+00 kcal/mol
        Temperature                        2.9815E+02 K
        Density                            1.1000E+00 kg/L
        Solvent mass                       7.8130E+01 g/mol
        Interaction kernel             P16
        Born radius scaling (c1)           1.7672E+00
        Born radii integrator          GBOBC
        Born offset                        0.0000E+00 a0       0.0000E+00 AA
        H-bond correction              true
        Ion screening                  false
        Surface tension                    1.0000E-05 Eh       1.5569E+01 dyn/cm
        Grid points                               230 per atom

          ...................................................
          :                      SETUP                      :
          :.................................................:
          :  # basis functions                 134          :
          :  # atomic orbitals                 134          :
          :  # shells                           84          :
          :  # electrons                       134          :
          :  # halogen bonds                     0          :
          :  max. iterations                   250          :
          :  Hamiltonian                  GFN1-xTB          :
          :  restarted?                      false          :
          :  GBSA solvation                   true          :
          :  PC potential                    false          :
          :  electronic temp.          300.0000000     K    :
          :  accuracy                    1.0000000          :
          :  -> integral cutoff          0.2500000E+02      :
          :  -> integral neglect         0.1000000E-07      :
          :  -> SCF convergence          0.1000000E-05 Eh   :
          :  -> wf. convergence          0.2000000E-04 e    :
          :  Broyden damping             0.4000000          :
          ...................................................

 iter      E             dE          RMSdq      gap      omega  full diag
   1    -83.0899208 -0.830899E+02  0.840E+00    0.30       0.0  T
   2    -83.2872250 -0.197304E+00  0.545E+00    0.03       1.0  T
   3    -83.3253838 -0.381588E-01  0.312E+00    0.60       1.0  T
   4    -83.4930599 -0.167676E+00  0.128E+00    0.40       1.0  T
   5    -83.4121234  0.809365E-01  0.159E+00    0.10       1.0  T
   6    -83.5851672 -0.173044E+00  0.555E-01    0.04       1.0  T
   7    -83.5353175  0.498497E-01  0.799E-01    0.21       1.0  T
   8    -83.3323728  0.202945E+00  0.176E+00    0.14       1.0  T
   9    -83.4338279 -0.101455E+00  0.129E+00    0.08       1.0  T
  10    -83.6046771 -0.170849E+00  0.906E-02    0.06       1.0  T
  11    -83.5797722  0.249049E-01  0.470E-01    0.12       1.0  T
  12    -83.5931096 -0.133375E-01  0.331E-01    0.11       1.0  T
  13    -83.6035791 -0.104695E-01  0.144E-01    0.06       1.0  T
  14    -83.6044793 -0.900205E-03  0.899E-02    0.06       1.0  T
  15    -83.6050960 -0.616629E-03  0.484E-02    0.06       1.0  T
  16    -83.6050197  0.762803E-04  0.555E-02    0.06       1.0  T
  17    -83.6053649 -0.345225E-03  0.107E-02    0.06       1.4  T
  18    -83.6053734 -0.853818E-05  0.638E-03    0.06       2.4  T
  19    -83.6053749 -0.143400E-05  0.518E-03    0.06       3.0  T
  20    -83.6053773 -0.247755E-05  0.243E-03    0.06       6.4  T
  21    -83.6053780 -0.663279E-06  0.450E-04    0.06      34.3  T
  22    -83.6053780 -0.218258E-07  0.696E-05    0.06     221.6  T
  23    -83.6053780 -0.213831E-09  0.326E-05    0.06     473.6  T

   *** convergence criteria satisfied after 23 iterations ***

         #    Occupation            Energy/Eh            Energy/eV
      -------------------------------------------------------------
         1        2.0000           -0.8665671             -23.5805
       ...           ...                  ...                  ...
        61        2.0000           -0.4860520             -13.2261
        62        2.0000           -0.4605655             -12.5326
        63        2.0000           -0.4537919             -12.3483
        64        2.0000           -0.4506840             -12.2637
        65        2.0000           -0.4474422             -12.1755
        66        1.9542           -0.4364104             -11.8753
        67        1.5509           -0.4340227             -11.8104 (HOMO)
        68        0.4949           -0.4317885             -11.7496 (LUMO)
        69                         -0.3397280              -9.2445
        70                         -0.3124761              -8.5029
        71                         -0.2824166              -7.6849
        72                         -0.2583338              -7.0296
       ...                                ...                  ...
       134                          0.7409433              20.1621
      -------------------------------------------------------------
                  HL-Gap            0.0022342 Eh            0.0608 eV
             Fermi-level           -0.4328452 Eh          -11.7783 eV

 SCC (total)                   0 d,  0 h,  0 min,  0.227 sec
 SCC setup                      ...        0 min,  0.002 sec (  0.960%)
 Dispersion                     ...        0 min,  0.000 sec (  0.200%)
 classical contributions        ...        0 min,  0.000 sec (  0.067%)
 integral evaluation            ...        0 min,  0.051 sec ( 22.323%)
 iterations                     ...        0 min,  0.087 sec ( 38.507%)
 molecular gradient             ...        0 min,  0.085 sec ( 37.421%)
 printout                       ...        0 min,  0.001 sec (  0.495%)

         :::::::::::::::::::::::::::::::::::::::::::::::::::::
         ::                     SUMMARY                     ::
         :::::::::::::::::::::::::::::::::::::::::::::::::::::
         :: total energy             -82.856619120819 Eh    ::
         :: total w/o Gsasa/hb       -82.836420516751 Eh    ::
         :: gradient norm              0.110853046229 Eh/a0 ::
         :: HOMO-LUMO gap              0.060794704523 eV    ::
         ::.................................................::
         :: SCC energy               -83.605378030451 Eh    ::
         :: -> electrostatic           0.369678287380 Eh    ::
         :: -> Gsolv                  -0.056971611727 Eh    ::
         ::    -> Gelec               -0.036773007659 Eh    ::
         ::    -> Gsasa               -0.023527549614 Eh    ::
         ::    -> Ghb                 -0.004295333458 Eh    ::
         ::    -> Gshift               0.007624279005 Eh    ::
         :: repulsion energy           0.775913844685 Eh    ::
         :: dispersion energy         -0.027154935053 Eh    ::
         :: halogen bond corr.         0.000000000000 Eh    ::
         :: add. restraining           0.000000000000 Eh    ::
         :: total charge               0.000000000335 e     ::
         :::::::::::::::::::::::::::::::::::::::::::::::::::::

      ----------------------------------------------------------- 
     |                   =====================                   |
     |                        A N C O P T                        |
     |                   =====================                   |
     |               Approximate Normal Coordinate               |
     |                Rational Function Optimizer                |
      ----------------------------------------------------------- 

          ...................................................
          :                      SETUP                      :
          :.................................................:
          :   optimization level            normal          :
          :   max. optcycles                   200          :
          :   ANC micro-cycles                  20          :
          :   degrees of freedom               120          :
          :.................................................:
          :   RF solver                   davidson          :
          :   write xtbopt.log                true          :
          :   linear?                        false          :
          :   energy convergence         0.5000000E-05 Eh   :
          :   grad. convergence          0.1000000E-02 Eh/α :
          :   maximium RF displ.         1.0000000          :
          :   Hlow (freq-cutoff)         0.1000000E-01      :
          :   Hmax (freq-cutoff)         5.0000000          :
          :   S6 in model hess.         20.0000000          :
          ...................................................

generating ANC from model Hessian ...
Using Lindh-Hessian (1995)
 Shifting diagonal of input Hessian by   9.806547733962022E-003
 Lowest  eigenvalues of input Hessian
    0.000000    0.000000    0.000000    0.000000    0.000000    0.000000
    0.010000    0.010067    0.010867    0.011175    0.012104    0.012320
    0.013093    0.013662    0.014120    0.014847    0.015560    0.016464
 Highest eigenvalues
    1.979745    2.090918    2.098765    2.256898    2.334372    2.462227
 

........................................................................
.............................. CYCLE    1 ..............................
........................................................................
   1    -83.6053780 -0.836054E+02  0.493E-05    0.06       0.0  T
   2    -83.6053779  0.104223E-06  0.953E-04    0.06      16.2  T
   3    -83.6053780 -0.104485E-06  0.149E-05    0.06    1035.1  T
   4    -83.6053780 -0.256080E-10  0.538E-06    0.06    2867.5  T
     SCC iter.                  ...        0 min,  0.016 sec
     gradient                   ...        0 min,  0.083 sec
 * total energy  :   -82.8566191 Eh     change       -0.1009397E-09 Eh
   gradient norm :     0.1108521 Eh/α   predicted     0.0000000E+00 (-100.00%)
   displ. norm   :     0.3352322 α      lambda       -0.1577633E-01
   maximum displ.:     0.1507569 α      in ANC's #27, #24, #22, ...

........................................................................
.............................. CYCLE    2 ..............................
........................................................................
   1    -83.5998290 -0.835998E+02  0.407E-01    0.13       0.0  T
   2    -83.3380223  0.261807E+00  0.177E+00    0.10       1.0  T
   3    -83.4859663 -0.147944E+00  0.121E+00    0.06       1.0  T
   4    -83.5512535 -0.652872E-01  0.748E-01    0.03       1.0  T
   5    -83.6165157 -0.652623E-01  0.129E-01    0.09       1.0  T
   6    -83.6180766 -0.156091E-02  0.503E-02    0.07       1.0  T
   7    -83.6175201  0.556519E-03  0.838E-02    0.08       1.0  T
   8    -83.6181914 -0.671245E-03  0.294E-02    0.07       1.0  T
   9    -83.6182960 -0.104628E-03  0.339E-03    0.07       4.5  T
  10    -83.6182966 -0.621957E-06  0.202E-03    0.07       7.6  T
  11    -83.6182967 -0.109902E-06  0.154E-03    0.07      10.0  T
  12    -83.6182969 -0.131436E-06  0.623E-04    0.07      24.7  T
  13    -83.6182969 -0.191017E-07  0.228E-04    0.07      67.8  T
  14    -83.6182969 -0.568633E-09  0.158E-04    0.07      97.6  T
  15    -83.6182969 -0.200039E-08  0.603E-05    0.07     255.7  T
     SCC iter.                  ...        0 min,  0.056 sec
     gradient                   ...        0 min,  0.084 sec
 * total energy  :   -82.8684095 Eh     change       -0.1179037E-01 Eh
   gradient norm :     0.0628640 Eh/α   predicted    -0.8786035E-02 ( -25.48%)
   displ. norm   :     0.3609476 α      lambda       -0.8784381E-02
   maximum displ.:     0.1579398 α      in ANC's #27, #24, #22, ...

........................................................................
.............................. CYCLE    3 ..............................
........................................................................
   1    -83.6144191 -0.836144E+02  0.377E-01    0.17       0.0  T
   2    -83.3456325  0.268787E+00  0.176E+00    0.10       1.0  T
   3    -83.5261279 -0.180495E+00  0.105E+00    0.08       1.0  T
   4    -83.6035617 -0.774338E-01  0.472E-01    0.06       1.0  T
   5    -83.6230402 -0.194785E-01  0.243E-01    0.13       1.0  T
   6    -83.6291716 -0.613140E-02  0.716E-02    0.10       1.0  T
   7    -83.6294937 -0.322142E-03  0.364E-02    0.09       1.0  T
   8    -83.6295780 -0.842945E-04  0.252E-02    0.09       1.0  T
   9    -83.6296474 -0.693793E-04  0.621E-03    0.10       2.5  T
  10    -83.6296490 -0.160846E-05  0.385E-03    0.10       4.0  T
  11    -83.6296497 -0.694041E-06  0.220E-03    0.10       7.0  T
  12    -83.6296500 -0.294672E-06  0.467E-04    0.10      33.0  T
  13    -83.6296500 -0.120795E-07  0.119E-04    0.10     130.2  T
  14    -83.6296500 -0.501501E-10  0.845E-05    0.10     182.6  T
     SCC iter.                  ...        0 min,  0.053 sec
     gradient                   ...        0 min,  0.083 sec
 * total energy  :   -82.8737687 Eh     change       -0.5359198E-02 Eh
   gradient norm :     0.0212563 Eh/α   predicted    -0.4965919E-02 (  -7.34%)
   displ. norm   :     0.2126179 α      lambda       -0.1382316E-02
   maximum displ.:     0.0740486 α      in ANC's #24, #19, #4, ...

........................................................................
.............................. CYCLE    4 ..............................
........................................................................
   1    -83.6293311 -0.836293E+02  0.175E-01    0.14       0.0  T
   2    -83.4195168  0.209814E+00  0.145E+00    0.07       1.0  T
   3    -83.6271703 -0.207653E+00  0.234E-01    0.10       1.0  T
   4    -83.6321643 -0.499393E-02  0.671E-02    0.10       1.0  T
   5    -83.6326266 -0.462391E-03  0.241E-02    0.11       1.0  T
   6    -83.6326281 -0.149897E-05  0.205E-02    0.11       1.0  T
   7    -83.6326671 -0.389499E-04  0.428E-03    0.11       3.6  T
   8    -83.6326672 -0.971981E-07  0.321E-03    0.11       4.8  T
   9    -83.6326679 -0.697525E-06  0.159E-03    0.11       9.7  T
  10    -83.6326681 -0.220527E-06  0.411E-04    0.11      37.6  T
  11    -83.6326681 -0.119055E-07  0.117E-04    0.11     131.7  T
  12    -83.6326681 -0.138533E-08  0.106E-05    0.11    1449.1  T
     SCC iter.                  ...        0 min,  0.045 sec
     gradient                   ...        0 min,  0.083 sec
 * total energy  :   -82.8747403 Eh     change       -0.9716065E-03 Eh
   gradient norm :     0.0119645 Eh/α   predicted    -0.7224364E-03 ( -25.65%)
   displ. norm   :     0.2305245 α      lambda       -0.7650620E-03
   maximum displ.:     0.0860856 α      in ANC's #4, #11, #19, ...

........................................................................
.............................. CYCLE    5 ..............................
........................................................................
   1    -83.6331309 -0.836331E+02  0.110E-01    0.14       0.0  T
   2    -83.4766623  0.156469E+00  0.122E+00    0.06       1.0  T
   3    -83.6338602 -0.157198E+00  0.741E-02    0.12       1.0  T
   4    -83.6340277 -0.167502E-03  0.658E-02    0.12       1.0  T
   5    -83.6343786 -0.350900E-03  0.121E-02    0.12       1.3  T
   6    -83.6343837 -0.513318E-05  0.696E-03    0.12       2.2  T
   7    -83.6343857 -0.199325E-05  0.209E-03    0.12       7.4  T
   8    -83.6343859 -0.151481E-06  0.918E-04    0.12      16.8  T
   9    -83.6343859 -0.668635E-07  0.273E-04    0.12      56.6  T
  10    -83.6343859 -0.325254E-08  0.134E-04    0.12     115.6  T
  11    -83.6343859 -0.124876E-08  0.279E-05    0.12     553.8  T
     SCC iter.                  ...        0 min,  0.040 sec
     gradient                   ...        0 min,  0.085 sec
 * total energy  :   -82.8752626 Eh     change       -0.5222856E-03 Eh
   gradient norm :     0.0077992 Eh/α   predicted    -0.4028618E-03 ( -22.87%)
   displ. norm   :     0.2016644 α      lambda       -0.3508626E-03
   maximum displ.:     0.0860029 α      in ANC's #4, #11, #9, ...

........................................................................
.............................. CYCLE    6 ..............................
........................................................................
   1    -83.6348139 -0.836348E+02  0.592E-02    0.14       0.0  T
   2    -83.6295343  0.527954E-02  0.244E-01    0.09       1.0  T
   3    -83.6259079  0.362645E-02  0.291E-01    0.15       1.0  T
   4    -83.6350110 -0.910312E-02  0.146E-02    0.12       1.1  T
   5    -83.6350216 -0.105587E-04  0.642E-03    0.12       2.4  T
   6    -83.6350237 -0.216355E-05  0.182E-03    0.12       8.5  T
   7    -83.6350239 -0.142377E-06  0.454E-04    0.12      34.0  T
   8    -83.6350239 -0.933480E-08  0.208E-04    0.12      74.3  T
   9    -83.6350239 -0.329268E-08  0.301E-05    0.12     513.2  T
  10    -83.6350239 -0.528644E-10  0.107E-05    0.12    1443.0  T
     SCC iter.                  ...        0 min,  0.035 sec
     gradient                   ...        0 min,  0.076 sec
 * total energy  :   -82.8755083 Eh     change       -0.2457225E-03 Eh
   gradient norm :     0.0063407 Eh/α   predicted    -0.1825776E-03 ( -25.70%)
   displ. norm   :     0.1825638 α      lambda       -0.2061623E-03
   maximum displ.:     0.0861403 α      in ANC's #4, #9, #2, ...

........................................................................
.............................. CYCLE    7 ..............................
........................................................................
   1    -83.6349224 -0.836349E+02  0.752E-02    0.13       0.0  T
   2    -83.6073374  0.275850E-01  0.519E-01    0.18       1.0  T
   3    -83.6298705 -0.225331E-01  0.229E-01    0.09       1.0  T
   4    -83.6353023 -0.543176E-02  0.152E-02    0.13       1.0  T
   5    -83.6353257 -0.234288E-04  0.443E-03    0.13       3.5  T
   6    -83.6353259 -0.205425E-06  0.308E-03    0.13       5.0  T
   7    -83.6353262 -0.306647E-06  0.147E-03    0.13      10.5  T
   8    -83.6353264 -0.234645E-06  0.146E-04    0.13     105.5  T
   9    -83.6353264  0.625278E-10  0.106E-04    0.13     146.0  T
     SCC iter.                  ...        0 min,  0.036 sec
     gradient                   ...        0 min,  0.083 sec
 * total energy  :   -82.8756525 Eh     change       -0.1442039E-03 Eh
   gradient norm :     0.0049089 Eh/α   predicted    -0.1065571E-03 ( -26.11%)
   displ. norm   :     0.1502574 α      lambda       -0.1204997E-03
   maximum displ.:     0.0762658 α      in ANC's #4, #2, #9, ...

........................................................................
.............................. CYCLE    8 ..............................
........................................................................
   1    -83.6350327 -0.836350E+02  0.804E-02    0.13       0.0  T
   2    -83.5945305  0.405022E-01  0.627E-01    0.22       1.0  T
   3    -83.6345889 -0.400584E-01  0.105E-01    0.11       1.0  T
   4    -83.6354740 -0.885077E-03  0.342E-02    0.13       1.0  T
   5    -83.6355988 -0.124792E-03  0.269E-03    0.13       5.7  T
   6    -83.6355988 -0.268425E-07  0.219E-03    0.13       7.0  T
   7    -83.6355982  0.630695E-06  0.294E-03    0.13       5.2  T
   8    -83.6355991 -0.923942E-06  0.217E-04    0.13      71.2  T
   9    -83.6355991 -0.233335E-08  0.150E-04    0.13     103.1  T
  10    -83.6355991 -0.210575E-08  0.146E-05    0.13    1055.6  T
     SCC iter.                  ...        0 min,  0.035 sec
     gradient                   ...        0 min,  0.079 sec
 * total energy  :   -82.8757367 Eh     change       -0.8414400E-04 Eh
   gradient norm :     0.0038251 Eh/α   predicted    -0.6161065E-04 ( -26.78%)
   displ. norm   :     0.1219841 α      lambda       -0.7436183E-04
   maximum displ.:     0.0632378 α      in ANC's #4, #2, #15, ...

........................................................................
.............................. CYCLE    9 ..............................
........................................................................
   1    -83.6355353 -0.836355E+02  0.569E-02    0.12       0.0  T
   2    -83.6062621  0.292731E-01  0.530E-01    0.20       1.0  T
   3    -83.6355712 -0.293091E-01  0.557E-02    0.11       1.0  T
   4    -83.6357851 -0.213951E-03  0.220E-02    0.13       1.0  T
   5    -83.6358360 -0.508090E-04  0.266E-03    0.13       5.8  T
   6    -83.6358366 -0.602244E-06  0.825E-04    0.12      18.7  T
   7    -83.6358363  0.226617E-06  0.159E-03    0.13       9.7  T
   8    -83.6358366 -0.262061E-06  0.187E-04    0.12      82.4  T
   9    -83.6358366 -0.295024E-08  0.681E-05    0.12     226.6  T
     SCC iter.                  ...        0 min,  0.032 sec
     gradient                   ...        0 min,  0.078 sec
 * total energy  :   -82.8757919 Eh     change       -0.5526595E-04 Eh
   gradient norm :     0.0033535 Eh/α   predicted    -0.3773677E-04 ( -31.72%)
   displ. norm   :     0.1443940 α      lambda       -0.7108485E-04
   maximum displ.:     0.0734449 α      in ANC's #2, #4, #15, ...

........................................................................
.............................. CYCLE   10 ..............................
........................................................................
   1    -83.6357649 -0.836358E+02  0.374E-02    0.12       0.0  T
   2    -83.6207177  0.150472E-01  0.380E-01    0.16       1.0  T
   3    -83.6356483 -0.149307E-01  0.510E-02    0.11       1.0  T
   4    -83.6358721 -0.223820E-03  0.130E-02    0.12       1.2  T
   5    -83.6358885 -0.163906E-04  0.337E-03    0.12       4.6  T
   6    -83.6358895 -0.981167E-06  0.668E-04    0.12      23.1  T
   7    -83.6358895 -0.351889E-08  0.490E-04    0.12      31.5  T
   8    -83.6358895 -0.212980E-07  0.107E-04    0.12     143.8  T
   9    -83.6358895 -0.851898E-09  0.260E-05    0.12     592.4  T
     SCC iter.                  ...        0 min,  0.033 sec
     gradient                   ...        0 min,  0.081 sec
 * total energy  :   -82.8758455 Eh     change       -0.5356084E-04 Eh
   gradient norm :     0.0034248 Eh/α   predicted    -0.3628601E-04 ( -32.25%)
   displ. norm   :     0.1744719 α      lambda       -0.7047669E-04
   maximum displ.:     0.0930691 α      in ANC's #2, #4, #15, ...

........................................................................
.............................. CYCLE   11 ..............................
........................................................................
   1    -83.6358084 -0.836358E+02  0.139E-02    0.12       0.0  T
   2    -83.6355760  0.232377E-03  0.566E-02    0.12       1.0  T
   3    -83.6353474  0.228655E-03  0.651E-02    0.11       1.0  T
   4    -83.6358184 -0.471060E-03  0.378E-03    0.12       4.1  T
   5    -83.6358192 -0.767235E-06  0.231E-03    0.12       6.7  T
   6    -83.6358195 -0.328861E-06  0.435E-04    0.12      35.4  T
   7    -83.6358195 -0.553869E-08  0.105E-04    0.12     147.3  T
   8    -83.6358195 -0.403361E-09  0.326E-05    0.12     473.4  T
     SCC iter.                  ...        0 min,  0.029 sec
     gradient                   ...        0 min,  0.081 sec
 * total energy  :   -82.8758985 Eh     change       -0.5305501E-04 Eh
   gradient norm :     0.0035684 Eh/α   predicted    -0.3631250E-04 ( -31.56%)
   displ. norm   :     0.1884287 α      lambda       -0.6473943E-04
   maximum displ.:     0.1038138 α      in ANC's #2, #4, #11, ...

........................................................................
.............................. CYCLE   12 ..............................
........................................................................
   1    -83.6357673 -0.836358E+02  0.247E-02    0.12       0.0  T
   2    -83.6207348  0.150324E-01  0.371E-01    0.09       1.0  T
   3    -83.6358245 -0.150897E-01  0.132E-02    0.12       1.2  T
   4    -83.6358344 -0.987128E-05  0.623E-03    0.12       2.5  T
   5    -83.6358374 -0.297324E-05  0.173E-03    0.12       8.9  T
   6    -83.6358373  0.701755E-07  0.134E-03    0.12      11.5  T
   7    -83.6358375 -0.172933E-06  0.305E-04    0.12      50.7  T
   8    -83.6358375 -0.923129E-08  0.437E-05    0.12     353.1  T
   9    -83.6358375 -0.548823E-10  0.141E-05    0.12    1091.1  T
     SCC iter.                  ...        0 min,  0.032 sec
     gradient                   ...        0 min,  0.083 sec
 * total energy  :   -82.8759469 Eh     change       -0.4840165E-04 Eh
   gradient norm :     0.0033944 Eh/α   predicted    -0.3352026E-04 ( -30.75%)
   displ. norm   :     0.1846986 α      lambda       -0.5598157E-04
   maximum displ.:     0.1046811 α      in ANC's #2, #4, #11, ...

........................................................................
.............................. CYCLE   13 ..............................
........................................................................
   1    -83.6359117 -0.836359E+02  0.342E-02    0.12       0.0  T
   2    -83.6063358  0.295760E-01  0.523E-01    0.08       1.0  T
   3    -83.6360244 -0.296887E-01  0.150E-02    0.12       1.0  T
   4    -83.6360484 -0.240289E-04  0.202E-03    0.12       7.6  T
   5    -83.6360477  0.694918E-06  0.321E-03    0.12       4.8  T
   6    -83.6360480 -0.213376E-06  0.264E-03    0.12       5.8  T
   7    -83.6360486 -0.655636E-06  0.630E-04    0.12      24.5  T
   8    -83.6360487 -0.372551E-07  0.167E-04    0.12      92.6  T
   9    -83.6360487 -0.260977E-08  0.362E-05    0.12     425.9  T
     SCC iter.                  ...        0 min,  0.034 sec
     gradient                   ...        0 min,  0.079 sec
 * total energy  :   -82.8759876 Eh     change       -0.4061835E-04 Eh
   gradient norm :     0.0030297 Eh/α   predicted    -0.2894695E-04 ( -28.73%)
   displ. norm   :     0.1483565 α      lambda       -0.4520639E-04
   maximum displ.:     0.0866863 α      in ANC's #2, #4, #11, ...

........................................................................
.............................. CYCLE   14 ..............................
........................................................................
   1    -83.6365147 -0.836365E+02  0.269E-02    0.12       0.0  T
   2    -83.6182079  0.183068E-01  0.413E-01    0.08       1.0  T
   3    -83.6365821 -0.183742E-01  0.130E-02    0.12       1.2  T
   4    -83.6365890 -0.696170E-05  0.980E-03    0.12       1.6  T
   5    -83.6365978 -0.872703E-05  0.267E-03    0.12       5.8  T
   6    -83.6365978 -0.332128E-07  0.243E-03    0.12       6.4  T
   7    -83.6365984 -0.562271E-06  0.390E-04    0.12      39.6  T
   8    -83.6365984 -0.134862E-07  0.776E-05    0.12     198.9  T
   9    -83.6365984 -0.476419E-09  0.295E-05    0.12     523.5  T
     SCC iter.                  ...        0 min,  0.033 sec
     gradient                   ...        0 min,  0.079 sec
 * total energy  :   -82.8760221 Eh     change       -0.3452279E-04 Eh
   gradient norm :     0.0027000 Eh/α   predicted    -0.2310376E-04 ( -33.08%)
   displ. norm   :     0.1697378 α      lambda       -0.4977377E-04
   maximum displ.:     0.0996509 α      in ANC's #2, #3, #11, ...

........................................................................
.............................. CYCLE   15 ..............................
........................................................................
   1    -83.6367189 -0.836367E+02  0.993E-03    0.12       0.0  T
   2    -83.6343890  0.232997E-02  0.146E-01    0.10       1.0  T
   3    -83.6367069 -0.231789E-02  0.152E-02    0.12       1.0  T
   4    -83.6367209 -0.140028E-04  0.107E-02    0.12       1.4  T
   5    -83.6367301 -0.926684E-05  0.342E-03    0.12       4.5  T
   6    -83.6367310 -0.847132E-06  0.151E-03    0.12      10.2  T
   7    -83.6367312 -0.196879E-06  0.173E-04    0.12      89.3  T
   8    -83.6367312 -0.189702E-08  0.447E-05    0.12     345.4  T
     SCC iter.                  ...        0 min,  0.029 sec
     gradient                   ...        0 min,  0.080 sec
 * total energy  :   -82.8760596 Eh     change       -0.3747871E-04 Eh
   gradient norm :     0.0028777 Eh/α   predicted    -0.2560632E-04 ( -31.68%)
   displ. norm   :     0.1838480 α      lambda       -0.5467929E-04
   maximum displ.:     0.1051894 α      in ANC's #2, #3, #6, ...

........................................................................
.............................. CYCLE   16 ..............................
........................................................................
   1    -83.6371025 -0.836371E+02  0.941E-03    0.12       0.0  T
   2    -83.6362915  0.810983E-03  0.882E-02    0.12       1.0  T
   3    -83.6370367 -0.745146E-03  0.255E-02    0.11       1.0  T
   4    -83.6371025 -0.658167E-04  0.804E-03    0.12       1.9  T
   5    -83.6371080 -0.552267E-05  0.181E-03    0.12       8.5  T
   6    -83.6371081 -0.145176E-06  0.982E-04    0.12      15.7  T
   7    -83.6371082 -0.647761E-07  0.216E-04    0.12      71.3  T
   8    -83.6371082 -0.395092E-08  0.222E-05    0.12     694.1  T
   9    -83.6371082  0.203215E-10  0.211E-05    0.12     730.8  T
     SCC iter.                  ...        0 min,  0.032 sec
     gradient                   ...        0 min,  0.078 sec
 * total energy  :   -82.8761005 Eh     change       -0.4091883E-04 Eh
   gradient norm :     0.0034224 Eh/α   predicted    -0.2826696E-04 ( -30.92%)
   displ. norm   :     0.2242616 α      lambda       -0.5793551E-04
   maximum displ.:     0.1291154 α      in ANC's #2, #3, #7, ...

........................................................................
.............................. CYCLE   17 ..............................
........................................................................
   1    -83.6359794 -0.836360E+02  0.400E-02    0.12       0.0  T
   2    -83.6197865  0.161930E-01  0.394E-01    0.16       1.0  T
   3    -83.6357237 -0.159372E-01  0.617E-02    0.11       1.0  T
   4    -83.6361149 -0.391169E-03  0.282E-03    0.12       5.5  T
   5    -83.6361151 -0.285271E-06  0.103E-03    0.12      14.9  T
   6    -83.6361150  0.108373E-06  0.144E-03    0.12      10.7  T
   7    -83.6361152 -0.175254E-06  0.183E-04    0.12      84.2  T
   8    -83.6361152 -0.113540E-08  0.361E-05    0.12     427.9  T
     SCC iter.                  ...        0 min,  0.029 sec
     gradient                   ...        0 min,  0.081 sec
 * total energy  :   -82.8761426 Eh     change       -0.4212032E-04 Eh
   gradient norm :     0.0039116 Eh/α   predicted    -0.3042781E-04 ( -27.76%)
   displ. norm   :     0.2056264 α      lambda       -0.5807613E-04
   maximum displ.:     0.1107702 α      in ANC's #2, #7, #3, ...

........................................................................
.............................. CYCLE   18 ..............................
........................................................................
   1    -83.6364236 -0.836364E+02  0.434E-02    0.12       0.0  T
   2    -83.6168970  0.195266E-01  0.433E-01    0.17       1.0  T
   3    -83.6363345 -0.194376E-01  0.514E-02    0.11       1.0  T
   4    -83.6365823 -0.247735E-03  0.955E-03    0.12       1.6  T
   5    -83.6365912 -0.896079E-05  0.220E-03    0.12       7.0  T
   6    -83.6365916 -0.335334E-06  0.108E-03    0.12      14.3  T
   7    -83.6365916 -0.746832E-07  0.395E-04    0.12      39.1  T
   8    -83.6365917 -0.156002E-07  0.479E-05    0.12     321.9  T
   9    -83.6365917 -0.946301E-10  0.308E-05    0.12     501.3  T
     SCC iter.                  ...        0 min,  0.031 sec
     gradient                   ...        0 min,  0.081 sec
 * total energy  :   -82.8761795 Eh     change       -0.3690636E-04 Eh
   gradient norm :     0.0032314 Eh/α   predicted    -0.3026616E-04 ( -17.99%)
   displ. norm   :     0.1892278 α      lambda       -0.4113026E-04
   maximum displ.:     0.1143590 α      in ANC's #2, #7, #3, ...

........................................................................
.............................. CYCLE   19 ..............................
........................................................................
   1    -83.6352135 -0.836352E+02  0.475E-02    0.12       0.0  T
   2    -83.6190382  0.161754E-01  0.399E-01    0.15       1.0  T
   3    -83.6338167 -0.147785E-01  0.122E-01    0.10       1.0  T
   4    -83.6353816 -0.156494E-02  0.521E-03    0.12       3.0  T
   5    -83.6353838 -0.218508E-05  0.158E-03    0.12       9.8  T
   6    -83.6353836  0.260053E-06  0.190E-03    0.12       8.1  T
   7    -83.6353839 -0.351800E-06  0.233E-04    0.12      66.2  T
   8    -83.6353839 -0.250314E-08  0.517E-05    0.12     298.3  T
   9    -83.6353839 -0.753886E-10  0.378E-05    0.12     408.4  T
     SCC iter.                  ...        0 min,  0.032 sec
     gradient                   ...        0 min,  0.081 sec
 * total energy  :   -82.8762038 Eh     change       -0.2430015E-04 Eh
   gradient norm :     0.0031270 Eh/α   predicted    -0.2130389E-04 ( -12.33%)
   displ. norm   :     0.0831401 α      lambda       -0.3205498E-04
   maximum displ.:     0.0402042 α      in ANC's #7, #2, #4, ...

........................................................................
.............................. CYCLE   20 ..............................
........................................................................
   1    -83.6368905 -0.836369E+02  0.194E-02    0.12       0.0  T
   2    -83.6360492  0.841240E-03  0.991E-02    0.12       1.0  T
   3    -83.6359283  0.120977E-03  0.942E-02    0.10       1.0  T
   4    -83.6369121 -0.983857E-03  0.271E-03    0.12       5.7  T
   5    -83.6369126 -0.455526E-06  0.119E-03    0.12      12.9  T
   6    -83.6369126 -0.355164E-07  0.507E-04    0.12      30.4  T
   7    -83.6369126 -0.158288E-07  0.527E-05    0.12     292.9  T
   8    -83.6369126 -0.322586E-11  0.342E-05    0.12     450.7  T
     SCC iter.                  ...        0 min,  0.028 sec
     gradient                   ...        0 min,  0.081 sec
 * total energy  :   -82.8762240 Eh     change       -0.2019002E-04 Eh
   gradient norm :     0.0020406 Eh/α   predicted    -0.1614071E-04 ( -20.06%)
   displ. norm   :     0.1134911 α      lambda       -0.1771338E-04
   maximum displ.:     0.0718984 α      in ANC's #2, #7, #5, ...
 * RMSD in coord.:     0.4054941 α      energy gain  -0.1960487E-01 Eh

generating ANC from model Hessian ...
Using Lindh-Hessian (1995)
 Shifting diagonal of input Hessian by   9.809083062351332E-003
 Lowest  eigenvalues of input Hessian
    0.000000    0.000000    0.000000    0.000000    0.000000    0.000000
    0.010000    0.010100    0.010771    0.011239    0.011954    0.012069
    0.013030    0.013776    0.014452    0.014595    0.015693    0.016495
 Highest eigenvalues
    2.035291    2.101672    2.130551    2.272986    2.383995    2.418242
 

........................................................................
.............................. CYCLE   21 ..............................
........................................................................
   1    -83.6367295 -0.836367E+02  0.156E-02    0.12       0.0  T
   2    -83.6361369  0.592648E-03  0.768E-02    0.10       1.0  T
   3    -83.6361563 -0.194403E-04  0.772E-02    0.12       1.0  T
   4    -83.6367408 -0.584461E-03  0.769E-03    0.12       2.0  T
   5    -83.6367463 -0.552274E-05  0.230E-03    0.12       6.7  T
   6    -83.6367466 -0.344992E-06  0.126E-03    0.12      12.2  T
   7    -83.6367468 -0.150022E-06  0.275E-04    0.12      56.2  T
   8    -83.6367468 -0.673364E-08  0.683E-05    0.12     225.8  T
   9    -83.6367468 -0.287329E-09  0.363E-05    0.12     425.6  T
     SCC iter.                  ...        0 min,  0.032 sec
     gradient                   ...        0 min,  0.081 sec
 * total energy  :   -82.8762373 Eh     change       -0.1327007E-04 Eh
   gradient norm :     0.0020508 Eh/α   predicted     0.0000000E+00 (-100.00%)
   displ. norm   :     0.0170674 α      lambda       -0.6471492E-05
   maximum displ.:     0.0073526 α      in ANC's #4, #2, #1, ...

........................................................................
.............................. CYCLE   22 ..............................
........................................................................
   1    -83.6370057 -0.836370E+02  0.286E-03    0.12       0.0  T
   2    -83.6368756  0.130117E-03  0.352E-02    0.11       1.0  T
   3    -83.6370063 -0.130768E-03  0.161E-03    0.12       9.6  T
   4    -83.6370058  0.493094E-06  0.243E-03    0.12       6.4  T
   5    -83.6370064 -0.577492E-06  0.750E-04    0.12      20.6  T
   6    -83.6370064 -0.276355E-07  0.186E-04    0.12      82.9  T
   7    -83.6370064 -0.183327E-08  0.446E-05    0.12     345.6  T
     SCC iter.                  ...        0 min,  0.025 sec
     gradient                   ...        0 min,  0.082 sec
 * total energy  :   -82.8762443 Eh     change       -0.7074085E-05 Eh
   gradient norm :     0.0011713 Eh/α   predicted    -0.4213712E-05 ( -40.43%)
   displ. norm   :     0.0874438 α      lambda       -0.1650958E-04
   maximum displ.:     0.0395886 α      in ANC's #4, #2, #1, ...

........................................................................
.............................. CYCLE   23 ..............................
........................................................................
   1    -83.6373967 -0.836374E+02  0.136E-02    0.12       0.0  T
   2    -83.6334610  0.393562E-02  0.193E-01    0.10       1.0  T
   3    -83.6374109 -0.394983E-02  0.812E-03    0.12       1.9  T
   4    -83.6374112 -0.362610E-06  0.717E-03    0.12       2.2  T
   5    -83.6374161 -0.487341E-05  0.257E-03    0.12       6.0  T
   6    -83.6374163 -0.219804E-06  0.112E-03    0.12      13.8  T
   7    -83.6374164 -0.924019E-07  0.258E-04    0.12      59.8  T
   8    -83.6374164 -0.662196E-08  0.205E-05    0.12     753.8  T
   9    -83.6374164  0.270859E-10  0.208E-05    0.12     743.6  T
     SCC iter.                  ...        0 min,  0.033 sec
     gradient                   ...        0 min,  0.087 sec
 * total energy  :   -82.8762561 Eh     change       -0.1179749E-04 Eh
   gradient norm :     0.0020550 Eh/α   predicted    -0.8975012E-05 ( -23.92%)
   displ. norm   :     0.0169880 α      lambda       -0.3987052E-05
   maximum displ.:     0.0078945 α      in ANC's #2, #1, #4, ...

........................................................................
.............................. CYCLE   24 ..............................
........................................................................
   1    -83.6372833 -0.836373E+02  0.179E-03    0.12       0.0  T
   2    -83.6372802  0.308489E-05  0.665E-03    0.12       2.3  T
   3    -83.6372762  0.408520E-05  0.816E-03    0.12       1.9  T
   4    -83.6372835 -0.731072E-05  0.709E-04    0.12      21.8  T
   5    -83.6372835 -0.281469E-07  0.453E-04    0.12      34.0  T
   6    -83.6372835 -0.152050E-07  0.992E-05    0.12     155.6  T
   7    -83.6372835 -0.697511E-09  0.959E-06    0.12    1609.7  T
     SCC iter.                  ...        0 min,  0.025 sec
     gradient                   ...        0 min,  0.079 sec
 * total energy  :   -82.8762605 Eh     change       -0.4318797E-05 Eh
   gradient norm :     0.0015817 Eh/α   predicted    -0.2385739E-05 ( -44.76%)
   displ. norm   :     0.1454754 α      lambda       -0.2066217E-04
   maximum displ.:     0.0674780 α      in ANC's #2, #1, #4, ...

........................................................................
.............................. CYCLE   25 ..............................
........................................................................
   1    -83.6363313 -0.836363E+02  0.210E-02    0.12       0.0  T
   2    -83.6333960  0.293525E-02  0.173E-01    0.13       1.0  T
   3    -83.6359732 -0.257715E-02  0.600E-02    0.11       1.0  T
   4    -83.6363585 -0.385268E-03  0.609E-03    0.12       2.5  T
   5    -83.6363609 -0.248428E-05  0.341E-03    0.12       4.5  T
   6    -83.6363619 -0.977900E-06  0.589E-04    0.12      26.2  T
   7    -83.6363619 -0.157882E-07  0.945E-05    0.12     163.3  T
   8    -83.6363619 -0.367706E-09  0.390E-05    0.12     395.5  T
     SCC iter.                  ...        0 min,  0.029 sec
     gradient                   ...        0 min,  0.079 sec
 * total energy  :   -82.8762738 Eh     change       -0.1337599E-04 Eh
   gradient norm :     0.0021146 Eh/α   predicted    -0.1046457E-04 ( -21.77%)
   displ. norm   :     0.0227596 α      lambda       -0.5218859E-05
   maximum displ.:     0.0121805 α      in ANC's #1, #2, #4, ...

........................................................................
.............................. CYCLE   26 ..............................
........................................................................
   1    -83.6366287 -0.836366E+02  0.612E-03    0.12       0.0  T
   2    -83.6360907  0.537936E-03  0.720E-02    0.12       1.0  T
   3    -83.6366250 -0.534226E-03  0.807E-03    0.12       1.9  T
   4    -83.6366317 -0.677372E-05  0.133E-03    0.12      11.6  T
   5    -83.6366318 -0.919873E-07  0.608E-04    0.12      25.4  T
   6    -83.6366319 -0.172787E-07  0.275E-04    0.12      56.0  T
   7    -83.6366319 -0.655881E-08  0.132E-05    0.12    1171.9  T
   8    -83.6366319 -0.525802E-11  0.501E-06    0.12    3079.5  T
     SCC iter.                  ...        0 min,  0.028 sec
     gradient                   ...        0 min,  0.079 sec
 * total energy  :   -82.8762783 Eh     change       -0.4499554E-05 Eh
   gradient norm :     0.0014274 Eh/α   predicted    -0.2611480E-05 ( -41.96%)
   displ. norm   :     0.1280865 α      lambda       -0.1348361E-04
   maximum displ.:     0.0676059 α      in ANC's #1, #2, #4, ...

........................................................................
.............................. CYCLE   27 ..............................
........................................................................
   1    -83.6372401 -0.836372E+02  0.411E-02    0.12       0.0  T
   2    -83.6195801  0.176600E-01  0.414E-01    0.17       1.0  T
   3    -83.6371525 -0.175724E-01  0.477E-02    0.11       1.0  T
   4    -83.6373842 -0.231679E-03  0.526E-03    0.12       2.9  T
   5    -83.6373864 -0.217186E-05  0.177E-03    0.12       8.7  T
   6    -83.6373862  0.146068E-06  0.178E-03    0.12       8.7  T
   7    -83.6373865 -0.238915E-06  0.261E-04    0.12      59.1  T
   8    -83.6373865 -0.712711E-08  0.307E-05    0.12     502.2  T
   9    -83.6373865 -0.194262E-10  0.190E-05    0.12     812.2  T
     SCC iter.                  ...        0 min,  0.032 sec
     gradient                   ...        0 min,  0.079 sec
 * total energy  :   -82.8762894 Eh     change       -0.1107866E-04 Eh
   gradient norm :     0.0012076 Eh/α   predicted    -0.6791222E-05 ( -38.70%)
   displ. norm   :     0.1017049 α      lambda       -0.5760060E-05
   maximum displ.:     0.0528997 α      in ANC's #1, #2, #4, ...

........................................................................
.............................. CYCLE   28 ..............................
........................................................................
   1    -83.6369935 -0.836370E+02  0.303E-02    0.12       0.0  T
   2    -83.6267582  0.102354E-01  0.316E-01    0.15       1.0  T
   3    -83.6368746 -0.101164E-01  0.436E-02    0.11       1.0  T
   4    -83.6370697 -0.195146E-03  0.368E-03    0.12       4.2  T
   5    -83.6370710 -0.126372E-05  0.947E-04    0.12      16.3  T
   6    -83.6370711 -0.797490E-07  0.372E-04    0.12      41.4  T
   7    -83.6370711 -0.461660E-08  0.103E-04    0.12     150.2  T
   8    -83.6370711 -0.479147E-09  0.328E-05    0.12     470.5  T
     SCC iter.                  ...        0 min,  0.028 sec
     gradient                   ...        0 min,  0.079 sec
 * total energy  :   -82.8762968 Eh     change       -0.7441924E-05 Eh
   gradient norm :     0.0011015 Eh/α   predicted    -0.2894899E-05 ( -61.10%)
   displ. norm   :     0.1786983 α      lambda       -0.1194954E-04
   maximum displ.:     0.0956720 α      in ANC's #1, #2, #6, ...

........................................................................
.............................. CYCLE   29 ..............................
........................................................................
   1    -83.6363076 -0.836363E+02  0.560E-02    0.12       0.0  T
   2    -83.6112089  0.250987E-01  0.498E-01    0.18       1.0  T
   3    -83.6357290 -0.245201E-01  0.899E-02    0.10       1.0  T
   4    -83.6365464 -0.817332E-03  0.127E-02    0.12       1.2  T
   5    -83.6365630 -0.166769E-04  0.155E-03    0.12      10.0  T
   6    -83.6365632 -0.167211E-06  0.856E-04    0.12      18.0  T
   7    -83.6365632 -0.309890E-07  0.503E-04    0.12      30.7  T
   8    -83.6365633 -0.257034E-07  0.384E-05    0.12     402.2  T
   9    -83.6365633  0.700879E-10  0.407E-05    0.12     379.1  T
     SCC iter.                  ...        0 min,  0.032 sec
     gradient                   ...        0 min,  0.079 sec
 * total energy  :   -82.8763090 Eh     change       -0.1211461E-04 Eh
   gradient norm :     0.0011931 Eh/α   predicted    -0.6061949E-05 ( -49.96%)
   displ. norm   :     0.0902523 α      lambda       -0.5599033E-05
   maximum displ.:     0.0507141 α      in ANC's #1, #2, #6, ...

........................................................................
.............................. CYCLE   30 ..............................
........................................................................
   1    -83.6366242 -0.836366E+02  0.227E-02    0.12       0.0  T
   2    -83.6317663  0.485787E-02  0.220E-01    0.14       1.0  T
   3    -83.6363877 -0.462134E-02  0.507E-02    0.11       1.0  T
   4    -83.6366627 -0.275053E-03  0.107E-03    0.12      14.4  T
   5    -83.6366628 -0.733852E-07  0.343E-04    0.12      45.0  T
   6    -83.6366628  0.129293E-07  0.440E-04    0.12      35.1  T
   7    -83.6366628 -0.163351E-07  0.987E-05    0.12     156.4  T
   8    -83.6366628 -0.643354E-09  0.301E-05    0.12     512.9  T
     SCC iter.                  ...        0 min,  0.028 sec
     gradient                   ...        0 min,  0.079 sec
 * total energy  :   -82.8763155 Eh     change       -0.6518068E-05 Eh
   gradient norm :     0.0008908 Eh/α   predicted    -0.2810426E-05 ( -56.88%)
   displ. norm   :     0.1059727 α      lambda       -0.5999916E-05
   maximum displ.:     0.0594610 α      in ANC's #1, #2, #6, ...

........................................................................
.............................. CYCLE   31 ..............................
........................................................................
   1    -83.6368133 -0.836368E+02  0.179E-02    0.12       0.0  T
   2    -83.6343354  0.247788E-02  0.159E-01    0.13       1.0  T
   3    -83.6365518 -0.221646E-02  0.511E-02    0.11       1.0  T
   4    -83.6368350 -0.283197E-03  0.209E-03    0.12       7.4  T
   5    -83.6368355 -0.414207E-06  0.340E-04    0.12      45.3  T
   6    -83.6368354  0.137706E-07  0.433E-04    0.12      35.6  T
   7    -83.6368355 -0.153757E-07  0.110E-04    0.12     140.5  T
   8    -83.6368355 -0.745970E-09  0.429E-05    0.12     359.8  T
     SCC iter.                  ...        0 min,  0.028 sec
     gradient                   ...        0 min,  0.079 sec
 * total energy  :   -82.8763221 Eh     change       -0.6628954E-05 Eh
   gradient norm :     0.0005192 Eh/α   predicted    -0.3018690E-05 ( -54.46%)
   displ. norm   :     0.0885984 α      lambda       -0.3988703E-05
   maximum displ.:     0.0497462 α      in ANC's #1, #2, #6, ...

........................................................................
.............................. CYCLE   32 ..............................
........................................................................
   1    -83.6370944 -0.836371E+02  0.750E-03    0.12       0.0  T
   2    -83.6369325  0.161842E-03  0.430E-02    0.12       1.0  T
   3    -83.6369587 -0.261665E-04  0.357E-02    0.12       1.0  T
   4    -83.6370973 -0.138612E-03  0.207E-03    0.12       7.4  T
   5    -83.6370977 -0.438325E-06  0.381E-04    0.12      40.5  T
   6    -83.6370977 -0.420954E-09  0.237E-04    0.12      65.0  T
   7    -83.6370977 -0.428248E-08  0.668E-05    0.12     231.0  T
   8    -83.6370977 -0.344428E-09  0.898E-06    0.12    1719.1  T
     SCC iter.                  ...        0 min,  0.028 sec
     gradient                   ...        0 min,  0.080 sec
 * total energy  :   -82.8763261 Eh     change       -0.4013384E-05 Eh
   gradient norm :     0.0006343 Eh/α   predicted    -0.2004094E-05 ( -50.06%)
   displ. norm   :     0.0686425 α      lambda       -0.2411536E-05
   maximum displ.:     0.0387325 α      in ANC's #1, #2, #6, ...

   *** GEOMETRY OPTIMIZATION CONVERGED AFTER 32 ITERATIONS ***

------------------------------------------------------------------------
 total energy gain   :        -0.0197070 Eh      -12.3663 kcal/mol
 total RMSD          :         0.4543255 a0        0.2404 Å
 total power (kW/mol):        -1.6168976 (step)  -10.4709 (real)
------------------------------------------------------------------------

 ANCopt (total)                0 d,  0 h,  0 min,  4.941 sec
 optimizer setup                ...        0 min,  0.001 sec (  0.019%)
 model hessian                  ...        0 min,  0.074 sec (  1.502%)
 ANC generation                 ...        0 min,  0.005 sec (  0.100%)
 coordinate transformation      ...        0 min,  0.001 sec (  0.022%)
 single point calculation       ...        0 min,  4.841 sec ( 97.971%)
 optimization log               ...        0 min,  0.010 sec (  0.202%)
 hessian update                 ...        0 min,  0.001 sec (  0.020%)
 rational function              ...        0 min,  0.005 sec (  0.098%)

================
 final structure:
================
42
 xtb: 6.5.1 (579679a)
C            6.15953633524038        2.21068044181026        0.47648308127404
O            4.91650080441896        1.89282885628209       -0.16022389947112
C            4.24588281074100        0.86482885802339        0.33016329358661
O            4.61333805181303        0.19838343278275        1.26813713297955
C            2.95632383422588        0.58877832267020       -0.39517948450010
N            2.17130998998749       -0.27811745049304        0.22071995561026
C            0.99177782900457       -0.61432469454517       -0.28000149796489
C            0.17797811201768       -1.68468143580107        0.37073848680085
C            0.54768988064825       -1.85471941539440        1.85328773688928
C            0.52322731409637       -3.00068709614447       -0.37099382895975
N           -1.21895737624103       -1.43570129633896        0.12950637159644
C           -1.98115263592419       -0.40621687854402        1.01295780967400
C           -1.31308415880495        0.97304130825750        0.90005968148565
O           -2.03196121073640       -0.92950071077359        2.20074025771471
C           -3.35093952869402       -0.35122054743550        0.32246513358985
N           -4.11320464591356       -1.34789845734124        0.01892091687697
N           -5.24394654677010       -0.81300383450719       -0.54540609580127
C           -5.09187935203314        0.47110750602124       -0.54073764240739
C           -6.03076759521823        1.50422212751036       -1.03381945187999
O           -3.90848082932458        0.83040198866421       -0.00437522721632
N            0.50917021875527       -0.04656456161793       -1.39902861720595
C            1.19985590901127        0.87231381293626       -2.18022215034874
O            0.71831766736952        1.30242895949305       -3.19926871743331
C            2.58531487180145        1.23024078269502       -1.65636282255911
O            3.29050021296085        1.99468531540274       -2.28575170326294
H            5.98650649742695        2.45941513700932        1.52560929433251
H            6.57034544017835        3.06580045603519       -0.05563597545682
H            6.83772579575149        1.35714132707830        0.41360799333020
H            0.40459750661546       -0.91720642272876        2.38564147017913
H            1.59030260289698       -2.15791194112367        1.93281794473196
H           -0.09583639892431       -2.61459763549552        2.28980914522748
H           -0.03049754697109       -3.81861488802849        0.08439749198894
H            0.24787923746219       -2.91630312152006       -1.41994148488430
H            1.58978799161373       -3.20027021377057       -0.29237616353735
H           -1.74478285625741       -2.30504834589588        0.20279320638895
H           -0.28614644722608        0.92151700061849        1.25514196395957
H           -1.86905868204099        1.66559384930632        1.52929039805836
H           -1.32961677859204        1.32442206910607       -0.12809465410176
H           -6.35328357047915        2.13909794425856       -0.20828063643981
H           -6.89743640304220        1.02625197512269       -1.48411107420557
H           -5.53609334286025        2.13576850392688       -1.77108867221424
H           -0.40674600798464       -0.33636102751371       -1.72315096642443
 
 Bond Distances (Angstroems)
 ---------------------------
C1-O2=1.4323         C1-H26=1.0920        C1-H27=1.0877        C1-H28=1.0920        O2-C1=1.4323         O2-C3=1.3217         
C3-O2=1.3217         C3-O4=1.2079         C3-C5=1.5051         O4-C3=1.2079         C5-C3=1.5051         C5-N6=1.3218         
C5-C24=1.4628        N6-C5=1.3218         N6-C7=1.3248         C7-N6=1.3248         C7-C8=1.4938         C7-N21=1.3444        
C8-C7=1.4938         C8-C9=1.5374         C8-C10=1.5496        C8-N11=1.4393        C9-C8=1.5374         C9-H29=1.0876        
C9-H30=1.0887        C9-H31=1.0872        C10-C8=1.5496        C10-H32=1.0877       C10-H33=1.0878       C10-H34=1.0879       
N11-C8=1.4393        N11-C12=1.5560       N11-H35=1.0186       C12-N11=1.5560       C12-C13=1.5367       C12-O14=1.2989       
C12-C15=1.5350       C13-C12=1.5367       C13-H36=1.0878       C13-H37=1.0884       C13-H38=1.0867       O14-C12=1.2989       
C15-C12=1.5350       C15-N16=1.2910       C15-O20=1.3468       N16-C15=1.2910       N16-N17=1.3723       N17-N16=1.3723       
N17-C18=1.2931       C18-N17=1.2931       C18-C19=1.4805       C18-O20=1.3480       C19-C18=1.4805       C19-H39=1.0902       
C19-H40=1.0874       C19-H41=1.0896       O20-C15=1.3468       O20-C18=1.3480       N21-C7=1.3444        N21-C22=1.3898       
N21-H42=1.0139       C22-N21=1.3898       C22-O23=1.2064       C22-C24=1.5238       O23-C22=1.2064       C24-C5=1.4628        
C24-C22=1.5238       C24-O25=1.2156       O25-C24=1.2156       H26-C1=1.0920        H27-C1=1.0877        H28-C1=1.0920        
H29-C9=1.0876        H30-C9=1.0887        H31-C9=1.0872        H32-C10=1.0877       H33-C10=1.0878       H34-C10=1.0879       
H35-N11=1.0186       H36-C13=1.0878       H37-C13=1.0884       H38-C13=1.0867       H39-C19=1.0902       H40-C19=1.0874       
H41-C19=1.0896       H42-N21=1.0139       
 C  H  Rav=1.0886 sigma=0.0016  Rmin=1.0867  Rmax=1.0920    15
 C  C  Rav=1.5138 sigma=0.0281  Rmin=1.4628  Rmax=1.5496     9
 N  H  Rav=1.0163 sigma=0.0024  Rmin=1.0139  Rmax=1.0186     2
 N  C  Rav=1.3700 sigma=0.0844  Rmin=1.2910  Rmax=1.5560     8
 N  N  Rav=1.3723 sigma=0.0000  Rmin=1.3723  Rmax=1.3723     1
 O  C  Rav=1.2972 sigma=0.0765  Rmin=1.2064  Rmax=1.4323     8
 
 selected bond angles (degree)
 --------------------
H26-C1-O2=109.88               H27-C1-O2=106.54               H27-C1-H26=110.53              H28-C1-O2=109.87               
H28-C1-H26=109.38              H28-C1-H27=110.60              C3-O2-C1=116.61                O4-C3-O2=124.26                
C5-C3-O2=113.49                C5-C3-O4=122.26                N6-C5-C3=113.87                C24-C5-C3=123.53               
C24-C5-N6=122.60               C7-N6-C5=121.27                C8-C7-N6=120.15                N21-C7-N6=121.81               
N21-C7-C8=118.01               C9-C8-C7=111.61                C10-C8-C7=106.18               C10-C8-C9=108.31               
N11-C8-C7=109.38               N11-C8-C9=114.47               N11-C8-C10=106.43              H29-C9-C8=110.18               
H30-C9-C8=109.36               H30-C9-H29=109.29              H31-C9-C8=108.79               H31-C9-H29=109.15              
H31-C9-H30=110.05              H32-C10-C8=108.95              H33-C10-C8=109.83              H33-C10-H32=109.46             
H34-C10-C8=109.85              H34-C10-H32=109.32             H34-C10-H33=109.40             
 
 selected dihedral angles (degree)
 ---------------------------------
C3-O2-C1-H26=299.35           C3-O2-C1-H27=179.58           C3-O2-C1-H28= 59.74           O4-C3-O2-C1=  0.34            
C5-C3-O2-C1=180.33            N6-C5-C3-O2=191.09            N6-C5-C3-O4= 11.08            C24-C5-C3-O2= 10.20           
C24-C5-C3-O4=190.18           C7-N6-C5-C3=179.10            C7-N6-C5-C24=  0.00           C8-C7-N6-C5=174.57            
N21-C7-N6-C5=356.78           C9-C8-C7-N6= 23.81            C9-C8-C7-N21=201.68           C10-C8-C7-N6=265.99           
C10-C8-C7-N21= 83.86          N11-C8-C7-N6=151.51           N11-C8-C7-N21=329.39          H29-C9-C8-C7= 58.20           
H29-C9-C8-C10=174.73          H29-C9-C8-N11=293.28          H30-C9-C8-C7=298.05           H30-C9-C8-C10= 54.59          
H30-C9-C8-N11=173.14          H31-C9-C8-C7=177.82           H31-C9-C8-C10=294.36          H31-C9-C8-N11= 52.91          
H32-C10-C8-C7=178.69          H32-C10-C8-C9= 58.70          H32-C10-C8-N11=295.17         H33-C10-C8-C7=298.59          
H33-C10-C8-C9=178.59          H33-C10-C8-N11= 55.06         H34-C10-C8-C7= 58.96          H34-C10-C8-C9=298.96          
H34-C10-C8-N11=175.43         
           -------------------------------------------------
          |                Final Singlepoint                |
           -------------------------------------------------

          ...................................................
          :                      SETUP                      :
          :.................................................:
          :  # basis functions                 134          :
          :  # atomic orbitals                 134          :
          :  # shells                           84          :
          :  # electrons                       134          :
          :  # halogen bonds                     0          :
          :  max. iterations                   250          :
          :  Hamiltonian                  GFN1-xTB          :
          :  restarted?                      false          :
          :  GBSA solvation                   true          :
          :  PC potential                    false          :
          :  electronic temp.          300.0000000     K    :
          :  accuracy                    1.0000000          :
          :  -> integral cutoff          0.2500000E+02      :
          :  -> integral neglect         0.1000000E-07      :
          :  -> SCF convergence          0.1000000E-05 Eh   :
          :  -> wf. convergence          0.2000000E-04 e    :
          :  Broyden damping             0.4000000          :
          ...................................................

 iter      E             dE          RMSdq      gap      omega  full diag
   1    -83.6370977 -0.836371E+02  0.117E-05    0.12       0.0  T
   2    -83.6370977  0.262527E-08  0.158E-04    0.12      97.6  T
   3    -83.6370977 -0.263650E-08  0.503E-06    0.12    3067.9  T

   *** convergence criteria satisfied after 3 iterations ***

         #    Occupation            Energy/Eh            Energy/eV
      -------------------------------------------------------------
         1        2.0000           -0.8655508             -23.5528
       ...           ...                  ...                  ...
        61        2.0000           -0.4733900             -12.8816
        62        2.0000           -0.4647221             -12.6457
        63        2.0000           -0.4526676             -12.3177
        64        2.0000           -0.4512939             -12.2803
        65        2.0000           -0.4465750             -12.1519
        66        1.9846           -0.4345519             -11.8248
        67        1.8315           -0.4322029             -11.7608 (HOMO)
        68        0.1839           -0.4277602             -11.6399 (LUMO)
        69                         -0.3349873              -9.1155
        70                         -0.3127451              -8.5102
        71                         -0.2640825              -7.1861
        72                         -0.2584517              -7.0328
       ...                                ...                  ...
       134                          0.7498549              20.4046
      -------------------------------------------------------------
                  HL-Gap            0.0044426 Eh            0.1209 eV
             Fermi-level           -0.4299360 Eh          -11.6992 eV

 SCC (total)                   0 d,  0 h,  0 min,  0.128 sec
 SCC setup                      ...        0 min,  0.002 sec (  1.464%)
 Dispersion                     ...        0 min,  0.000 sec (  0.264%)
 classical contributions        ...        0 min,  0.000 sec (  0.087%)
 integral evaluation            ...        0 min,  0.034 sec ( 26.451%)
 iterations                     ...        0 min,  0.011 sec (  8.775%)
 molecular gradient             ...        0 min,  0.080 sec ( 62.241%)
 printout                       ...        0 min,  0.001 sec (  0.676%)

         :::::::::::::::::::::::::::::::::::::::::::::::::::::
         ::                     SUMMARY                     ::
         :::::::::::::::::::::::::::::::::::::::::::::::::::::
         :: total energy             -82.876326121842 Eh    ::
         :: total w/o Gsasa/hb       -82.856045842410 Eh    ::
         :: gradient norm              0.000634623175 Eh/a0 ::
         :: HOMO-LUMO gap              0.120889593855 eV    ::
         ::.................................................::
         :: SCC energy               -83.637097745671 Eh    ::
         :: -> electrostatic           0.369086547882 Eh    ::
         :: -> Gsolv                  -0.057350617548 Eh    ::
         ::    -> Gelec               -0.037070338116 Eh    ::
         ::    -> Gsasa               -0.023783230326 Eh    ::
         ::    -> Ghb                 -0.004121328111 Eh    ::
         ::    -> Gshift               0.007624279005 Eh    ::
         :: repulsion energy           0.787886177399 Eh    ::
         :: dispersion energy         -0.027114553570 Eh    ::
         :: halogen bond corr.         0.000000000000 Eh    ::
         :: add. restraining           0.000000000000 Eh    ::
         :: total charge               0.000000000007 e     ::
         :::::::::::::::::::::::::::::::::::::::::::::::::::::

           -------------------------------------------------
          |                Property Printout                |
           -------------------------------------------------

    * Orbital Energies and Occupations

         #    Occupation            Energy/Eh            Energy/eV
      -------------------------------------------------------------
         1        2.0000           -0.8655508             -23.5528
       ...           ...                  ...                  ...
        55        2.0000           -0.5148265             -14.0091
        56        2.0000           -0.5068473             -13.7920
        57        2.0000           -0.5047080             -13.7338
        58        2.0000           -0.4971013             -13.5268
        59        2.0000           -0.4961446             -13.5008
        60        2.0000           -0.4905649             -13.3490
        61        2.0000           -0.4733900             -12.8816
        62        2.0000           -0.4647221             -12.6457
        63        2.0000           -0.4526676             -12.3177
        64        2.0000           -0.4512939             -12.2803
        65        2.0000           -0.4465750             -12.1519
        66        1.9846           -0.4345519             -11.8248
        67        1.8315           -0.4322029             -11.7608 (HOMO)
        68        0.1839           -0.4277602             -11.6399 (LUMO)
        69                         -0.3349873              -9.1155
        70                         -0.3127451              -8.5102
        71                         -0.2640825              -7.1861
        72                         -0.2584517              -7.0328
        73                         -0.2470813              -6.7234
        74                         -0.1885919              -5.1318
        75                         -0.1420758              -3.8661
        76                         -0.1414166              -3.8481
        77                         -0.1405466              -3.8245
        78                         -0.1323071              -3.6003
       ...                                ...                  ...
       134                          0.7498549              20.4046
      -------------------------------------------------------------
                  HL-Gap            0.0044426 Eh            0.1209 eV
             Fermi-level           -0.4299360 Eh          -11.6992 eV

  Mulliken/CM5 charges         n(s)   n(p)   n(d)
     1C     0.16156  0.04057   0.983  2.855  0.000
     2O    -0.39616 -0.48052   1.682  4.714  0.000
     3C     0.58336  0.65178   0.961  2.456  0.000
     4O    -0.54487 -0.58893   1.723  4.822  0.000
     5C     0.12213  0.20873   1.084  2.794  0.000
     6N    -0.30847 -0.49623   1.522  3.786  0.000
     7C     0.30727  0.45421   1.038  2.655  0.000
     8C     0.15522  0.19721   1.063  2.782  0.000
     9C    -0.07730 -0.21708   1.026  3.052  0.000
    10C    -0.09263 -0.23350   1.030  3.062  0.000
    11N    -0.35566 -0.69124   1.526  3.829  0.000
    12C     0.38877  0.45231   1.019  2.592  0.000
    13C    -0.12340 -0.26067   1.027  3.096  0.000
    14O    -0.60741 -0.65492   1.764  4.843  0.000
    15C     0.35004  0.47521   1.024  2.626  0.000
    16N    -0.25360 -0.36238   1.567  3.687  0.000
    17N    -0.27090 -0.37953   1.567  3.704  0.000
    18C     0.38145  0.49038   1.003  2.615  0.000
    19C    -0.11121 -0.24862   1.011  3.100  0.000
    20O    -0.36001 -0.41687   1.698  4.662  0.000
    21N    -0.26266 -0.61113   1.440  3.823  0.000
    22C     0.46309  0.56545   1.009  2.528  0.000
    23O    -0.49525 -0.53462   1.723  4.773  0.000
    24C     0.34251  0.39049   1.047  2.611  0.000
    25O    -0.47975 -0.52021   1.731  4.749  0.000
    26H     0.05890  0.12060   0.941  0.000  0.000
    27H     0.06165  0.12204   0.938  0.000  0.000
    28H     0.05898  0.12077   0.941  0.000  0.000
    29H     0.06364  0.12553   0.936  0.000  0.000
    30H     0.05001  0.10751   0.950  0.000  0.000
    31H     0.06739  0.12631   0.933  0.000  0.000
    32H     0.07428  0.13010   0.926  0.000  0.000
    33H     0.06193  0.12014   0.938  0.000  0.000
    34H     0.06356  0.11895   0.936  0.000  0.000
    35H     0.25607  0.45753   0.744  0.000  0.000
    36H     0.04699  0.10917   0.953  0.000  0.000
    37H     0.06930  0.12702   0.931  0.000  0.000
    38H     0.04228  0.10505   0.958  0.000  0.000
    39H     0.07558  0.12994   0.924  0.000  0.000
    40H     0.06672  0.12245   0.933  0.000  0.000
    41H     0.07461  0.12921   0.925  0.000  0.000
    42H     0.29198  0.49780   0.708  0.000  0.000

Wiberg/Mayer (AO) data.
largest (>0.10) Wiberg bond orders for each atom

 ---------------------------------------------------------------------------
     #   Z sym  total        # sym  WBO       # sym  WBO       # sym  WBO
 ---------------------------------------------------------------------------
     1   6 C    3.860 --    27 H    0.985    28 H    0.978    26 H    0.977
                             2 O    0.888
     2   8 O    2.217 --     3 C    1.141     1 C    0.888     4 O    0.145
     3   6 C    3.851 --     4 O    1.664     2 O    1.141     5 C    0.977
     4   8 O    1.916 --     3 C    1.664     2 O    0.145
     5   6 C    3.820 --     6 N    1.453    24 C    1.081     3 C    0.977
     6   7 N    3.028 --     5 C    1.453     7 C    1.333
     7   6 C    3.876 --     6 N    1.333    21 N    1.256     8 C    1.013
     8   6 C    3.943 --     7 C    1.013    11 N    1.003     9 C    0.942
                            10 C    0.917
     9   6 C    3.958 --    30 H    0.982    31 H    0.978    29 H    0.973
                             8 C    0.942
    10   6 C    3.969 --    33 H    0.984    34 H    0.984    32 H    0.978
                             8 C    0.917
    11   7 N    3.083 --     8 C    1.003    35 H    0.909    12 C    0.752
    12   6 C    3.884 --    14 O    1.211    13 C    0.953    15 C    0.904
                            11 N    0.752
    13   6 C    3.956 --    38 H    0.985    37 H    0.976    36 H    0.973
                            12 C    0.953
    14   8 O    1.526 --    12 C    1.211
    15   6 C    3.824 --    16 N    1.662    20 O    1.062    12 C    0.904
    16   7 N    2.985 --    15 C    1.662    17 N    1.162
    17   7 N    2.970 --    18 C    1.638    16 N    1.162
    18   6 C    3.865 --    17 N    1.638    20 O    1.058    19 C    1.029
    19   6 C    3.987 --    18 C    1.029    40 H    0.983    41 H    0.967
                            39 H    0.964
    20   8 O    2.309 --    15 C    1.062    18 C    1.058
    21   7 N    3.485 --     7 C    1.256    22 C    1.083    42 H    0.866
                            23 O    0.102
    22   6 C    3.850 --    23 O    1.705    21 N    1.083    24 C    0.927
    23   8 O    1.943 --    22 C    1.705    21 N    0.102
    24   6 C    3.861 --    25 O    1.703     5 C    1.081    22 C    0.927
    25   8 O    1.862 --    24 C    1.703
    26   1 H    1.004 --     1 C    0.977
    27   1 H    1.009 --     1 C    0.985
    28   1 H    1.004 --     1 C    0.978
    29   1 H    1.013 --     9 C    0.973
    30   1 H    1.006 --     9 C    0.982
    31   1 H    1.008 --     9 C    0.978
    32   1 H    0.995 --    10 C    0.978
    33   1 H    0.997 --    10 C    0.984
    34   1 H    0.998 --    10 C    0.984
    35   1 H    0.950 --    11 N    0.909
    36   1 H    1.002 --    13 C    0.973
    37   1 H    1.002 --    13 C    0.976
    38   1 H    1.005 --    13 C    0.985
    39   1 H    0.998 --    19 C    0.964
    40   1 H    0.999 --    19 C    0.983
    41   1 H    0.998 --    19 C    0.967
    42   1 H    0.933 --    21 N    0.866
 ---------------------------------------------------------------------------

Topologies differ in total number of bonds
Writing topology from bond orders to xtbtopo.mol

 dipole moment from electron density (au)
     X       Y       Z   
  -0.0177  -0.2597  -0.6101  total (Debye):    1.686

           -------------------------------------------------
          |                Geometry Summary                 |
           -------------------------------------------------

      molecular mass/u    :      351.3152409
   center of mass at/Å    :        0.0828227       0.1057758      -0.1898279
  moments of inertia/u·Å² :        0.1153747E+04   0.4450051E+04   0.4934489E+04
rotational constants/cm⁻¹ :        0.1461121E-01   0.3788188E-02   0.3416288E-02

 * 34 selected distances

     #   Z          #   Z                                           value/Å
     1   6 C        2   8 O                                       1.4323279
     2   8 O        3   6 C                                       1.3217384
     3   6 C        4   8 O                                       1.2078775
     5   6 C        6   7 N                                       1.3217744
     6   7 N        7   6 C                                       1.3247844
     8   6 C        9   6 C                                       1.5373849 (max)
     8   6 C       11   7 N                                       1.4393100
    12   6 C       13   6 C                                       1.5366896
    15   6 C       16   7 N                                       1.2909510
    17   7 N       18   6 C                                       1.2930926
    18   6 C       19   6 C                                       1.4805293
    15   6 C       20   8 O                                       1.3468144
    18   6 C       20   8 O                                       1.3480392
     7   6 C       21   7 N                                       1.3444269
    21   7 N       22   6 C                                       1.3898374
    22   6 C       23   8 O                                       1.2063724
    24   6 C       25   8 O                                       1.2156449
     1   6 C       26   1 H                                       1.0920047
     1   6 C       27   1 H                                       1.0877248
     1   6 C       28   1 H                                       1.0919814
     9   6 C       29   1 H                                       1.0875692
     9   6 C       30   1 H                                       1.0887113
     9   6 C       31   1 H                                       1.0872406
    10   6 C       32   1 H                                       1.0876574
    10   6 C       33   1 H                                       1.0877631
    10   6 C       34   1 H                                       1.0879182
    11   7 N       35   1 H                                       1.0186402
    13   6 C       36   1 H                                       1.0878141
    13   6 C       37   1 H                                       1.0884246
    13   6 C       38   1 H                                       1.0866662
    19   6 C       39   1 H                                       1.0902286
    19   6 C       40   1 H                                       1.0873514
    19   6 C       41   1 H                                       1.0895502
    21   7 N       42   1 H                                       1.0138738 (min)

 * 5 distinct bonds (by element types)

   Z      Z             #   av. dist./Å        max./Å        min./Å
   1 H    6 C          15     1.0885737     1.0920047     1.0866662
   6 C    6 C           3     1.5182013     1.5373849     1.4805293
   1 H    7 N           2     1.0162570     1.0186402     1.0138738
   6 C    7 N           7     1.3434538     1.4393100     1.2909510
   6 C    8 O           7     1.2969735     1.4323279     1.2063724


optimized geometry written to: xtbopt.xyz


           -------------------------------------------------
          | TOTAL ENERGY              -82.876326121842 Eh   |
          | GRADIENT NORM               0.000634623175 Eh/α |
          | HOMO-LUMO GAP               0.120889593855 eV   |
           -------------------------------------------------

------------------------------------------------------------------------
 * finished run on 2023/06/21 at 17:43:41.103     
------------------------------------------------------------------------
 total:
 * wall-time:     0 d,  0 h,  0 min,  5.436 sec
 *  cpu-time:     0 d,  0 h,  0 min,  5.323 sec
 * ratio c/w:     0.979 speedup
 SCF:
 * wall-time:     0 d,  0 h,  0 min,  0.228 sec
 *  cpu-time:     0 d,  0 h,  0 min,  0.212 sec
 * ratio c/w:     0.931 speedup
 ANC optimizer:
 * wall-time:     0 d,  0 h,  0 min,  5.077 sec
 *  cpu-time:     0 d,  0 h,  0 min,  5.061 sec
 * ratio c/w:     0.997 speedup

