42
 energy: -83.588684546142 gnorm: 0.000359088420 xtb: 6.5.1 (579679a)
C           -1.01908828349504        3.05513697566335        1.06093288587640
O           -1.30299717455576        1.73732100891167        0.63809076534958
C           -2.08753559531459        1.62995102049836       -0.51481570595448
O           -2.48163424693636        2.66578258943864       -1.05833187468203
C           -2.31589378786749        0.27940329447527       -0.88842047332461
C           -3.02096346603228       -0.12111177500580       -2.04584780891182
O           -3.55418619411416        0.63701542188056       -2.89092006946458
C           -3.04186426773055       -1.62405527269657       -2.29597781806942
O           -3.90725250573203       -2.19467478574631       -2.99505496559961
N           -2.00501823453189       -2.31486626110420       -1.77867972018967
C           -1.19353461393230       -1.88696015601915       -0.66414176566327
C            0.27252897931823       -1.62909385898842       -1.08079792991780
C            1.00968496392873       -2.98132160966571       -1.07978668661836
C            0.44239853971674       -0.95295558726561       -2.46105179133529
N            0.84816575322150       -0.76190482796343       -0.04820116292203
C            2.12389566757655       -0.36500431014573        0.02721393550148
O            3.03461114145456       -0.70593982537580       -0.73541970221701
C            2.35151192831006        0.55387880860066        1.16505114851230
N            1.45992674722713        0.99188562846253        2.01629360853886
N            2.11669030849324        1.81705187285723        2.88656415110896
C            3.35778074184313        1.83393248846450        2.51924089834408
C            4.47094516066905        2.58472392861612        3.14500347631354
O            3.58245726485285        1.06113466602558        1.44093488884113
N           -1.78373097080010       -0.74097071919684        0.00497516069087
C           -2.80031428383832       -1.18267799858169        0.97623480393935
H           -1.93590050251138        3.59313134506407        1.33244539327522
H           -0.37083357721910        2.98216565821893        1.93615533721256
H           -0.50345957173557        3.62478609228664        0.27724785378987
H           -1.99514174717197       -3.30145714019143       -1.98553309326580
H            0.92743013729381       -3.43474556314302       -0.09219863052493
H            2.06323433187189       -2.87252508537765       -1.33682800137846
H            0.53942869231058       -3.64514765326403       -1.80412762915659
H           -0.02551322336209       -1.57306792639036       -3.22552900026105
H           -0.03294981815404        0.02917775683843       -2.45956275310934
H            1.49796761289544       -0.83623365953888       -2.70669934943888
H            0.17216230453005       -0.37883484320329        0.61571889226738
H            4.09540645460957        3.15422287674127        3.99101878558878
H            5.24383841813522        1.89685854011236        3.48650489363704
H            4.92087250043676        3.26443290190192        2.42179715989890
H           -3.10298849715254       -0.33676496134420        1.59855370503899
H           -3.69327451565959       -1.59808277506251        0.48553672250641
H           -2.35686257088333       -1.95359727975251        1.60896146574648
