42
 energy: -83.610641325818 gnorm: 0.000844880914 xtb: 6.5.1 (579679a)
C           -5.22085841422382        2.73534782927783        1.31626718889653
O           -4.48345703987015        1.81443931866890        0.54378411366485
C           -3.28832022832902        1.36635547245369        1.13515308694675
O           -3.00591006132715        1.80997283011235        2.27030282228439
C           -2.51618929048771        0.48506739840297        0.36058359721458
N           -1.40275617681589        0.02021060795358        1.02418622721379
C           -0.52803447338140       -0.72778398080182        0.45949832824501
C            0.62871825170555       -1.30576566069314        1.24682536174936
C            0.58546682774415       -0.76828922575763        2.68142946054933
C            0.55688109826850       -2.84132660540735        1.23295745638660
N            1.88918018488049       -0.87756058777599        0.59820017759457
C            3.11480116954090       -1.20588853881786        1.04349432901004
O            3.35710437986730       -1.91676283933458        2.01678404360463
C            4.20730369078952       -0.62214990466900        0.23216737647523
N            5.49085896199435       -0.75303305075804        0.42312894423597
N            6.11012506181283       -0.04365619266280       -0.56570596122739
C            5.17473199734172        0.47467871496298       -1.29725268435334
C            5.33467184908582        1.32691767005877       -2.49682506461823
O            3.94762391458229        0.15209640285699       -0.85103556462530
N           -0.58971712460487       -1.05942062340266       -0.91151859119805
C           -1.56314818282345       -0.52189105478052       -1.71247097142299
O           -1.37243316381969       -0.47940118172262       -2.93382911850502
C           -2.91594986119040       -0.18608721965015       -0.99324323357656
C           -3.65014852318173        0.83315597443448       -1.93063002408639
O           -3.58585415593511       -1.34177128085952       -0.84589829532564
H           -6.10911308475708        3.00885338352948        0.74389812455342
H           -5.53285493983905        2.30015782357934        2.27490511625216
H           -4.63805116882205        3.64180063214752        1.52577010481107
H           -0.37433204777555       -1.02342552396711        3.13047493897000
H            1.38495566557658       -1.19751832256200        3.28174372280885
H            0.68561342179212        0.31689629092508        2.67265487957633
H            1.36645209553874       -3.27464986857651        1.81747645772923
H           -0.39325180288158       -3.16168761250534        1.65990491372347
H            0.62657764149374       -3.20812870383590        0.20969499725444
H            1.82721180873161       -0.25398810856348       -0.19093456813663
H            4.82891614400800        2.28127127796140       -2.34987649129991
H            4.89084611070220        0.83935643695405       -3.36512325064993
H            6.39201369244484        1.50031400464697       -2.68047924565503
H            0.26454013382245       -1.32874597205265       -1.36917953718030
H           -4.70120927568058        0.89284713237116       -1.65477502475124
H           -3.20021422014515        1.82512660117227       -1.87635796280430
H           -3.59278786583216        0.47406425667623       -2.95963218032691
