      -----------------------------------------------------------      
     |                   =====================                   |     
     |                           x T B                           |     
     |                   =====================                   |     
     |                         S. Grimme                         |     
     |          Mulliken Center for Theoretical Chemistry        |     
     |                    University of Bonn                     |     
      -----------------------------------------------------------      

   * xtb version 6.5.1 (579679a) compiled by 'ehlert@majestix' on 2022-07-11

   xtb is free software: you can redistribute it and/or modify it under
   the terms of the GNU Lesser General Public License as published by
   the Free Software Foundation, either version 3 of the License, or
   (at your option) any later version.
   
   xtb is distributed in the hope that it will be useful,
   but WITHOUT ANY WARRANTY; without even the implied warranty of
   MERCHANTABILITY or FITNESS FOR A PARTICULAR PURPOSE.  See the
   GNU Lesser General Public License for more details.
   
   Cite this work as:
   * C. Bannwarth, E. Caldeweyher, S. Ehlert, A. Hansen, P. Pracht,
     J. Seibert, S. Spicher, S. Grimme, WIREs Comput. Mol. Sci., 2020, 11,
     e01493. DOI: 10.1002/wcms.1493
   
   for GFN2-xTB:
   * C. Bannwarth, S. Ehlert and S. Grimme., J. Chem. Theory Comput., 2019,
     15, 1652-1671. DOI: 10.1021/acs.jctc.8b01176
   for GFN1-xTB:
   * S. Grimme, C. Bannwarth, P. Shushkov, J. Chem. Theory Comput., 2017,
     13, 1989-2009. DOI: 10.1021/acs.jctc.7b00118
   for GFN0-xTB:
   * P. Pracht, E. Caldeweyher, S. Ehlert, S. Grimme, ChemRxiv, 2019, preprint.
     DOI: 10.26434/chemrxiv.8326202.v1
   for GFN-FF:
   * S. Spicher and S. Grimme, Angew. Chem. Int. Ed., 2020, 59, 15665-15673.
     DOI: 10.1002/anie.202004239
   
   for ALPB and GBSA implicit solvation:
   * S. Ehlert, M. Stahn, S. Spicher, S. Grimme, J. Chem. Theory Comput.,
     2021, 17, 4250-4261. DOI: 10.1021/acs.jctc.1c00471
   
   for DFT-D4:
   * E. Caldeweyher, C. Bannwarth and S. Grimme, J. Chem. Phys., 2017,
     147, 034112. DOI: 10.1063/1.4993215
   * E. Caldeweyher, S. Ehlert, A. Hansen, H. Neugebauer, S. Spicher,
     C. Bannwarth and S. Grimme, J. Chem. Phys., 2019, 150, 154122.
     DOI: 10.1063/1.5090222
   * E. Caldeweyher, J.-M. Mewes, S. Ehlert and S. Grimme, Phys. Chem. Chem. Phys.
     2020, 22, 8499-8512. DOI: 10.1039/D0CP00502A
   
   for sTDA-xTB:
   * S. Grimme and C. Bannwarth, J. Chem. Phys., 2016, 145, 054103.
     DOI: 10.1063/1.4959605
   
   in the mass-spec context:
   * V. Asgeirsson, C. Bauer and S. Grimme, Chem. Sci., 2017, 8, 4879.
     DOI: 10.1039/c7sc00601b
   * J. Koopman and S. Grimme, ACS Omega 2019, 4, 12, 15120-15133.
     DOI: 10.1021/acsomega.9b02011
   
   for metadynamics refer to:
   * S. Grimme, J. Chem. Theory Comput., 2019, 155, 2847-2862
     DOI: 10.1021/acs.jctc.9b00143
   
   for SPH calculations refer to:
   * S. Spicher and S. Grimme, J. Chem. Theory Comput., 2021, 17, 1701-1714
     DOI: 10.1021/acs.jctc.0c01306
   
   with help from (in alphabetical order)
   P. Atkinson, C. Bannwarth, F. Bohle, G. Brandenburg, E. Caldeweyher
   M. Checinski, S. Dohm, S. Ehlert, S. Ehrlich, I. Gerasimov, C. Hölzer
   A. Katbashev, J. Koopman, C. Lavigne, S. Lehtola, F. März, M. Müller,
   F. Musil, H. Neugebauer, J. Pisarek, C. Plett, P. Pracht, F. Pultar,
   J. Seibert, P. Shushkov, S. Spicher, M. Stahn, M. Steiner, T. Strunk,
   J. Stückrath, T. Rose, and J. Unsleber
   
 * started run on 2023/06/20 at 15:54:39.870     

           -------------------------------------------------
          |                Calculation Setup                |
           -------------------------------------------------

          program call               : /lustre/hpc/kemi/ree/PhD/git/ReactivityQM/dep/xtb-6.5.1/bin/xtb --gfn 1 /lustre/hpc/kemi/ree/PhD/git/ReactivityQM/calculations/R03/reac02prodN18/conf12/R03_reac02prodN18_conf12_gfn1.xyz --opt --vfukui --chrg 1 --uhf 0 --alpb DMSO
          hostname                   : node068
          coordinate file            : /lustre/hpc/kemi/ree/PhD/git/ReactivityQM/calculations/R03/reac02prodN18/conf12/R03_reac02prodN18_conf12_gfn1.xyz
          omp threads                :                     1

   ID    Z sym.   atoms
    1    6 C      1, 3, 5, 6, 8, 11-16, 18, 20, 23, 24
    2    8 O      2, 4, 7, 9, 19, 25
    3    7 N      10, 17, 21, 22, 26
    4    1 H      27-46

           -------------------------------------------------
          |                 G F N 1 - x T B                 |
           -------------------------------------------------

        Reference                      10.1021/acs.jctc.7b00118
      * Hamiltonian:
        H0-scaling (s, p, d)           1.850000    2.250000    2.000000
        zeta-weighting                 0.000000
      * Dispersion:
        s8                             2.400000
        a1                             0.630000
        a2                             5.000000
        s9                             0.000000
      * Repulsion:
        kExp                           1.500000
        rExp                           1.000000
      * Coulomb:
        alpha                          2.000000
        third order                    atomic
        anisotropic                    false
      * Halogen bond correction:
        rad-scale                      1.300000
        damping                        0.440000

      * Solvation model:               ALPB
        Solvent                        DMSO
        Parameter file                 internal GFN1-xTB/ALPB
        Dielectric constant                4.6680E+01
        Reference state                gsolv [1 M gas/solution]
        Free energy shift                  7.6243E-03 Eh       4.7843E+00 kcal/mol
        Temperature                        2.9815E+02 K
        Density                            1.1000E+00 kg/L
        Solvent mass                       7.8130E+01 g/mol
        Interaction kernel             P16
        Born radius scaling (c1)           1.7672E+00
        Born radii integrator          GBOBC
        Born offset                        0.0000E+00 a0       0.0000E+00 AA
        H-bond correction              true
        Ion screening                  false
        Surface tension                    1.0000E-05 Eh       1.5569E+01 dyn/cm
        Grid points                               230 per atom

          ...................................................
          :                      SETUP                      :
          :.................................................:
          :  # basis functions                 144          :
          :  # atomic orbitals                 144          :
          :  # shells                           92          :
          :  # electrons                       140          :
          :  # halogen bonds                     0          :
          :  max. iterations                   250          :
          :  Hamiltonian                  GFN1-xTB          :
          :  restarted?                      false          :
          :  GBSA solvation                   true          :
          :  PC potential                    false          :
          :  electronic temp.          300.0000000     K    :
          :  accuracy                    1.0000000          :
          :  -> integral cutoff          0.2500000E+02      :
          :  -> integral neglect         0.1000000E-07      :
          :  -> SCF convergence          0.1000000E-05 Eh   :
          :  -> wf. convergence          0.2000000E-04 e    :
          :  Broyden damping             0.4000000          :
          ...................................................

 iter      E             dE          RMSdq      gap      omega  full diag
   1    -86.6645556 -0.866646E+02  0.827E+00    2.14       0.0  T
   2    -87.0538815 -0.389326E+00  0.499E+00    1.26       1.0  T
   3    -87.0313290  0.225526E-01  0.193E+00    1.42       1.0  T
   4    -87.0880838 -0.567548E-01  0.211E-01    1.22       1.0  T
   5    -87.0896521 -0.156834E-02  0.769E-02    1.29       1.0  T
   6    -87.0898229 -0.170739E-03  0.231E-02    1.32       1.0  T
   7    -87.0898423 -0.194281E-04  0.739E-03    1.32       2.0  T
   8    -87.0898435 -0.119306E-05  0.256E-03    1.32       5.8  T
   9    -87.0898436 -0.161599E-06  0.652E-04    1.32      22.6  T
  10    -87.0898436 -0.484130E-08  0.163E-04    1.32      90.2  T
  11    -87.0898436 -0.460759E-09  0.525E-05    1.32     281.1  T

   *** convergence criteria satisfied after 11 iterations ***

         #    Occupation            Energy/Eh            Energy/eV
      -------------------------------------------------------------
         1        2.0000           -0.9087324             -24.7279
       ...           ...                  ...                  ...
        64        2.0000           -0.4949415             -13.4680
        65        2.0000           -0.4931001             -13.4179
        66        2.0000           -0.4850835             -13.1998
        67        2.0000           -0.4773033             -12.9881
        68        2.0000           -0.4744248             -12.9098
        69        2.0000           -0.4561259             -12.4118
        70        2.0000           -0.4538901             -12.3510 (HOMO)
        71                         -0.4053301             -11.0296 (LUMO)
        72                         -0.3405827              -9.2677
        73                         -0.3311734              -9.0117
        74                         -0.3014657              -8.2033
        75                         -0.2668676              -7.2618
       ...                                ...                  ...
       144                          0.6844121              18.6238
      -------------------------------------------------------------
                  HL-Gap            0.0485600 Eh            1.3214 eV
             Fermi-level           -0.4295672 Eh          -11.6891 eV

 SCC (total)                   0 d,  0 h,  0 min,  0.180 sec
 SCC setup                      ...        0 min,  0.002 sec (  1.166%)
 Dispersion                     ...        0 min,  0.000 sec (  0.184%)
 classical contributions        ...        0 min,  0.000 sec (  0.061%)
 integral evaluation            ...        0 min,  0.033 sec ( 18.393%)
 iterations                     ...        0 min,  0.078 sec ( 43.516%)
 molecular gradient             ...        0 min,  0.064 sec ( 35.908%)
 printout                       ...        0 min,  0.001 sec (  0.761%)

         :::::::::::::::::::::::::::::::::::::::::::::::::::::
         ::                     SUMMARY                     ::
         :::::::::::::::::::::::::::::::::::::::::::::::::::::
         :: total energy             -86.279300260854 Eh    ::
         :: total w/o Gsasa/hb       -86.253885544294 Eh    ::
         :: gradient norm              0.121024953823 Eh/a0 ::
         :: HOMO-LUMO gap              1.321385085346 eV    ::
         ::.................................................::
         :: SCC energy               -87.089843642433 Eh    ::
         :: -> electrostatic           0.414283715347 Eh    ::
         :: -> Gsolv                  -0.119228365228 Eh    ::
         ::    -> Gelec               -0.093813648668 Eh    ::
         ::    -> Gsasa               -0.024591236670 Eh    ::
         ::    -> Ghb                 -0.008447758895 Eh    ::
         ::    -> Gshift               0.007624279005 Eh    ::
         :: repulsion energy           0.841660429138 Eh    ::
         :: dispersion energy         -0.031117047559 Eh    ::
         :: halogen bond corr.         0.000000000000 Eh    ::
         :: add. restraining           0.000000000000 Eh    ::
         :: total charge               1.000000000002 e     ::
         :::::::::::::::::::::::::::::::::::::::::::::::::::::

      ----------------------------------------------------------- 
     |                   =====================                   |
     |                        A N C O P T                        |
     |                   =====================                   |
     |               Approximate Normal Coordinate               |
     |                Rational Function Optimizer                |
      ----------------------------------------------------------- 

          ...................................................
          :                      SETUP                      :
          :.................................................:
          :   optimization level            normal          :
          :   max. optcycles                   200          :
          :   ANC micro-cycles                  20          :
          :   degrees of freedom               132          :
          :.................................................:
          :   RF solver                   davidson          :
          :   write xtbopt.log                true          :
          :   linear?                        false          :
          :   energy convergence         0.5000000E-05 Eh   :
          :   grad. convergence          0.1000000E-02 Eh/α :
          :   maximium RF displ.         1.0000000          :
          :   Hlow (freq-cutoff)         0.1000000E-01      :
          :   Hmax (freq-cutoff)         5.0000000          :
          :   S6 in model hess.         20.0000000          :
          ...................................................

generating ANC from model Hessian ...
Using Lindh-Hessian (1995)
 Shifting diagonal of input Hessian by   9.802187639935532E-003
 Lowest  eigenvalues of input Hessian
    0.000000    0.000000    0.000000    0.000000    0.000000    0.000000
    0.010000    0.010042    0.010732    0.011672    0.011923    0.012198
    0.012532    0.014026    0.014763    0.015307    0.015829    0.016790
 Highest eigenvalues
    1.981297    2.152403    2.161753    2.284068    2.356738    2.357378
 

........................................................................
.............................. CYCLE    1 ..............................
........................................................................
   1    -87.0898436 -0.870898E+02  0.184E-05    1.32       0.0  T
   2    -87.0898436 -0.413536E-11  0.859E-06    1.32    1715.6  T
   3    -87.0898436 -0.108002E-11  0.554E-06    1.32    2663.8  T
     SCC iter.                  ...        0 min,  0.019 sec
     gradient                   ...        0 min,  0.071 sec
 * total energy  :   -86.2793003 Eh     change       -0.4743583E-10 Eh
   gradient norm :     0.1210248 Eh/α   predicted     0.0000000E+00 (-100.00%)
   displ. norm   :     0.3998287 α      lambda       -0.2127229E-01
   maximum displ.:     0.1411860 α      in ANC's #32, #10, #27, ...

........................................................................
.............................. CYCLE    2 ..............................
........................................................................
   1    -87.1145838 -0.871146E+02  0.889E-02    1.49       0.0  T
   2    -87.1149232 -0.339352E-03  0.469E-02    1.45       1.0  T
   3    -87.1149838 -0.605984E-04  0.174E-02    1.45       1.0  T
   4    -87.1149837  0.109647E-06  0.897E-03    1.45       1.6  T
   5    -87.1149848 -0.114165E-05  0.227E-03    1.44       6.5  T
   6    -87.1149850 -0.145821E-06  0.449E-04    1.44      32.8  T
   7    -87.1149850 -0.292688E-08  0.140E-04    1.44     105.0  T
   8    -87.1149850 -0.547729E-09  0.437E-05    1.44     337.3  T
     SCC iter.                  ...        0 min,  0.048 sec
     gradient                   ...        0 min,  0.067 sec
 * total energy  :   -86.2947488 Eh     change       -0.1544859E-01 Eh
   gradient norm :     0.0638698 Eh/α   predicted    -0.1236453E-01 ( -19.96%)
   displ. norm   :     0.3752768 α      lambda       -0.9629640E-02
   maximum displ.:     0.1509221 α      in ANC's #32, #27, #6, ...

........................................................................
.............................. CYCLE    3 ..............................
........................................................................
   1    -87.1313413 -0.871313E+02  0.821E-02    1.63       0.0  T
   2    -87.1316313 -0.289986E-03  0.432E-02    1.59       1.0  T
   3    -87.1316785 -0.472067E-04  0.166E-02    1.59       1.0  T
   4    -87.1316784  0.804202E-07  0.869E-03    1.59       1.7  T
   5    -87.1316794 -0.966761E-06  0.210E-03    1.58       7.0  T
   6    -87.1316795 -0.135389E-06  0.379E-04    1.58      38.9  T
   7    -87.1316795 -0.310067E-08  0.138E-04    1.58     107.0  T
   8    -87.1316795 -0.337920E-09  0.537E-05    1.58     274.8  T
     SCC iter.                  ...        0 min,  0.049 sec
     gradient                   ...        0 min,  0.069 sec
 * total energy  :   -86.3006868 Eh     change       -0.5937962E-02 Eh
   gradient norm :     0.0203809 Eh/α   predicted    -0.5492904E-02 (  -7.50%)
   displ. norm   :     0.2960339 α      lambda       -0.1943387E-02
   maximum displ.:     0.1565419 α      in ANC's #6, #10, #27, ...

........................................................................
.............................. CYCLE    4 ..............................
........................................................................
   1    -87.1343018 -0.871343E+02  0.267E-02    1.65       0.0  T
   2    -87.1343264 -0.246550E-04  0.119E-02    1.63       1.2  T
   3    -87.1343286 -0.216284E-05  0.598E-03    1.63       2.5  T
   4    -87.1343287 -0.854212E-07  0.202E-03    1.62       7.3  T
   5    -87.1343287 -0.415292E-07  0.700E-04    1.62      21.1  T
   6    -87.1343287 -0.124716E-07  0.176E-04    1.62      83.8  T
   7    -87.1343287 -0.767272E-09  0.544E-05    1.62     271.1  T
     SCC iter.                  ...        0 min,  0.044 sec
     gradient                   ...        0 min,  0.067 sec
 * total energy  :   -86.3020696 Eh     change       -0.1382811E-02 Eh
   gradient norm :     0.0116548 Eh/α   predicted    -0.1056871E-02 ( -23.57%)
   displ. norm   :     0.3413473 α      lambda       -0.1153804E-02
   maximum displ.:     0.2285967 α      in ANC's #6, #7, #10, ...

........................................................................
.............................. CYCLE    5 ..............................
........................................................................
   1    -87.1347944 -0.871348E+02  0.196E-02    1.66       0.0  T
   2    -87.1348070 -0.126441E-04  0.894E-03    1.65       1.6  T
   3    -87.1348089 -0.193342E-05  0.493E-03    1.65       3.0  T
   4    -87.1348092 -0.222697E-06  0.195E-03    1.65       7.6  T
   5    -87.1348092 -0.381036E-07  0.574E-04    1.65      25.7  T
   6    -87.1348092 -0.605257E-08  0.126E-04    1.65     116.7  T
   7    -87.1348092 -0.394465E-09  0.445E-05    1.65     331.1  T
     SCC iter.                  ...        0 min,  0.043 sec
     gradient                   ...        0 min,  0.077 sec
 * total energy  :   -86.3028950 Eh     change       -0.8253389E-03 Eh
   gradient norm :     0.0089045 Eh/α   predicted    -0.6441320E-03 ( -21.96%)
   displ. norm   :     0.3406579 α      lambda       -0.6869213E-03
   maximum displ.:     0.2479971 α      in ANC's #6, #7, #10, ...

........................................................................
.............................. CYCLE    6 ..............................
........................................................................
   1    -87.1350785 -0.871351E+02  0.130E-02    1.66       0.0  T
   2    -87.1350843 -0.585013E-05  0.633E-03    1.66       2.3  T
   3    -87.1350854 -0.111688E-05  0.318E-03    1.66       4.6  T
   4    -87.1350855 -0.835507E-07  0.132E-03    1.65      11.2  T
   5    -87.1350855 -0.135125E-07  0.334E-04    1.65      44.2  T
   6    -87.1350855 -0.269858E-08  0.950E-05    1.65     155.2  T
   7    -87.1350855 -0.247951E-09  0.269E-05    1.65     547.9  T
     SCC iter.                  ...        0 min,  0.050 sec
     gradient                   ...        0 min,  0.076 sec
 * total energy  :   -86.3034220 Eh     change       -0.5270840E-03 Eh
   gradient norm :     0.0084836 Eh/α   predicted    -0.3833191E-03 ( -27.28%)
   displ. norm   :     0.3351300 α      lambda       -0.5395766E-03
   maximum displ.:     0.2405995 α      in ANC's #6, #7, #14, ...

........................................................................
.............................. CYCLE    7 ..............................
........................................................................
   1    -87.1357913 -0.871358E+02  0.898E-03    1.65       0.0  T
   2    -87.1357945 -0.323400E-05  0.421E-03    1.65       3.5  T
   3    -87.1357948 -0.309177E-06  0.216E-03    1.65       6.8  T
   4    -87.1357948 -0.805883E-08  0.953E-04    1.65      15.5  T
   5    -87.1357948 -0.147785E-07  0.208E-04    1.65      70.9  T
   6    -87.1357948 -0.145563E-08  0.628E-05    1.65     234.9  T
   7    -87.1357948 -0.726459E-10  0.173E-05    1.65     852.0  T
     SCC iter.                  ...        0 min,  0.048 sec
     gradient                   ...        0 min,  0.077 sec
 * total energy  :   -86.3038565 Eh     change       -0.4344927E-03 Eh
   gradient norm :     0.0076065 Eh/α   predicted    -0.3000906E-03 ( -30.93%)
   displ. norm   :     0.3591386 α      lambda       -0.4844572E-03
   maximum displ.:     0.2534415 α      in ANC's #6, #7, #14, ...

........................................................................
.............................. CYCLE    8 ..............................
........................................................................
   1    -87.1366435 -0.871366E+02  0.796E-03    1.65       0.0  T
   2    -87.1366463 -0.280216E-05  0.380E-03    1.65       3.9  T
   3    -87.1366465 -0.202587E-06  0.204E-03    1.65       7.2  T
   4    -87.1366465  0.137710E-08  0.815E-04    1.65      18.1  T
   5    -87.1366465 -0.122519E-07  0.213E-04    1.65      69.2  T
   6    -87.1366465 -0.113135E-08  0.536E-05    1.65     275.2  T
   7    -87.1366465 -0.668763E-10  0.185E-05    1.65     795.8  T
     SCC iter.                  ...        0 min,  0.050 sec
     gradient                   ...        0 min,  0.079 sec
 * total energy  :   -86.3042261 Eh     change       -0.3695916E-03 Eh
   gradient norm :     0.0064997 Eh/α   predicted    -0.2734729E-03 ( -26.01%)
   displ. norm   :     0.3059062 α      lambda       -0.2948644E-03
   maximum displ.:     0.2169009 α      in ANC's #6, #7, #4, ...

........................................................................
.............................. CYCLE    9 ..............................
........................................................................
   1    -87.1373668 -0.871374E+02  0.636E-03    1.64       0.0  T
   2    -87.1373685 -0.168633E-05  0.340E-03    1.65       4.3  T
   3    -87.1373688 -0.270753E-06  0.172E-03    1.65       8.6  T
   4    -87.1373688 -0.544928E-08  0.785E-04    1.65      18.8  T
   5    -87.1373688 -0.921598E-08  0.198E-04    1.65      74.6  T
   6    -87.1373688 -0.740883E-09  0.434E-05    1.65     340.0  T
     SCC iter.                  ...        0 min,  0.042 sec
     gradient                   ...        0 min,  0.080 sec
 * total energy  :   -86.3044374 Eh     change       -0.2112294E-03 Eh
   gradient norm :     0.0053499 Eh/α   predicted    -0.1612306E-03 ( -23.67%)
   displ. norm   :     0.2099244 α      lambda       -0.1406313E-03
   maximum displ.:     0.1496586 α      in ANC's #6, #7, #4, ...

........................................................................
.............................. CYCLE   10 ..............................
........................................................................
   1    -87.1381674 -0.871382E+02  0.479E-03    1.65       0.0  T
   2    -87.1381682 -0.772520E-06  0.265E-03    1.65       5.6  T
   3    -87.1381684 -0.162905E-06  0.131E-03    1.65      11.2  T
   4    -87.1381684 -0.130763E-08  0.531E-04    1.65      27.8  T
   5    -87.1381684 -0.556722E-08  0.127E-04    1.65     116.3  T
   6    -87.1381684 -0.392589E-09  0.300E-05    1.65     490.9  T
     SCC iter.                  ...        0 min,  0.043 sec
     gradient                   ...        0 min,  0.079 sec
 * total energy  :   -86.3045381 Eh     change       -0.1007878E-03 Eh
   gradient norm :     0.0037825 Eh/α   predicted    -0.7342027E-04 ( -27.15%)
   displ. norm   :     0.1480808 α      lambda       -0.7378533E-04
   maximum displ.:     0.1024124 α      in ANC's #6, #7, #4, ...

........................................................................
.............................. CYCLE   11 ..............................
........................................................................
   1    -87.1386396 -0.871386E+02  0.367E-03    1.65       0.0  T
   2    -87.1386400 -0.451082E-06  0.196E-03    1.65       7.5  T
   3    -87.1386401 -0.731938E-07  0.102E-03    1.65      14.5  T
   4    -87.1386401  0.352117E-09  0.386E-04    1.65      38.2  T
   5    -87.1386401 -0.382627E-08  0.922E-05    1.65     160.0  T
   6    -87.1386401 -0.222940E-09  0.234E-05    1.65     630.4  T
     SCC iter.                  ...        0 min,  0.041 sec
     gradient                   ...        0 min,  0.076 sec
 * total energy  :   -86.3045893 Eh     change       -0.5114680E-04 Eh
   gradient norm :     0.0025136 Eh/α   predicted    -0.3770638E-04 ( -26.28%)
   displ. norm   :     0.1041348 α      lambda       -0.4120713E-04
   maximum displ.:     0.0619417 α      in ANC's #6, #4, #10, ...

........................................................................
.............................. CYCLE   12 ..............................
........................................................................
   1    -87.1389101 -0.871389E+02  0.250E-03    1.66       0.0  T
   2    -87.1389103 -0.210081E-06  0.129E-03    1.65      11.4  T
   3    -87.1389104 -0.165383E-07  0.718E-04    1.65      20.5  T
   4    -87.1389104  0.462762E-09  0.243E-04    1.65      60.8  T
   5    -87.1389104 -0.173800E-08  0.668E-05    1.65     220.8  T
   6    -87.1389104 -0.124885E-09  0.173E-05    1.65     852.7  T
     SCC iter.                  ...        0 min,  0.042 sec
     gradient                   ...        0 min,  0.077 sec
 * total energy  :   -86.3046188 Eh     change       -0.2945743E-04 Eh
   gradient norm :     0.0019373 Eh/α   predicted    -0.2082832E-04 ( -29.29%)
   displ. norm   :     0.1441930 α      lambda       -0.3219862E-04
   maximum displ.:     0.0759894 α      in ANC's #4, #10, #6, ...

........................................................................
.............................. CYCLE   13 ..............................
........................................................................
   1    -87.1388449 -0.871388E+02  0.312E-03    1.66       0.0  T
   2    -87.1388452 -0.286003E-06  0.165E-03    1.66       8.9  T
   3    -87.1388452 -0.153276E-07  0.897E-04    1.66      16.4  T
   4    -87.1388452 -0.706166E-09  0.285E-04    1.66      51.8  T
   5    -87.1388452 -0.105378E-08  0.478E-05    1.66     308.5  T
   6    -87.1388452 -0.626414E-10  0.189E-05    1.66     779.6  T
     SCC iter.                  ...        0 min,  0.041 sec
     gradient                   ...        0 min,  0.077 sec
 * total energy  :   -86.3046460 Eh     change       -0.2723302E-04 Eh
   gradient norm :     0.0022225 Eh/α   predicted    -0.1624885E-04 ( -40.33%)
   displ. norm   :     0.0480472 α      lambda       -0.1783925E-04
   maximum displ.:     0.0248444 α      in ANC's #4, #10, #7, ...

........................................................................
.............................. CYCLE   14 ..............................
........................................................................
   1    -87.1390537 -0.871391E+02  0.127E-03    1.66       0.0  T
   2    -87.1390538 -0.610604E-07  0.646E-04    1.66      22.8  T
   3    -87.1390538 -0.819270E-08  0.303E-04    1.66      48.7  T
   4    -87.1390538  0.405151E-10  0.141E-04    1.66     104.5  T
   5    -87.1390538 -0.314174E-09  0.349E-05    1.66     421.9  T
     SCC iter.                  ...        0 min,  0.035 sec
     gradient                   ...        0 min,  0.077 sec
 * total energy  :   -86.3046611 Eh     change       -0.1516617E-04 Eh
   gradient norm :     0.0018149 Eh/α   predicted    -0.8941931E-05 ( -41.04%)
   displ. norm   :     0.2114262 α      lambda       -0.4527562E-04
   maximum displ.:     0.1115189 α      in ANC's #4, #10, #2, ...

........................................................................
.............................. CYCLE   15 ..............................
........................................................................
   1    -87.1382009 -0.871382E+02  0.497E-03    1.65       0.0  T
   2    -87.1382018 -0.937514E-06  0.236E-03    1.65       6.3  T
   3    -87.1382019 -0.103616E-06  0.113E-03    1.65      13.1  T
   4    -87.1382019  0.251589E-09  0.504E-04    1.65      29.3  T
   5    -87.1382019 -0.450335E-08  0.135E-04    1.65     109.6  T
   6    -87.1382019 -0.486608E-09  0.343E-05    1.65     429.4  T
     SCC iter.                  ...        0 min,  0.043 sec
     gradient                   ...        0 min,  0.077 sec
 * total energy  :   -86.3046918 Eh     change       -0.3067980E-04 Eh
   gradient norm :     0.0033092 Eh/α   predicted    -0.2308991E-04 ( -24.74%)
   displ. norm   :     0.0252570 α      lambda       -0.1569422E-04
   maximum displ.:     0.0121614 α      in ANC's #1, #2, #4, ...

........................................................................
.............................. CYCLE   16 ..............................
........................................................................
   1    -87.1390736 -0.871391E+02  0.194E-03    1.65       0.0  T
   2    -87.1390736 -0.583813E-07  0.992E-04    1.65      14.9  T
   3    -87.1390736 -0.571005E-08  0.533E-04    1.65      27.7  T
   4    -87.1390736 -0.239358E-08  0.127E-04    1.65     116.4  T
   5    -87.1390736 -0.215891E-09  0.367E-05    1.65     401.9  T
     SCC iter.                  ...        0 min,  0.034 sec
     gradient                   ...        0 min,  0.076 sec
 * total energy  :   -86.3047041 Eh     change       -0.1227024E-04 Eh
   gradient norm :     0.0022916 Eh/α   predicted    -0.7852681E-05 ( -36.00%)
   displ. norm   :     0.1107909 α      lambda       -0.3546907E-04
   maximum displ.:     0.0505059 α      in ANC's #2, #4, #1, ...

........................................................................
.............................. CYCLE   17 ..............................
........................................................................
   1    -87.1396464 -0.871396E+02  0.318E-03    1.65       0.0  T
   2    -87.1396468 -0.345128E-06  0.165E-03    1.65       8.9  T
   3    -87.1396468 -0.458956E-07  0.778E-04    1.65      18.9  T
   4    -87.1396468 -0.908386E-09  0.337E-04    1.65      43.8  T
   5    -87.1396468 -0.124606E-08  0.808E-05    1.65     182.4  T
   6    -87.1396468 -0.212566E-09  0.186E-05    1.65     790.9  T
     SCC iter.                  ...        0 min,  0.040 sec
     gradient                   ...        0 min,  0.077 sec
 * total energy  :   -86.3047286 Eh     change       -0.2449305E-04 Eh
   gradient norm :     0.0012700 Eh/α   predicted    -0.1795532E-04 ( -26.69%)
   displ. norm   :     0.1982210 α      lambda       -0.2415185E-04
   maximum displ.:     0.0927801 α      in ANC's #2, #1, #4, ...

........................................................................
.............................. CYCLE   18 ..............................
........................................................................
   1    -87.1392371 -0.871392E+02  0.375E-03    1.65       0.0  T
   2    -87.1392375 -0.382461E-06  0.187E-03    1.65       7.9  T
   3    -87.1392375 -0.352208E-07  0.922E-04    1.65      16.0  T
   4    -87.1392375 -0.280349E-08  0.350E-04    1.65      42.2  T
   5    -87.1392375 -0.138171E-08  0.699E-05    1.65     210.8  T
   6    -87.1392375 -0.127045E-09  0.247E-05    1.65     597.2  T
     SCC iter.                  ...        0 min,  0.041 sec
     gradient                   ...        0 min,  0.077 sec
 * total energy  :   -86.3047489 Eh     change       -0.2034767E-04 Eh
   gradient norm :     0.0027769 Eh/α   predicted    -0.1228866E-04 ( -39.61%)
   displ. norm   :     0.0552884 α      lambda       -0.1583768E-04
   maximum displ.:     0.0297451 α      in ANC's #1, #2, #7, ...

........................................................................
.............................. CYCLE   19 ..............................
........................................................................
   1    -87.1391215 -0.871391E+02  0.131E-03    1.65       0.0  T
   2    -87.1391216 -0.317832E-07  0.683E-04    1.65      21.6  T
   3    -87.1391216 -0.499145E-08  0.384E-04    1.65      38.4  T
   4    -87.1391216 -0.790877E-09  0.963E-05    1.65     153.2  T
   5    -87.1391216 -0.331383E-09  0.253E-05    1.65     582.9  T
     SCC iter.                  ...        0 min,  0.034 sec
     gradient                   ...        0 min,  0.076 sec
 * total energy  :   -86.3047623 Eh     change       -0.1338927E-04 Eh
   gradient norm :     0.0023458 Eh/α   predicted    -0.7947555E-05 ( -40.64%)
   displ. norm   :     0.2400545 α      lambda       -0.5281351E-04
   maximum displ.:     0.1216724 α      in ANC's #1, #2, #7, ...

........................................................................
.............................. CYCLE   20 ..............................
........................................................................
   1    -87.1382524 -0.871383E+02  0.401E-03    1.65       0.0  T
   2    -87.1382529 -0.475432E-06  0.199E-03    1.65       7.4  T
   3    -87.1382529 -0.677796E-07  0.108E-03    1.65      13.7  T
   4    -87.1382529 -0.587593E-08  0.355E-04    1.65      41.5  T
   5    -87.1382529 -0.280247E-08  0.955E-05    1.65     154.4  T
   6    -87.1382529 -0.224958E-09  0.340E-05    1.65     434.2  T
     SCC iter.                  ...        0 min,  0.039 sec
     gradient                   ...        0 min,  0.075 sec
 * total energy  :   -86.3047979 Eh     change       -0.3553313E-04 Eh
   gradient norm :     0.0027347 Eh/α   predicted    -0.2793010E-04 ( -21.40%)
   displ. norm   :     0.1603658 α      lambda       -0.3356532E-04
   maximum displ.:     0.0908853 α      in ANC's #1, #2, #7, ...
 * RMSD in coord.:     0.4421118 α      energy gain  -0.2549760E-01 Eh

generating ANC from model Hessian ...
Using Lindh-Hessian (1995)
 Shifting diagonal of input Hessian by   9.818114145209002E-003
 Lowest  eigenvalues of input Hessian
    0.000000    0.000000    0.000000    0.000000    0.000000    0.000000
    0.010000    0.010058    0.010502    0.010743    0.011607    0.011798
    0.012313    0.013743    0.014193    0.014297    0.015186    0.016192
 Highest eigenvalues
    2.030935    2.190470    2.210890    2.313179    2.401597    2.437144
 

........................................................................
.............................. CYCLE   21 ..............................
........................................................................
   1    -87.1385606 -0.871386E+02  0.250E-03    1.65       0.0  T
   2    -87.1385608 -0.194357E-06  0.114E-03    1.65      12.9  T
   3    -87.1385608 -0.165900E-07  0.628E-04    1.65      23.5  T
   4    -87.1385608 -0.195567E-08  0.240E-04    1.65      61.5  T
   5    -87.1385608 -0.111122E-08  0.630E-05    1.65     234.0  T
   6    -87.1385608 -0.981686E-10  0.197E-05    1.65     750.0  T
     SCC iter.                  ...        0 min,  0.043 sec
     gradient                   ...        0 min,  0.075 sec
 * total energy  :   -86.3048231 Eh     change       -0.2522641E-04 Eh
   gradient norm :     0.0025340 Eh/α   predicted     0.0000000E+00 (-100.00%)
   displ. norm   :     0.0216331 α      lambda       -0.1589882E-04
   maximum displ.:     0.0081914 α      in ANC's #9, #1, #13, ...

........................................................................
.............................. CYCLE   22 ..............................
........................................................................
   1    -87.1390982 -0.871391E+02  0.163E-03    1.66       0.0  T
   2    -87.1390983 -0.662700E-07  0.864E-04    1.66      17.1  T
   3    -87.1390983 -0.116495E-07  0.454E-04    1.66      32.5  T
   4    -87.1390983 -0.780275E-09  0.126E-04    1.66     117.2  T
   5    -87.1390983 -0.334879E-09  0.336E-05    1.66     439.4  T
     SCC iter.                  ...        0 min,  0.035 sec
     gradient                   ...        0 min,  0.076 sec
 * total energy  :   -86.3048359 Eh     change       -0.1280953E-04 Eh
   gradient norm :     0.0014008 Eh/α   predicted    -0.8251805E-05 ( -35.58%)
   displ. norm   :     0.0748582 α      lambda       -0.1851361E-04
   maximum displ.:     0.0304993 α      in ANC's #13, #1, #9, ...

........................................................................
.............................. CYCLE   23 ..............................
........................................................................
   1    -87.1399106 -0.871399E+02  0.358E-03    1.66       0.0  T
   2    -87.1399110 -0.420753E-06  0.180E-03    1.66       8.2  T
   3    -87.1399110 -0.620884E-07  0.907E-04    1.66      16.3  T
   4    -87.1399110 -0.114647E-08  0.262E-04    1.66      56.2  T
   5    -87.1399110 -0.143135E-08  0.703E-05    1.66     209.8  T
   6    -87.1399110 -0.114568E-09  0.241E-05    1.66     610.6  T
     SCC iter.                  ...        0 min,  0.042 sec
     gradient                   ...        0 min,  0.076 sec
 * total energy  :   -86.3048506 Eh     change       -0.1472779E-04 Eh
   gradient norm :     0.0017141 Eh/α   predicted    -0.1001611E-04 ( -31.99%)
   displ. norm   :     0.0385100 α      lambda       -0.7075539E-05
   maximum displ.:     0.0179248 α      in ANC's #13, #1, #10, ...

........................................................................
.............................. CYCLE   24 ..............................
........................................................................
   1    -87.1396143 -0.871396E+02  0.118E-03    1.66       0.0  T
   2    -87.1396143 -0.441442E-07  0.559E-04    1.66      26.4  T
   3    -87.1396143 -0.235114E-08  0.268E-04    1.66      55.0  T
   4    -87.1396143 -0.175120E-09  0.124E-04    1.66     118.7  T
   5    -87.1396143 -0.243631E-09  0.267E-05    1.66     552.5  T
     SCC iter.                  ...        0 min,  0.034 sec
     gradient                   ...        0 min,  0.077 sec
 * total energy  :   -86.3048598 Eh     change       -0.9220007E-05 Eh
   gradient norm :     0.0012644 Eh/α   predicted    -0.3746924E-05 ( -59.36%)
   displ. norm   :     0.1329054 α      lambda       -0.1984435E-04
   maximum displ.:     0.0601769 α      in ANC's #13, #1, #2, ...

........................................................................
.............................. CYCLE   25 ..............................
........................................................................
   1    -87.1386405 -0.871386E+02  0.319E-03    1.66       0.0  T
   2    -87.1386408 -0.293217E-06  0.147E-03    1.66      10.0  T
   3    -87.1386408 -0.131193E-07  0.708E-04    1.66      20.8  T
   4    -87.1386408 -0.157836E-08  0.275E-04    1.66      53.6  T
   5    -87.1386408 -0.976669E-09  0.606E-05    1.66     243.4  T
   6    -87.1386408 -0.731006E-10  0.238E-05    1.66     619.4  T
     SCC iter.                  ...        0 min,  0.042 sec
     gradient                   ...        0 min,  0.076 sec
 * total energy  :   -86.3048758 Eh     change       -0.1594426E-04 Eh
   gradient norm :     0.0018835 Eh/α   predicted    -0.1005865E-04 ( -36.91%)
   displ. norm   :     0.0606888 α      lambda       -0.8379700E-05
   maximum displ.:     0.0295812 α      in ANC's #1, #13, #2, ...

........................................................................
.............................. CYCLE   26 ..............................
........................................................................
   1    -87.1387185 -0.871387E+02  0.720E-04    1.66       0.0  T
   2    -87.1387185 -0.153173E-07  0.325E-04    1.66      45.4  T
   3    -87.1387185 -0.106787E-08  0.166E-04    1.66      88.6  T
   4    -87.1387185 -0.125880E-09  0.548E-05    1.66     269.2  T
     SCC iter.                  ...        0 min,  0.028 sec
     gradient                   ...        0 min,  0.076 sec
 * total energy  :   -86.3048857 Eh     change       -0.9872762E-05 Eh
   gradient norm :     0.0017275 Eh/α   predicted    -0.4198651E-05 ( -57.47%)
   displ. norm   :     0.1563214 α      lambda       -0.2018655E-04
   maximum displ.:     0.0777588 α      in ANC's #1, #2, #13, ...

........................................................................
.............................. CYCLE   27 ..............................
........................................................................
   1    -87.1389322 -0.871389E+02  0.179E-03    1.66       0.0  T
   2    -87.1389323 -0.936504E-07  0.889E-04    1.66      16.6  T
   3    -87.1389323 -0.957959E-08  0.436E-04    1.66      33.8  T
   4    -87.1389323 -0.888036E-09  0.121E-04    1.66     122.4  T
   5    -87.1389323 -0.144610E-09  0.377E-05    1.66     391.3  T
     SCC iter.                  ...        0 min,  0.034 sec
     gradient                   ...        0 min,  0.075 sec
 * total energy  :   -86.3049099 Eh     change       -0.2424993E-04 Eh
   gradient norm :     0.0017157 Eh/α   predicted    -0.1020381E-04 ( -57.92%)
   displ. norm   :     0.2698627 α      lambda       -0.2836280E-04
   maximum displ.:     0.1357875 α      in ANC's #1, #2, #13, ...

........................................................................
.............................. CYCLE   28 ..............................
........................................................................
   1    -87.1384746 -0.871385E+02  0.324E-03    1.66       0.0  T
   2    -87.1384748 -0.241721E-06  0.157E-03    1.66       9.4  T
   3    -87.1384749 -0.258950E-07  0.803E-04    1.66      18.4  T
   4    -87.1384749 -0.424986E-08  0.251E-04    1.67      58.8  T
   5    -87.1384749 -0.154043E-08  0.878E-05    1.67     167.8  T
   6    -87.1384749 -0.104563E-09  0.306E-05    1.67     481.3  T
     SCC iter.                  ...        0 min,  0.041 sec
     gradient                   ...        0 min,  0.074 sec
 * total energy  :   -86.3049327 Eh     change       -0.2278799E-04 Eh
   gradient norm :     0.0029955 Eh/α   predicted    -0.1464237E-04 ( -35.75%)
   displ. norm   :     0.0696277 α      lambda       -0.2979304E-04
   maximum displ.:     0.0348506 α      in ANC's #1, #2, #3, ...

........................................................................
.............................. CYCLE   29 ..............................
........................................................................
   1    -87.1397004 -0.871397E+02  0.355E-03    1.66       0.0  T
   2    -87.1397006 -0.143586E-06  0.180E-03    1.66       8.2  T
   3    -87.1397006 -0.494656E-08  0.909E-04    1.66      16.2  T
   4    -87.1397006 -0.903707E-08  0.256E-04    1.66      57.5  T
   5    -87.1397006 -0.201092E-08  0.760E-05    1.66     194.1  T
   6    -87.1397006 -0.128580E-09  0.165E-05    1.66     895.0  T
     SCC iter.                  ...        0 min,  0.037 sec
     gradient                   ...        0 min,  0.068 sec
 * total energy  :   -86.3049474 Eh     change       -0.1470323E-04 Eh
   gradient norm :     0.0016735 Eh/α   predicted    -0.1498228E-04 (   1.90%)
   displ. norm   :     0.1346714 α      lambda       -0.1204944E-04
   maximum displ.:     0.0704632 α      in ANC's #1, #2, #13, ...

........................................................................
.............................. CYCLE   30 ..............................
........................................................................
   1    -87.1393618 -0.871394E+02  0.165E-03    1.66       0.0  T
   2    -87.1393619 -0.535583E-07  0.918E-04    1.66      16.1  T
   3    -87.1393619 -0.144804E-07  0.476E-04    1.66      31.0  T
   4    -87.1393619 -0.122958E-08  0.127E-04    1.66     116.5  T
   5    -87.1393619 -0.471090E-09  0.448E-05    1.66     329.0  T
     SCC iter.                  ...        0 min,  0.031 sec
     gradient                   ...        0 min,  0.068 sec
 * total energy  :   -86.3049620 Eh     change       -0.1464273E-04 Eh
   gradient norm :     0.0012769 Eh/α   predicted    -0.6074409E-05 ( -58.52%)
   displ. norm   :     0.2255243 α      lambda       -0.1981846E-04
   maximum displ.:     0.1196983 α      in ANC's #1, #2, #13, ...

........................................................................
.............................. CYCLE   31 ..............................
........................................................................
   1    -87.1388160 -0.871388E+02  0.273E-03    1.66       0.0  T
   2    -87.1388162 -0.192561E-06  0.156E-03    1.66       9.5  T
   3    -87.1388162 -0.398919E-07  0.787E-04    1.66      18.7  T
   4    -87.1388162 -0.234327E-08  0.249E-04    1.66      59.3  T
   5    -87.1388162 -0.142205E-08  0.778E-05    1.66     189.6  T
   6    -87.1388162 -0.973728E-10  0.229E-05    1.66     644.8  T
     SCC iter.                  ...        0 min,  0.037 sec
     gradient                   ...        0 min,  0.068 sec
 * total energy  :   -86.3049804 Eh     change       -0.1832579E-04 Eh
   gradient norm :     0.0022128 Eh/α   predicted    -0.1013341E-04 ( -44.70%)
   displ. norm   :     0.0551274 α      lambda       -0.1279411E-04
   maximum displ.:     0.0278733 α      in ANC's #2, #1, #5, ...

........................................................................
.............................. CYCLE   32 ..............................
........................................................................
   1    -87.1391678 -0.871392E+02  0.152E-03    1.66       0.0  T
   2    -87.1391678 -0.356313E-07  0.795E-04    1.66      18.5  T
   3    -87.1391678 -0.180084E-08  0.374E-04    1.66      39.4  T
   4    -87.1391678 -0.782606E-09  0.968E-05    1.66     152.3  T
   5    -87.1391678 -0.123649E-09  0.288E-05    1.66     511.8  T
     SCC iter.                  ...        0 min,  0.031 sec
     gradient                   ...        0 min,  0.066 sec
 * total energy  :   -86.3049898 Eh     change       -0.9396874E-05 Eh
   gradient norm :     0.0017526 Eh/α   predicted    -0.6416679E-05 ( -31.71%)
   displ. norm   :     0.2155709 α      lambda       -0.1694650E-04
   maximum displ.:     0.1157040 α      in ANC's #1, #2, #5, ...

........................................................................
.............................. CYCLE   33 ..............................
........................................................................
   1    -87.1389614 -0.871390E+02  0.204E-03    1.66       0.0  T
   2    -87.1389615 -0.109636E-06  0.821E-04    1.66      18.0  T
   3    -87.1389615 -0.848247E-08  0.431E-04    1.66      34.2  T
   4    -87.1389615 -0.142907E-08  0.121E-04    1.66     122.3  T
   5    -87.1389615 -0.989502E-10  0.402E-05    1.66     367.2  T
     SCC iter.                  ...        0 min,  0.032 sec
     gradient                   ...        0 min,  0.085 sec
 * total energy  :   -86.3050073 Eh     change       -0.1754087E-04 Eh
   gradient norm :     0.0015662 Eh/α   predicted    -0.8648630E-05 ( -50.69%)
   displ. norm   :     0.1685207 α      lambda       -0.1250544E-04
   maximum displ.:     0.0944485 α      in ANC's #1, #2, #5, ...

........................................................................
.............................. CYCLE   34 ..............................
........................................................................
   1    -87.1389972 -0.871390E+02  0.183E-03    1.66       0.0  T
   2    -87.1389973 -0.945512E-07  0.898E-04    1.66      16.4  T
   3    -87.1389973 -0.157952E-07  0.450E-04    1.66      32.7  T
   4    -87.1389973 -0.954245E-09  0.143E-04    1.66     103.3  T
   5    -87.1389973 -0.452474E-09  0.509E-05    1.66     289.9  T
     SCC iter.                  ...        0 min,  0.030 sec
     gradient                   ...        0 min,  0.064 sec
 * total energy  :   -86.3050225 Eh     change       -0.1520032E-04 Eh
   gradient norm :     0.0009869 Eh/α   predicted    -0.6335829E-05 ( -58.32%)
   displ. norm   :     0.2123847 α      lambda       -0.1699958E-04
   maximum displ.:     0.1201622 α      in ANC's #1, #2, #5, ...

........................................................................
.............................. CYCLE   35 ..............................
........................................................................
   1    -87.1394845 -0.871395E+02  0.259E-03    1.66       0.0  T
   2    -87.1394847 -0.167424E-06  0.129E-03    1.66      11.5  T
   3    -87.1394847 -0.244568E-07  0.690E-04    1.66      21.4  T
   4    -87.1394847 -0.192344E-08  0.181E-04    1.66      81.5  T
   5    -87.1394847 -0.805244E-09  0.671E-05    1.66     219.6  T
     SCC iter.                  ...        0 min,  0.030 sec
     gradient                   ...        0 min,  0.064 sec
 * total energy  :   -86.3050404 Eh     change       -0.1785451E-04 Eh
   gradient norm :     0.0013881 Eh/α   predicted    -0.8674337E-05 ( -51.42%)
   displ. norm   :     0.3063141 α      lambda       -0.1702003E-04
   maximum displ.:     0.1784409 α      in ANC's #1, #2, #5, ...

........................................................................
.............................. CYCLE   36 ..............................
........................................................................
   1    -87.1383025 -0.871383E+02  0.401E-03    1.66       0.0  T
   2    -87.1383026 -0.162781E-06  0.213E-03    1.66       6.9  T
   3    -87.1383026 -0.111159E-07  0.104E-03    1.66      14.2  T
   4    -87.1383026 -0.144455E-07  0.243E-04    1.66      60.8  T
   5    -87.1383026 -0.108541E-08  0.894E-05    1.66     164.9  T
   6    -87.1383026 -0.133781E-09  0.275E-05    1.66     536.3  T
     SCC iter.                  ...        0 min,  0.036 sec
     gradient                   ...        0 min,  0.066 sec
 * total energy  :   -86.3050473 Eh     change       -0.6945596E-05 Eh
   gradient norm :     0.0034186 Eh/α   predicted    -0.8865774E-05 (  27.65%)
   displ. norm   :     0.0424823 α      lambda       -0.2008572E-04
   maximum displ.:     0.0205361 α      in ANC's #2, #1, #6, ...

........................................................................
.............................. CYCLE   37 ..............................
........................................................................
   1    -87.1390849 -0.871391E+02  0.196E-03    1.66       0.0  T
   2    -87.1390849 -0.193988E-07  0.107E-03    1.66      13.7  T
   3    -87.1390849  0.138864E-08  0.516E-04    1.66      28.6  T
   4    -87.1390849 -0.560223E-08  0.102E-04    1.66     144.8  T
   5    -87.1390849 -0.199080E-09  0.376E-05    1.66     391.8  T
     SCC iter.                  ...        0 min,  0.031 sec
     gradient                   ...        0 min,  0.067 sec
 * total energy  :   -86.3050618 Eh     change       -0.1451997E-04 Eh
   gradient norm :     0.0017844 Eh/α   predicted    -0.1006320E-04 ( -30.69%)
   displ. norm   :     0.1401251 α      lambda       -0.1366540E-04
   maximum displ.:     0.0849765 α      in ANC's #1, #2, #5, ...

........................................................................
.............................. CYCLE   38 ..............................
........................................................................
   1    -87.1398993 -0.871399E+02  0.277E-03    1.66       0.0  T
   2    -87.1398995 -0.128785E-06  0.152E-03    1.66       9.7  T
   3    -87.1398995 -0.304714E-07  0.830E-04    1.66      17.8  T
   4    -87.1398995 -0.465998E-08  0.205E-04    1.66      71.8  T
   5    -87.1398995 -0.119338E-08  0.521E-05    1.66     282.8  T
   6    -87.1398995 -0.489422E-10  0.138E-05    1.66    1068.9  T
     SCC iter.                  ...        0 min,  0.038 sec
     gradient                   ...        0 min,  0.071 sec
 * total energy  :   -86.3050728 Eh     change       -0.1093324E-04 Eh
   gradient norm :     0.0013037 Eh/α   predicted    -0.6894188E-05 ( -36.94%)
   displ. norm   :     0.1064370 α      lambda       -0.5780216E-05
   maximum displ.:     0.0665053 α      in ANC's #1, #2, #3, ...

........................................................................
.............................. CYCLE   39 ..............................
........................................................................
   1    -87.1396739 -0.871397E+02  0.118E-03    1.66       0.0  T
   2    -87.1396739 -0.397524E-07  0.637E-04    1.66      23.2  T
   3    -87.1396739 -0.925500E-08  0.315E-04    1.66      46.9  T
   4    -87.1396739 -0.425047E-09  0.114E-04    1.66     129.3  T
   5    -87.1396739 -0.241485E-09  0.251E-05    1.66     588.3  T
     SCC iter.                  ...        0 min,  0.032 sec
     gradient                   ...        0 min,  0.070 sec
 * total energy  :   -86.3050804 Eh     change       -0.7672364E-05 Eh
   gradient norm :     0.0007833 Eh/α   predicted    -0.2907285E-05 ( -62.11%)
   displ. norm   :     0.1677393 α      lambda       -0.9777412E-05
   maximum displ.:     0.1078991 α      in ANC's #1, #2, #3, ...

........................................................................
.............................. CYCLE   40 ..............................
........................................................................
   1    -87.1392736 -0.871393E+02  0.213E-03    1.66       0.0  T
   2    -87.1392737 -0.145090E-06  0.102E-03    1.66      14.4  T
   3    -87.1392737 -0.143632E-07  0.549E-04    1.66      26.9  T
   4    -87.1392737 -0.474230E-09  0.231E-04    1.66      63.8  T
   5    -87.1392737 -0.128566E-08  0.438E-05    1.66     337.0  T
   6    -87.1392737 -0.353708E-10  0.135E-05    1.66    1088.5  T
     SCC iter.                  ...        0 min,  0.035 sec
     gradient                   ...        0 min,  0.067 sec
 * total energy  :   -86.3050914 Eh     change       -0.1095345E-04 Eh
   gradient norm :     0.0010018 Eh/α   predicted    -0.4951363E-05 ( -54.80%)
   displ. norm   :     0.1497707 α      lambda       -0.7328160E-05
   maximum displ.:     0.0996047 α      in ANC's #1, #2, #3, ...

........................................................................
.............................. CYCLE   41 ..............................
........................................................................
   1    -87.1390806 -0.871391E+02  0.133E-03    1.66       0.0  T
   2    -87.1390807 -0.788247E-07  0.585E-04    1.66      25.2  T
   3    -87.1390807 -0.492254E-08  0.301E-04    1.66      48.9  T
   4    -87.1390807  0.129745E-10  0.136E-04    1.66     108.3  T
   5    -87.1390807 -0.305647E-09  0.295E-05    1.66     500.0  T
     SCC iter.                  ...        0 min,  0.030 sec
     gradient                   ...        0 min,  0.066 sec
 * total energy  :   -86.3051004 Eh     change       -0.9031301E-05 Eh
   gradient norm :     0.0012667 Eh/α   predicted    -0.3704455E-05 ( -58.98%)
   displ. norm   :     0.1200333 α      lambda       -0.7197614E-05
   maximum displ.:     0.0820812 α      in ANC's #1, #2, #3, ...

........................................................................
.............................. CYCLE   42 ..............................
........................................................................
   1    -87.1392159 -0.871392E+02  0.102E-03    1.66       0.0  T
   2    -87.1392159 -0.356745E-07  0.451E-04    1.66      32.7  T
   3    -87.1392159 -0.374023E-08  0.244E-04    1.66      60.5  T
   4    -87.1392159 -0.206057E-09  0.960E-05    1.66     153.6  T
   5    -87.1392159 -0.165869E-09  0.230E-05    1.66     641.9  T
     SCC iter.                  ...        0 min,  0.031 sec
     gradient                   ...        0 min,  0.069 sec
 * total energy  :   -86.3051100 Eh     change       -0.9594564E-05 Eh
   gradient norm :     0.0009526 Eh/α   predicted    -0.3626175E-05 ( -62.21%)
   displ. norm   :     0.1354114 α      lambda       -0.8778336E-05
   maximum displ.:     0.0938628 α      in ANC's #1, #2, #3, ...
 * RMSD in coord.:     0.4001319 α      energy gain  -0.3121535E-03 Eh

generating ANC from model Hessian ...
Using Lindh-Hessian (1995)
 Shifting diagonal of input Hessian by   9.806449321351919E-003
 Lowest  eigenvalues of input Hessian
    0.000000    0.000000    0.000000    0.000000    0.000000    0.000000
    0.010000    0.010044    0.010577    0.010772    0.011622    0.011830
    0.012290    0.013751    0.014199    0.014333    0.015208    0.016059
 Highest eigenvalues
    2.032799    2.192913    2.209659    2.313839    2.399813    2.435882
 

........................................................................
.............................. CYCLE   43 ..............................
........................................................................
   1    -87.1394088 -0.871394E+02  0.132E-03    1.66       0.0  T
   2    -87.1394088 -0.419086E-07  0.624E-04    1.66      23.6  T
   3    -87.1394089 -0.105687E-07  0.337E-04    1.66      43.7  T
   4    -87.1394089 -0.790138E-09  0.979E-05    1.66     150.6  T
   5    -87.1394089 -0.197957E-09  0.292E-05    1.66     504.3  T
     SCC iter.                  ...        0 min,  0.029 sec
     gradient                   ...        0 min,  0.067 sec
 * total energy  :   -86.3051218 Eh     change       -0.1176949E-04 Eh
   gradient norm :     0.0006340 Eh/α   predicted     0.0000000E+00 (-100.00%)
   displ. norm   :     0.0218692 α      lambda       -0.3941343E-06
   maximum displ.:     0.0164230 α      in ANC's #1, #7, #17, ...

........................................................................
.............................. CYCLE   44 ..............................
........................................................................
   1    -87.1394860 -0.871395E+02  0.738E-04    1.66       0.0  T
   2    -87.1394860 -0.233831E-07  0.340E-04    1.66      43.3  T
   3    -87.1394860 -0.211111E-08  0.181E-04    1.66      81.3  T
   4    -87.1394860 -0.193126E-10  0.796E-05    1.66     185.2  T
     SCC iter.                  ...        0 min,  0.025 sec
     gradient                   ...        0 min,  0.067 sec
 * total energy  :   -86.3051261 Eh     change       -0.4341856E-05 Eh
   gradient norm :     0.0003563 Eh/α   predicted    -0.1659074E-05 ( -61.79%)
   displ. norm   :     0.0712294 α      lambda       -0.8739255E-05
   maximum displ.:     0.0473190 α      in ANC's #1, #7, #17, ...

   *** GEOMETRY OPTIMIZATION CONVERGED AFTER 44 ITERATIONS ***

------------------------------------------------------------------------
 total energy gain   :        -0.0258259 Eh      -16.2060 kcal/mol
 total RMSD          :         0.7138166 a0        0.3777 Å
 total power (kW/mol):        -1.5410410 (step)  -10.3715 (real)
------------------------------------------------------------------------

 ANCopt (total)                0 d,  0 h,  0 min,  6.538 sec
 optimizer setup                ...        0 min,  0.001 sec (  0.010%)
 model hessian                  ...        0 min,  0.110 sec (  1.677%)
 ANC generation                 ...        0 min,  0.011 sec (  0.163%)
 coordinate transformation      ...        0 min,  0.001 sec (  0.017%)
 single point calculation       ...        0 min,  6.399 sec ( 97.879%)
 optimization log               ...        0 min,  0.009 sec (  0.130%)
 hessian update                 ...        0 min,  0.001 sec (  0.016%)
 rational function              ...        0 min,  0.005 sec (  0.073%)

================
 final structure:
================
46
 xtb: 6.5.1 (579679a)
C           -6.58986629842920        0.94367878512060       -0.77402468919579
O           -5.42461798920889        0.49975922152750       -0.06232498517572
C           -4.26547264574145        0.62677457240296       -0.68074383609551
O           -4.12369597253847        1.07345965930436       -1.79099693417302
C           -3.10393291673245        0.15214248659811        0.15089204771920
C           -3.15749372191694       -0.35862065094013        1.41224962412299
O           -4.27376841180207       -0.50713070845973        2.11267783861944
C           -1.93563718701455       -0.77185136205711        2.09352335507496
O           -1.89782083594795       -1.21076534788480        3.20365886614828
N           -0.64048564624642       -0.68791376511002        1.31747061827838
C           -0.28394769305906       -2.12927928669276        1.08884579957537
C            0.34975246647065       -0.01554513693425        2.21047502886960
C           -0.75970961824350       -0.00814685122513       -0.00714957553868
C            0.42967470767818        0.30809706943120       -0.90485795460982
C            0.38388566190080        1.82256573193235       -1.18368170295557
C            0.22530175109024       -0.46045990417178       -2.22192588585931
N            1.74067158165540        0.05167520943943       -0.32465658293118
C            2.52396954474887       -1.04171673209152       -0.53591941865994
O            2.14954265862693       -2.09657193522683       -1.01494796361764
C            3.90403507986945       -0.83004045398449       -0.05313044895017
N            4.91770993270485       -1.63268460225728       -0.14557635509985
N            5.97454520271127       -0.99926786151647        0.42946604191816
C            5.54389907939640        0.15333965364687        0.84148842841388
C            6.30058801223851        1.21263098303675        1.54168395668942
O            4.24032688873889        0.32393513540596        0.56465026117047
N           -1.88834645101145        0.31324449520355       -0.47559477758760
H           -7.43349835092756        0.79453029108153       -0.10375232802930
H           -6.71355584541604        0.35477566097854       -1.68530495406856
H           -6.48491916748638        1.99964551007384       -1.03190435606523
H           -4.10226774640964       -0.87247739637478        2.99722952230305
H           -1.08360395038112       -2.58774771134622        0.51189703452223
H            0.65266010758416       -2.17833840817691        0.54395923133826
H           -0.19182514387452       -2.60080137595272        2.06398123769739
H            1.34763954563715       -0.21208373257083        1.83783854011780
H            0.13903885005632        1.04989353319044        2.20956318154141
H            0.23341916892678       -0.43202704054466        3.20822445829355
H           -0.57543047416216        2.09165071923287       -1.62254388053068
H            1.18402130566616        2.08196344356670       -1.87440395122490
H            0.51749322612895        2.37734731141293       -0.25700441960351
H           -0.66813704472545       -0.07752186890385       -2.71291231748837
H            1.08792319296584       -0.30793375581118       -2.86757906294430
H            0.09614846254223       -1.52457761996330       -2.03844897913742
H            2.21137086266685        0.86842516964320        0.03460680554368
H            7.34621064160637        0.92542301180146        1.62692440259556
H            5.88107818241876        1.36770184891797        2.53566922893214
H            6.21712899724022        2.15084200525093        0.99379385006106
 
 Bond Distances (Angstroems)
 ---------------------------
C1-O2=1.4358         C1-H27=1.0878        C1-H28=1.0920        C1-H29=1.0921        O2-C1=1.4358         O2-C3=1.3199         
C3-O2=1.3199         C3-O4=1.2051         C3-C5=1.5053         O4-C3=1.2051         C5-C3=1.5053         C5-C6=1.3619         
C5-N26=1.3770        C6-C5=1.3619         C6-O7=1.3262         C6-C8=1.4587         O7-C6=1.3262         O7-H30=0.9723        
C8-C6=1.4587         C8-O9=1.1944         C8-N10=1.5122        O9-C8=1.1944         N10-C8=1.5122        N10-C11=1.5023       
N10-C12=1.4934       N10-C13=1.4936       C11-N10=1.5023       C11-H31=1.0874       C11-H32=1.0847       C11-H33=1.0871       
C12-N10=1.4934       C12-H34=1.0832       C12-H35=1.0861       C12-H36=1.0874       C13-N10=1.4936       C13-C14=1.5233       
C13-N26=1.2635       C14-C13=1.5233       C14-C15=1.5406       C14-C16=1.5385       C14-N17=1.4564       C15-C14=1.5406       
C15-H37=1.0887       C15-H38=1.0884       C15-H39=1.0883       C16-C14=1.5385       C16-H40=1.0890       C16-H41=1.0882       
C16-H42=1.0875       N17-C14=1.4564       N17-C18=1.3615       N17-H43=1.0088       C18-N17=1.3615       C18-O19=1.2175       
C18-C20=1.4773       O19-C18=1.2175       C20-C18=1.4773       C20-N21=1.2963       C20-O25=1.3514       N21-C20=1.2963       
N21-N22=1.3597       N22-N21=1.3597       N22-C23=1.2976       C23-N22=1.2976       C23-C24=1.4782       C23-O25=1.3435       
C24-C23=1.4782       C24-H44=1.0877       C24-H45=1.0900       C24-H46=1.0897       O25-C20=1.3514       O25-C23=1.3435       
N26-C5=1.3770        N26-C13=1.2635       H27-C1=1.0878        H28-C1=1.0920        H29-C1=1.0921        H30-O7=0.9723        
H31-C11=1.0874       H32-C11=1.0847       H33-C11=1.0871       H34-C12=1.0832       H35-C12=1.0861       H36-C12=1.0874       
H37-C15=1.0887       H38-C15=1.0884       H39-C15=1.0883       H40-C16=1.0890       H41-C16=1.0882       H42-C16=1.0875       
H43-N17=1.0088       H44-C24=1.0877       H45-C24=1.0900       H46-C24=1.0897       
 C  H  Rav=1.0881 sigma=0.0021  Rmin=1.0832  Rmax=1.0921    18
 C  C  Rav=1.4855 sigma=0.0545  Rmin=1.3619  Rmax=1.5406     8
 N  H  Rav=1.0088 sigma=0.0000  Rmin=1.0088  Rmax=1.0088     1
 N  C  Rav=1.4054 sigma=0.0924  Rmin=1.2635  Rmax=1.5122    10
 N  N  Rav=1.3597 sigma=0.0000  Rmin=1.3597  Rmax=1.3597     1
 O  H  Rav=0.9723 sigma=0.0000  Rmin=0.9723  Rmax=0.9723     1
 O  C  Rav=1.2992 sigma=0.0799  Rmin=1.1944  Rmax=1.4358     8
 
 selected bond angles (degree)
 --------------------
H27-C1-O2=106.36               H28-C1-O2=109.81               H28-C1-H27=110.64              H29-C1-O2=109.76               
H29-C1-H27=110.65              H29-C1-H28=109.59              C3-O2-C1=116.79                O4-C3-O2=124.79                
C5-C3-O2=112.86                C5-C3-O4=122.35                C6-C5-C3=126.84                N26-C5-C3=113.14               
N26-C5-C6=120.00               O7-C6-C5=124.35                C8-C6-C5=120.39                C8-C6-O7=115.26                
H30-O7-C6=111.97               O9-C8-C6=124.38                N10-C8-C6=117.52               N10-C8-O9=118.05               
C11-N10-C8=103.19              C12-N10-C8=106.62              C12-N10-C11=111.45             C13-N10-C8=114.33              
C13-N10-C11=108.70             C13-N10-C12=112.23             
 
 selected dihedral angles (degree)
 ---------------------------------
C3-O2-C1-H27=181.89           C3-O2-C1-H28= 62.15           C3-O2-C1-H29=301.62           O4-C3-O2-C1=359.35            
C5-C3-O2-C1=179.24            C6-C5-C3-O2=359.69            C6-C5-C3-O4=179.59            N26-C5-C3-O2=181.54           
N26-C5-C3-O4=  1.43           O7-C6-C5-C3=359.52            O7-C6-C5-N26=177.56           C8-C6-C5-C3=180.28            
C8-C6-C5-N26=358.32           H30-O7-C6-C5=181.10           H30-O7-C6-C8=  0.37           O9-C8-C6-C5=178.93            
O9-C8-C6-O7=359.63            N10-C8-C6-C5=356.39           N10-C8-C6-O7=177.09           C11-N10-C8-C6=250.09          
C11-N10-C8-O9= 67.71          C12-N10-C8-C6=132.58          C12-N10-C8-O9=310.20          C13-N10-C8-C6=  7.95          
C13-N10-C8-O9=185.57          
           -------------------------------------------------
          |                Final Singlepoint                |
           -------------------------------------------------

          ...................................................
          :                      SETUP                      :
          :.................................................:
          :  # basis functions                 144          :
          :  # atomic orbitals                 144          :
          :  # shells                           92          :
          :  # electrons                       140          :
          :  # halogen bonds                     0          :
          :  max. iterations                   250          :
          :  Hamiltonian                  GFN1-xTB          :
          :  restarted?                      false          :
          :  GBSA solvation                   true          :
          :  PC potential                    false          :
          :  electronic temp.          300.0000000     K    :
          :  accuracy                    1.0000000          :
          :  -> integral cutoff          0.2500000E+02      :
          :  -> integral neglect         0.1000000E-07      :
          :  -> SCF convergence          0.1000000E-05 Eh   :
          :  -> wf. convergence          0.2000000E-04 e    :
          :  Broyden damping             0.4000000          :
          ...................................................

 iter      E             dE          RMSdq      gap      omega  full diag
   1    -87.1394860 -0.871395E+02  0.165E-05    1.66       0.0  T
   2    -87.1394860 -0.619593E-11  0.911E-06    1.66    1618.7  T
   3    -87.1394860 -0.206057E-11  0.433E-06    1.66    3406.1  T

   *** convergence criteria satisfied after 3 iterations ***

         #    Occupation            Energy/Eh            Energy/eV
      -------------------------------------------------------------
         1        2.0000           -0.9013115             -24.5259
       ...           ...                  ...                  ...
        64        2.0000           -0.4911359             -13.3645
        65        2.0000           -0.4892749             -13.3138
        66        2.0000           -0.4831338             -13.1467
        67        2.0000           -0.4797659             -13.0551
        68        2.0000           -0.4759931             -12.9524
        69        2.0000           -0.4616676             -12.5626
        70        2.0000           -0.4610071             -12.5446 (HOMO)
        71                         -0.3999469             -10.8831 (LUMO)
        72                         -0.3305621              -8.9951
        73                         -0.3262982              -8.8790
        74                         -0.2935866              -7.9889
        75                         -0.2641950              -7.1891
       ...                                ...                  ...
       144                          0.7271863              19.7877
      -------------------------------------------------------------
                  HL-Gap            0.0610602 Eh            1.6615 eV
             Fermi-level           -0.4304770 Eh          -11.7139 eV

 SCC (total)                   0 d,  0 h,  0 min,  0.118 sec
 SCC setup                      ...        0 min,  0.002 sec (  1.581%)
 Dispersion                     ...        0 min,  0.000 sec (  0.239%)
 classical contributions        ...        0 min,  0.000 sec (  0.085%)
 integral evaluation            ...        0 min,  0.029 sec ( 24.435%)
 iterations                     ...        0 min,  0.019 sec ( 16.024%)
 molecular gradient             ...        0 min,  0.067 sec ( 56.493%)
 printout                       ...        0 min,  0.001 sec (  1.130%)

         :::::::::::::::::::::::::::::::::::::::::::::::::::::
         ::                     SUMMARY                     ::
         :::::::::::::::::::::::::::::::::::::::::::::::::::::
         :: total energy             -86.305126127561 Eh    ::
         :: total w/o Gsasa/hb       -86.279593529113 Eh    ::
         :: gradient norm              0.000357963886 Eh/a0 ::
         :: HOMO-LUMO gap              1.661531597631 eV    ::
         ::.................................................::
         :: SCC energy               -87.139486042874 Eh    ::
         :: -> electrostatic           0.415735316297 Eh    ::
         :: -> Gsolv                  -0.121062268496 Eh    ::
         ::    -> Gelec               -0.095529670048 Eh    ::
         ::    -> Gsasa               -0.024810061380 Eh    ::
         ::    -> Ghb                 -0.008346816073 Eh    ::
         ::    -> Gshift               0.007624279005 Eh    ::
         :: repulsion energy           0.865446118997 Eh    ::
         :: dispersion energy         -0.031086203685 Eh    ::
         :: halogen bond corr.         0.000000000000 Eh    ::
         :: add. restraining           0.000000000000 Eh    ::
         :: total charge               1.000000000000 e     ::
         :::::::::::::::::::::::::::::::::::::::::::::::::::::

           -------------------------------------------------
          |                Property Printout                |
           -------------------------------------------------

    * Orbital Energies and Occupations

         #    Occupation            Energy/Eh            Energy/eV
      -------------------------------------------------------------
         1        2.0000           -0.9013115             -24.5259
       ...           ...                  ...                  ...
        58        2.0000           -0.5301404             -14.4259
        59        2.0000           -0.5251204             -14.2893
        60        2.0000           -0.5204201             -14.1614
        61        2.0000           -0.5141139             -13.9898
        62        2.0000           -0.5127469             -13.9526
        63        2.0000           -0.5060232             -13.7696
        64        2.0000           -0.4911359             -13.3645
        65        2.0000           -0.4892749             -13.3138
        66        2.0000           -0.4831338             -13.1467
        67        2.0000           -0.4797659             -13.0551
        68        2.0000           -0.4759931             -12.9524
        69        2.0000           -0.4616676             -12.5626
        70        2.0000           -0.4610071             -12.5446 (HOMO)
        71                         -0.3999469             -10.8831 (LUMO)
        72                         -0.3305621              -8.9951
        73                         -0.3262982              -8.8790
        74                         -0.2935866              -7.9889
        75                         -0.2641950              -7.1891
        76                         -0.2136618              -5.8140
        77                         -0.2108819              -5.7384
        78                         -0.1654586              -4.5024
        79                         -0.1620348              -4.4092
        80                         -0.1472144              -4.0059
        81                         -0.1445438              -3.9332
       ...                                ...                  ...
       144                          0.7271863              19.7877
      -------------------------------------------------------------
                  HL-Gap            0.0610602 Eh            1.6615 eV
             Fermi-level           -0.4304770 Eh          -11.7139 eV

  Mulliken/CM5 charges         n(s)   n(p)   n(d)
     1C     0.16010  0.03892   0.985  2.854  0.000
     2O    -0.39933 -0.48386   1.682  4.717  0.000
     3C     0.58907  0.65730   0.957  2.454  0.000
     4O    -0.53763 -0.58199   1.720  4.817  0.000
     5C     0.10648  0.18209   1.052  2.842  0.000
     6C     0.25507  0.28833   1.014  2.731  0.000
     7O    -0.47688 -0.67111   1.685  4.792  0.000
     8C     0.46349  0.54710   1.040  2.496  0.000
     9O    -0.44628 -0.50433   1.718  4.729  0.000
    10N    -0.11808 -0.40627   1.504  3.614  0.000
    11C     0.02604 -0.06870   1.024  2.950  0.000
    12C     0.02348 -0.06996   1.020  2.957  0.000
    13C     0.26276  0.40015   1.064  2.673  0.000
    14C     0.15909  0.19905   1.065  2.776  0.000
    15C    -0.10934 -0.24937   1.030  3.079  0.000
    16C    -0.09586 -0.23487   1.024  3.072  0.000
    17N    -0.36511 -0.73042   1.439  3.926  0.000
    18C     0.47357  0.57818   0.982  2.545  0.000
    19O    -0.56051 -0.61302   1.724  4.837  0.000
    20C     0.32954  0.45499   1.002  2.668  0.000
    21N    -0.20781 -0.31192   1.564  3.644  0.000
    22N    -0.25854 -0.36607   1.562  3.697  0.000
    23C     0.39627  0.50465   1.010  2.594  0.000
    24C    -0.11286 -0.25024   1.013  3.100  0.000
    25O    -0.35813 -0.41730   1.697  4.661  0.000
    26N    -0.30079 -0.49759   1.506  3.795  0.000
    27H     0.06476  0.12514   0.935  0.000  0.000
    28H     0.06169  0.12311   0.938  0.000  0.000
    29H     0.06198  0.12374   0.938  0.000  0.000
    30H     0.43462  0.61289   0.565  0.000  0.000
    31H     0.08621  0.15152   0.914  0.000  0.000
    32H     0.10370  0.18085   0.896  0.000  0.000
    33H     0.10246  0.16981   0.898  0.000  0.000
    34H     0.08831  0.16318   0.912  0.000  0.000
    35H     0.08924  0.15436   0.911  0.000  0.000
    36H     0.10717  0.17710   0.893  0.000  0.000
    37H     0.06626  0.12502   0.934  0.000  0.000
    38H     0.07255  0.12875   0.927  0.000  0.000
    39H     0.05935  0.11639   0.941  0.000  0.000
    40H     0.05766  0.11572   0.942  0.000  0.000
    41H     0.06882  0.12693   0.931  0.000  0.000
    42H     0.06166  0.12335   0.938  0.000  0.000
    43H     0.27347  0.48128   0.727  0.000  0.000
    44H     0.07391  0.12957   0.926  0.000  0.000
    45H     0.08446  0.13897   0.916  0.000  0.000
    46H     0.08392  0.13858   0.916  0.000  0.000

Wiberg/Mayer (AO) data.
largest (>0.10) Wiberg bond orders for each atom

 ---------------------------------------------------------------------------
     #   Z sym  total        # sym  WBO       # sym  WBO       # sym  WBO
 ---------------------------------------------------------------------------
     1   6 C    3.855 --    27 H    0.985    29 H    0.978    28 H    0.978
                             2 O    0.882
     2   8 O    2.224 --     3 C    1.145     1 C    0.882     4 O    0.146
     3   6 C    3.864 --     4 O    1.674     2 O    1.145     5 C    0.973
     4   8 O    1.942 --     3 C    1.674     2 O    0.146
     5   6 C    3.958 --     6 C    1.524    26 N    1.121     3 C    0.973
     6   6 C    3.928 --     5 C    1.524     7 O    1.135     8 C    1.051
     7   8 O    2.117 --     6 C    1.135    30 H    0.792
     8   6 C    3.864 --     9 O    1.780     6 C    1.051    10 N    0.858
     9   8 O    2.063 --     8 C    1.780
    10   7 N    3.618 --    12 C    0.877    13 C    0.877    11 C    0.860
                             8 C    0.858
    11   6 C    3.866 --    31 H    0.981    33 H    0.976    32 H    0.966
                            10 N    0.860
    12   6 C    3.873 --    35 H    0.981    34 H    0.974    36 H    0.972
                            10 N    0.877
    13   6 C    3.897 --    26 N    1.772    14 C    0.981    10 N    0.877
    14   6 C    3.932 --    13 C    0.981    15 C    0.969    16 C    0.967
                            17 N    0.944
    15   6 C    3.980 --    39 H    0.983    37 H    0.980    38 H    0.980
                            14 C    0.969
    16   6 C    3.979 --    40 H    0.982    42 H    0.980    41 H    0.980
                            14 C    0.967
    17   7 N    3.321 --    18 C    1.212    14 C    0.944    43 H    0.888
                            19 O    0.165
    18   6 C    3.909 --    19 O    1.594    17 N    1.212    20 C    1.005
    19   8 O    1.925 --    18 C    1.594    17 N    0.165
    20   6 C    3.877 --    21 N    1.616    25 O    1.044    18 C    1.005
    21   7 N    3.005 --    20 C    1.616    22 N    1.207
    22   7 N    2.983 --    23 C    1.602    21 N    1.207
    23   6 C    3.864 --    22 N    1.602    25 O    1.071    24 C    1.033
    24   6 C    3.984 --    23 C    1.033    44 H    0.982    46 H    0.963
                            45 H    0.959
    25   8 O    2.317 --    23 C    1.071    20 C    1.044
    26   7 N    3.087 --    13 C    1.772     5 C    1.121
    27   1 H    1.008 --     1 C    0.985
    28   1 H    1.003 --     1 C    0.978
    29   1 H    1.004 --     1 C    0.978
    30   1 H    0.820 --     7 O    0.792
    31   1 H    0.991 --    11 C    0.981
    32   1 H    1.001 --    11 C    0.966
    33   1 H    0.992 --    11 C    0.976
    34   1 H    1.002 --    12 C    0.974
    35   1 H    0.991 --    12 C    0.981
    36   1 H    0.994 --    12 C    0.972
    37   1 H    1.004 --    15 C    0.980
    38   1 H    0.995 --    15 C    0.980
    39   1 H    0.996 --    15 C    0.983
    40   1 H    1.004 --    16 C    0.982
    41   1 H    0.997 --    16 C    0.980
    42   1 H    1.012 --    16 C    0.980
    43   1 H    0.935 --    17 N    0.888
    44   1 H    0.997 --    24 C    0.982
    45   1 H    0.996 --    24 C    0.959
    46   1 H    0.995 --    24 C    0.963
 ---------------------------------------------------------------------------

Topologies differ in total number of bonds
Writing topology from bond orders to xtbtopo.mol

 dipole moment from electron density (au)
     X       Y       Z   
  -1.1627   2.0021   4.1137  total (Debye):   11.998

           -------------------------------------------------
          |                Geometry Summary                 |
           -------------------------------------------------

      molecular mass/u    :      366.3497991
   center of mass at/Å    :       -0.0363474      -0.1952119       0.2718489
  moments of inertia/u·Å² :        0.1031413E+04   0.5167262E+04   0.5573908E+04
rotational constants/cm⁻¹ :        0.1634421E-01   0.3262392E-02   0.3024383E-02

 * 39 selected distances

     #   Z          #   Z                                           value/Å
     1   6 C        2   8 O                                       1.4357524
     2   8 O        3   6 C                                       1.3199216
     3   6 C        4   8 O                                       1.2051101
     5   6 C        6   6 C                                       1.3618998
     6   6 C        7   8 O                                       1.3261691
     8   6 C        9   8 O                                       1.1943520
    10   7 N       11   6 C                                       1.5023061
    10   7 N       12   6 C                                       1.4933547
    14   6 C       15   6 C                                       1.5406022 (max)
    14   6 C       16   6 C                                       1.5385436
    14   6 C       17   7 N                                       1.4563993
    17   7 N       18   6 C                                       1.3615043
    18   6 C       19   8 O                                       1.2175318
    20   6 C       21   7 N                                       1.2962719
    22   7 N       23   6 C                                       1.2975835
    23   6 C       24   6 C                                       1.4781578
    20   6 C       25   8 O                                       1.3514456
    23   6 C       25   8 O                                       1.3435189
    13   6 C       26   7 N                                       1.2635485
     1   6 C       27   1 H                                       1.0877617
     1   6 C       28   1 H                                       1.0920339
     1   6 C       29   1 H                                       1.0920539
     7   8 O       30   1 H                                       0.9722770 (min)
    11   6 C       31   1 H                                       1.0874344
    11   6 C       32   1 H                                       1.0846855
    11   6 C       33   1 H                                       1.0870644
    12   6 C       34   1 H                                       1.0831732
    12   6 C       35   1 H                                       1.0860759
    12   6 C       36   1 H                                       1.0874257
    15   6 C       37   1 H                                       1.0887123
    15   6 C       38   1 H                                       1.0883941
    15   6 C       39   1 H                                       1.0882852
    16   6 C       40   1 H                                       1.0890098
    16   6 C       41   1 H                                       1.0882317
    16   6 C       42   1 H                                       1.0875160
    17   7 N       43   1 H                                       1.0088155
    24   6 C       44   1 H                                       1.0876954
    24   6 C       45   1 H                                       1.0899736
    24   6 C       46   1 H                                       1.0896739

 * 6 distinct bonds (by element types)

   Z      Z             #   av. dist./Å        max./Å        min./Å
   1 H    6 C          18     1.0880667     1.0920539     1.0831732
   6 C    6 C           4     1.4798008     1.5406022     1.3618998
   1 H    7 N           1     1.0088155     1.0088155     1.0088155
   6 C    7 N           7     1.3815669     1.5023061     1.2635485
   1 H    8 O           1     0.9722770     0.9722770     0.9722770
   6 C    8 O           8     1.2992252     1.4357524     1.1943520


optimized geometry written to: xtbopt.xyz


           -------------------------------------------------
          | TOTAL ENERGY              -86.305126127561 Eh   |
          | GRADIENT NORM               0.000357963886 Eh/α |
          | HOMO-LUMO GAP               1.661531597631 eV   |
           -------------------------------------------------

------------------------------------------------------------------------
 * finished run on 2023/06/20 at 15:54:46.781     
------------------------------------------------------------------------
 total:
 * wall-time:     0 d,  0 h,  0 min,  6.911 sec
 *  cpu-time:     0 d,  0 h,  0 min,  6.858 sec
 * ratio c/w:     0.992 speedup
 SCF:
 * wall-time:     0 d,  0 h,  0 min,  0.180 sec
 *  cpu-time:     0 d,  0 h,  0 min,  0.163 sec
 * ratio c/w:     0.905 speedup
 ANC optimizer:
 * wall-time:     0 d,  0 h,  0 min,  6.662 sec
 *  cpu-time:     0 d,  0 h,  0 min,  6.652 sec
 * ratio c/w:     0.998 speedup

