42
 energy: -82.918565679756 gnorm: 0.000332520491 xtb: 6.5.1 (579679a)
C            6.74551403942541        0.28562575192142       -1.24169162180445
O            5.79973532772271        0.27006566565432       -0.16159895466020
C            4.51708300458615        0.44975517634986       -0.50476098550997
O            4.16136005205239        0.61597342537362       -1.64635760676628
C            3.58346033861154        0.41608020724694        0.65926578102561
N            2.29092120342670        0.56356862283897        0.31379004534586
C            1.38901182517474        0.53452541271232        1.29460653586106
C           -0.00163585150771       -0.30479959118026        0.75133882456012
C            0.06058079205691       -0.92946728616383       -0.60210714939355
C           -0.61216668704826       -1.11151857991614        1.84957284411596
N            0.06467242334366        1.05854963607281        0.89638744525828
C           -2.83200901940684        1.46608812420039       -1.55865862274013
C           -3.59893922968398        2.55852311947182       -2.23789707475514
O           -1.62450981474344        1.43800875007301       -1.47311076267732
C           -3.65984215721376        0.38881670350852       -0.97980597610149
N           -3.26178574544234       -0.66836694324399       -0.33010857132510
N           -4.37093012127581       -1.37004095511655        0.00448692979688
C           -5.38948365397504       -0.70394879644568       -0.45781061716890
C           -6.82122770893865       -1.05239470803193       -0.35119965791896
O           -5.00494187668921        0.41367134743143       -1.08565726578327
N            1.60680131111961        0.38917537337256        2.60325969582603
C            2.88154979989225        0.22718868040270        3.04757580503991
O            3.15962876030884        0.07959668627634        4.23574969915276
C            3.93336393600485        0.24700549731231        1.99349935543182
O            5.17214238587917        0.09158718540428        2.44024032927339
H            6.73892153550996        1.26506368923365       -1.72456018063961
H            6.48568776978874       -0.48347312897902       -1.97191071722659
H            7.72036962062439        0.08279322244104       -0.80587519229898
H           -0.96779342939743       -1.07126375013618       -0.94047106808578
H            0.54476043443687       -1.90333528663384       -0.55879045613271
H            0.57886308678162       -0.28755934460570       -1.31053401703287
H           -0.10225719671780       -2.06571409276225        1.96922231954170
H           -0.60158998325677       -0.56402299596626        2.79002910079804
H           -1.64517424918562       -1.31005378920515        1.55693402317243
H            0.16056792624562        1.52099832302372       -0.01004539993728
H           -2.91835167956310        3.31302113238953       -2.62444316535904
H           -4.18616166081436        2.13302756285712       -3.05052257583266
H           -4.29552690526799        3.00705031758563       -1.53095212786617
H           -7.26529809112192       -1.10127271981707       -1.34511369858106
H           -7.34822770037945       -0.28343609407080        0.21386099284019
H           -6.93009388167634       -2.01176735919174        0.14840824502586
H            5.84295207077472        0.10241080819859        1.73575649385217
