42
 energy: -82.946610899746 gnorm: 0.000552144714 xtb: 6.5.1 (579679a)
C           -5.41964994349725        1.38291251297824       -2.10380026508269
O           -4.36315054297913        0.79693898774048       -1.34465722727857
C           -4.45948337877208       -0.52837185074119       -1.12057433112658
O           -5.38700686667536       -1.18594469852210       -1.54228592144913
C           -3.32559670826327       -1.03796494601061       -0.32298738190592
N           -2.39211429308877       -0.11637455120826        0.02578873504274
C           -1.37007260276226       -0.44758032253513        0.74771964668701
C           -0.35404889991521        0.59667979041623        1.14257954686960
C           -0.62132016316392        1.89921710436679        0.38740367736577
C           -0.38749642424986        0.80931172366306        2.66168248228993
N            0.96913584270344        0.05611451568359        0.75598941316774
C            2.10408614802485        0.71359873156731        0.95676109247432
O            2.25549503623755        1.80283477598519        1.45319550677047
C            3.38556114903244       -0.11442111683498        0.50302923428699
C            4.23554089965747       -0.34375317164511        1.75174558526494
N            3.01607874190026       -1.30758215123600       -0.16790670838304
N            3.41618080846277       -1.23774576259286       -1.39800367856330
C            4.05416700977936       -0.07347303579567       -1.56443556251012
C            4.67209583976662        0.39849709491265       -2.81137735131603
O            4.08181111408352        0.64137600034732       -0.46939165744597
N           -1.17544542012273       -1.72650970979779        1.18722012441418
C           -2.02845684845879       -2.77810493500055        0.90351385354909
O           -1.78635722984540       -3.89087886545645        1.33324749116571
C           -3.23038708398255       -2.42034472642621        0.05236600950681
O           -4.03157366208795       -3.30235901858615       -0.25707577236844
H           -6.38205525469238        1.20776984155886       -1.61477813308582
H           -5.44529628128432        0.95739464648219       -3.11083461387642
H           -5.21398838018820        2.45031211249887       -2.15437077450454
H           -0.55941184656141        1.72631981647304       -0.68570050932372
H            0.10452104940720        2.65694893125134        0.67336560082112
H           -1.62237250989589        2.25273070763625        0.62930361119799
H           -0.10464050111591       -0.10765923284168        3.17478872888181
H            0.30290496796920        1.60099532515793        2.94504645397327
H           -1.39468972304700        1.09099627642237        2.96477244904612
H            1.01270984697615       -0.85269381872398        0.31645111374902
H            3.69420389723190       -0.99002768517854        2.43785608157682
H            5.17297764385854       -0.81348936971473        1.46387715277044
H            4.43148698878218        0.61748645120779        2.22302043978061
H            4.45712620133502        1.45605647279058       -2.95895070562065
H            5.75618658013600        0.29056315625295       -2.73697924747059
H            4.31502409892081       -0.18794298475501       -3.65418583283639
H           -0.38268129961274       -1.94183102178717        1.76913164350584
