      -----------------------------------------------------------      
     |                   =====================                   |     
     |                           x T B                           |     
     |                   =====================                   |     
     |                         S. Grimme                         |     
     |          Mulliken Center for Theoretical Chemistry        |     
     |                    University of Bonn                     |     
      -----------------------------------------------------------      

   * xtb version 6.5.1 (579679a) compiled by 'ehlert@majestix' on 2022-07-11

   xtb is free software: you can redistribute it and/or modify it under
   the terms of the GNU Lesser General Public License as published by
   the Free Software Foundation, either version 3 of the License, or
   (at your option) any later version.
   
   xtb is distributed in the hope that it will be useful,
   but WITHOUT ANY WARRANTY; without even the implied warranty of
   MERCHANTABILITY or FITNESS FOR A PARTICULAR PURPOSE.  See the
   GNU Lesser General Public License for more details.
   
   Cite this work as:
   * C. Bannwarth, E. Caldeweyher, S. Ehlert, A. Hansen, P. Pracht,
     J. Seibert, S. Spicher, S. Grimme, WIREs Comput. Mol. Sci., 2020, 11,
     e01493. DOI: 10.1002/wcms.1493
   
   for GFN2-xTB:
   * C. Bannwarth, S. Ehlert and S. Grimme., J. Chem. Theory Comput., 2019,
     15, 1652-1671. DOI: 10.1021/acs.jctc.8b01176
   for GFN1-xTB:
   * S. Grimme, C. Bannwarth, P. Shushkov, J. Chem. Theory Comput., 2017,
     13, 1989-2009. DOI: 10.1021/acs.jctc.7b00118
   for GFN0-xTB:
   * P. Pracht, E. Caldeweyher, S. Ehlert, S. Grimme, ChemRxiv, 2019, preprint.
     DOI: 10.26434/chemrxiv.8326202.v1
   for GFN-FF:
   * S. Spicher and S. Grimme, Angew. Chem. Int. Ed., 2020, 59, 15665-15673.
     DOI: 10.1002/anie.202004239
   
   for ALPB and GBSA implicit solvation:
   * S. Ehlert, M. Stahn, S. Spicher, S. Grimme, J. Chem. Theory Comput.,
     2021, 17, 4250-4261. DOI: 10.1021/acs.jctc.1c00471
   
   for DFT-D4:
   * E. Caldeweyher, C. Bannwarth and S. Grimme, J. Chem. Phys., 2017,
     147, 034112. DOI: 10.1063/1.4993215
   * E. Caldeweyher, S. Ehlert, A. Hansen, H. Neugebauer, S. Spicher,
     C. Bannwarth and S. Grimme, J. Chem. Phys., 2019, 150, 154122.
     DOI: 10.1063/1.5090222
   * E. Caldeweyher, J.-M. Mewes, S. Ehlert and S. Grimme, Phys. Chem. Chem. Phys.
     2020, 22, 8499-8512. DOI: 10.1039/D0CP00502A
   
   for sTDA-xTB:
   * S. Grimme and C. Bannwarth, J. Chem. Phys., 2016, 145, 054103.
     DOI: 10.1063/1.4959605
   
   in the mass-spec context:
   * V. Asgeirsson, C. Bauer and S. Grimme, Chem. Sci., 2017, 8, 4879.
     DOI: 10.1039/c7sc00601b
   * J. Koopman and S. Grimme, ACS Omega 2019, 4, 12, 15120-15133.
     DOI: 10.1021/acsomega.9b02011
   
   for metadynamics refer to:
   * S. Grimme, J. Chem. Theory Comput., 2019, 155, 2847-2862
     DOI: 10.1021/acs.jctc.9b00143
   
   for SPH calculations refer to:
   * S. Spicher and S. Grimme, J. Chem. Theory Comput., 2021, 17, 1701-1714
     DOI: 10.1021/acs.jctc.0c01306
   
   with help from (in alphabetical order)
   P. Atkinson, C. Bannwarth, F. Bohle, G. Brandenburg, E. Caldeweyher
   M. Checinski, S. Dohm, S. Ehlert, S. Ehrlich, I. Gerasimov, C. Hölzer
   A. Katbashev, J. Koopman, C. Lavigne, S. Lehtola, F. März, M. Müller,
   F. Musil, H. Neugebauer, J. Pisarek, C. Plett, P. Pracht, F. Pultar,
   J. Seibert, P. Shushkov, S. Spicher, M. Stahn, M. Steiner, T. Strunk,
   J. Stückrath, T. Rose, and J. Unsleber
   
 * started run on 2023/06/20 at 15:48:52.748     

           -------------------------------------------------
          |                Calculation Setup                |
           -------------------------------------------------

          program call               : /lustre/hpc/kemi/ree/PhD/git/ReactivityQM/dep/xtb-6.5.1/bin/xtb --gfn 1 /lustre/hpc/kemi/ree/PhD/git/ReactivityQM/calculations/R03/reac02prodN13/conf12/R03_reac02prodN13_conf12_gfn1.xyz --opt --vfukui --chrg 1 --uhf 0 --alpb DMSO
          hostname                   : node068
          coordinate file            : /lustre/hpc/kemi/ree/PhD/git/ReactivityQM/calculations/R03/reac02prodN13/conf12/R03_reac02prodN13_conf12_gfn1.xyz
          omp threads                :                     1

   ID    Z sym.   atoms
    1    6 C      1, 3, 5, 7-10, 12, 14, 17-19, 22, 23, 25
    2    8 O      2, 4, 13, 20, 24, 26
    3    7 N      6, 11, 15, 16, 21
    4    1 H      27-46

           -------------------------------------------------
          |                 G F N 1 - x T B                 |
           -------------------------------------------------

        Reference                      10.1021/acs.jctc.7b00118
      * Hamiltonian:
        H0-scaling (s, p, d)           1.850000    2.250000    2.000000
        zeta-weighting                 0.000000
      * Dispersion:
        s8                             2.400000
        a1                             0.630000
        a2                             5.000000
        s9                             0.000000
      * Repulsion:
        kExp                           1.500000
        rExp                           1.000000
      * Coulomb:
        alpha                          2.000000
        third order                    atomic
        anisotropic                    false
      * Halogen bond correction:
        rad-scale                      1.300000
        damping                        0.440000

      * Solvation model:               ALPB
        Solvent                        DMSO
        Parameter file                 internal GFN1-xTB/ALPB
        Dielectric constant                4.6680E+01
        Reference state                gsolv [1 M gas/solution]
        Free energy shift                  7.6243E-03 Eh       4.7843E+00 kcal/mol
        Temperature                        2.9815E+02 K
        Density                            1.1000E+00 kg/L
        Solvent mass                       7.8130E+01 g/mol
        Interaction kernel             P16
        Born radius scaling (c1)           1.7672E+00
        Born radii integrator          GBOBC
        Born offset                        0.0000E+00 a0       0.0000E+00 AA
        H-bond correction              true
        Ion screening                  false
        Surface tension                    1.0000E-05 Eh       1.5569E+01 dyn/cm
        Grid points                               230 per atom

          ...................................................
          :                      SETUP                      :
          :.................................................:
          :  # basis functions                 144          :
          :  # atomic orbitals                 144          :
          :  # shells                           92          :
          :  # electrons                       140          :
          :  # halogen bonds                     0          :
          :  max. iterations                   250          :
          :  Hamiltonian                  GFN1-xTB          :
          :  restarted?                      false          :
          :  GBSA solvation                   true          :
          :  PC potential                    false          :
          :  electronic temp.          300.0000000     K    :
          :  accuracy                    1.0000000          :
          :  -> integral cutoff          0.2500000E+02      :
          :  -> integral neglect         0.1000000E-07      :
          :  -> SCF convergence          0.1000000E-05 Eh   :
          :  -> wf. convergence          0.2000000E-04 e    :
          :  Broyden damping             0.4000000          :
          ...................................................

 iter      E             dE          RMSdq      gap      omega  full diag
   1    -86.6831726 -0.866832E+02  0.827E+00    1.45       0.0  T
   2    -87.0440613 -0.360889E+00  0.495E+00    0.18       1.0  T
   3    -86.7142376  0.329824E+00  0.222E+00    0.17       1.0  T
   4    -86.9784131 -0.264175E+00  0.134E+00    0.98       1.0  T
   5    -87.0487240 -0.703109E-01  0.648E-01    1.46       1.0  T
   6    -87.0625970 -0.138730E-01  0.427E-01    1.14       1.0  T
   7    -87.0700712 -0.747413E-02  0.246E-01    0.43       1.0  T
   8    -86.8674434  0.202628E+00  0.120E+00    0.08       1.0  T
   9    -87.0695219 -0.202078E+00  0.249E-01    0.44       1.0  T
  10    -87.0699029 -0.381078E-03  0.239E-01    0.41       1.0  T
  11    -87.0702437 -0.340750E-03  0.226E-01    0.36       1.0  T
  12    -87.0713041 -0.106043E-02  0.197E-01    0.28       1.0  T
  13    -87.0718986 -0.594463E-03  0.182E-01    0.25       1.0  T
  14    -87.0739276 -0.202903E-02  0.128E-01    0.18       1.0  T
  15    -87.0758364 -0.190877E-02  0.471E-02    0.14       1.0  T
  16    -87.0757356  0.100780E-03  0.542E-02    0.14       1.0  T
  17    -87.0745152  0.122045E-02  0.107E-01    0.09       1.0  T
  18    -87.0754605 -0.945376E-03  0.701E-02    0.15       1.0  T
  19    -87.0760847 -0.624130E-03  0.209E-02    0.11       1.0  T
  20    -87.0761355 -0.508473E-04  0.883E-03    0.12       1.7  T
  21    -87.0761456 -0.100703E-04  0.262E-03    0.12       5.6  T
  22    -87.0761465 -0.962827E-06  0.235E-04    0.12      62.6  T
  23    -87.0761466 -0.306258E-08  0.184E-04    0.12      80.2  T
  24    -87.0761466 -0.463635E-08  0.337E-05    0.12     437.3  T

   *** convergence criteria satisfied after 24 iterations ***

         #    Occupation            Energy/Eh            Energy/eV
      -------------------------------------------------------------
         1        2.0000           -0.9143899             -24.8818
       ...           ...                  ...                  ...
        64        2.0000           -0.5013206             -13.6416
        65        2.0000           -0.4975729             -13.5396
        66        2.0000           -0.4957765             -13.4908
        67        2.0000           -0.4912666             -13.3680
        68        2.0000           -0.4817232             -13.1084
        69        2.0000           -0.4728758             -12.8676
        70        1.8168           -0.4555806             -12.3970 (HOMO)
        71        0.1832           -0.4512213             -12.2784 (LUMO)
        72                         -0.3670433              -9.9878
        73                         -0.3509645              -9.5502
        74                         -0.3140970              -8.5470
        75                         -0.2607542              -7.0955
       ...                                ...                  ...
       144                          0.6905545              18.7909
      -------------------------------------------------------------
                  HL-Gap            0.0043593 Eh            0.1186 eV
             Fermi-level           -0.4534009 Eh          -12.3377 eV

 SCC (total)                   0 d,  0 h,  0 min,  0.280 sec
 SCC setup                      ...        0 min,  0.002 sec (  0.824%)
 Dispersion                     ...        0 min,  0.000 sec (  0.132%)
 classical contributions        ...        0 min,  0.000 sec (  0.043%)
 integral evaluation            ...        0 min,  0.032 sec ( 11.588%)
 iterations                     ...        0 min,  0.168 sec ( 59.791%)
 molecular gradient             ...        0 min,  0.076 sec ( 26.974%)
 printout                       ...        0 min,  0.002 sec (  0.637%)

         :::::::::::::::::::::::::::::::::::::::::::::::::::::
         ::                     SUMMARY                     ::
         :::::::::::::::::::::::::::::::::::::::::::::::::::::
         :: total energy             -86.273465335499 Eh    ::
         :: total w/o Gsasa/hb       -86.247549488121 Eh    ::
         :: gradient norm              0.133577814717 Eh/a0 ::
         :: HOMO-LUMO gap              0.118623476548 eV    ::
         ::.................................................::
         :: SCC energy               -87.076146555920 Eh    ::
         :: -> electrostatic           0.416086115001 Eh    ::
         :: -> Gsolv                  -0.111812987104 Eh    ::
         ::    -> Gelec               -0.085897139725 Eh    ::
         ::    -> Gsasa               -0.025184741177 Eh    ::
         ::    -> Ghb                 -0.008355385206 Eh    ::
         ::    -> Gshift               0.007624279005 Eh    ::
         :: repulsion energy           0.831479701030 Eh    ::
         :: dispersion energy         -0.028798480609 Eh    ::
         :: halogen bond corr.         0.000000000000 Eh    ::
         :: add. restraining           0.000000000000 Eh    ::
         :: total charge               1.000000000009 e     ::
         :::::::::::::::::::::::::::::::::::::::::::::::::::::

      ----------------------------------------------------------- 
     |                   =====================                   |
     |                        A N C O P T                        |
     |                   =====================                   |
     |               Approximate Normal Coordinate               |
     |                Rational Function Optimizer                |
      ----------------------------------------------------------- 

          ...................................................
          :                      SETUP                      :
          :.................................................:
          :   optimization level            normal          :
          :   max. optcycles                   200          :
          :   ANC micro-cycles                  20          :
          :   degrees of freedom               132          :
          :.................................................:
          :   RF solver                   davidson          :
          :   write xtbopt.log                true          :
          :   linear?                        false          :
          :   energy convergence         0.5000000E-05 Eh   :
          :   grad. convergence          0.1000000E-02 Eh/α :
          :   maximium RF displ.         1.0000000          :
          :   Hlow (freq-cutoff)         0.1000000E-01      :
          :   Hmax (freq-cutoff)         5.0000000          :
          :   S6 in model hess.         20.0000000          :
          ...................................................

generating ANC from model Hessian ...
Using Lindh-Hessian (1995)
 Shifting diagonal of input Hessian by   9.853818833123232E-003
 Lowest  eigenvalues of input Hessian
    0.000000    0.000000    0.000000    0.000000    0.000000    0.000000
    0.010000    0.010232    0.010590    0.010776    0.011459    0.012102
    0.012549    0.013798    0.014343    0.015057    0.015469    0.017226
 Highest eigenvalues
    1.970333    2.090604    2.199185    2.306771    2.336652    2.403736
 

........................................................................
.............................. CYCLE    1 ..............................
........................................................................
   1    -87.0761466 -0.870761E+02  0.105E-05    0.12       0.0  T
   2    -87.0761466  0.844594E-09  0.783E-05    0.12     188.3  T
   3    -87.0761466 -0.860126E-09  0.546E-07    0.12   27012.3  T
     SCC iter.                  ...        0 min,  0.022 sec
     gradient                   ...        0 min,  0.076 sec
 * total energy  :   -86.2734653 Eh     change       -0.1608100E-09 Eh
   gradient norm :     0.1335792 Eh/α   predicted     0.0000000E+00 (-100.00%)
   displ. norm   :     0.3414854 α      lambda       -0.2126478E-01
   maximum displ.:     0.1547589 α      in ANC's #26, #33, #32, ...

........................................................................
.............................. CYCLE    2 ..............................
........................................................................
   1    -87.0981541 -0.870982E+02  0.162E-01    0.20       0.0  T
   2    -86.7562269  0.341927E+00  0.155E+00    0.19       1.0  T
   3    -87.1005056 -0.344279E+00  0.959E-02    0.16       1.0  T
   4    -87.1008819 -0.376377E-03  0.665E-02    0.15       1.0  T
   5    -87.1013252 -0.443239E-03  0.314E-02    0.13       1.0  T
   6    -87.1014213 -0.961032E-04  0.144E-02    0.12       1.0  T
   7    -87.1014440 -0.227110E-04  0.688E-03    0.12       2.1  T
   8    -87.1014505 -0.652731E-05  0.159E-03    0.12       9.3  T
   9    -87.1014509 -0.341457E-06  0.338E-04    0.12      43.6  T
  10    -87.1014509 -0.666179E-08  0.242E-04    0.12      60.9  T
  11    -87.1014509 -0.649085E-08  0.104E-04    0.12     141.8  T
  12    -87.1014509 -0.125773E-08  0.399E-05    0.12     369.1  T
     SCC iter.                  ...        0 min,  0.084 sec
     gradient                   ...        0 min,  0.075 sec
 * total energy  :   -86.2892518 Eh     change       -0.1578650E-01 Eh
   gradient norm :     0.0679526 Eh/α   predicted    -0.1189090E-01 ( -24.68%)
   displ. norm   :     0.3640441 α      lambda       -0.1033480E-01
   maximum displ.:     0.1646696 α      in ANC's #26, #32, #25, ...

........................................................................
.............................. CYCLE    3 ..............................
........................................................................
   1    -87.1141673 -0.871142E+02  0.162E-01    0.23       0.0  T
   2    -86.7593590  0.354808E+00  0.157E+00    0.18       1.0  T
   3    -87.1160440 -0.356685E+00  0.113E-01    0.18       1.0  T
   4    -87.1163998 -0.355792E-03  0.912E-02    0.17       1.0  T
   5    -87.1170425 -0.642714E-03  0.577E-02    0.15       1.0  T
   6    -87.1174927 -0.450215E-03  0.197E-03    0.13       7.5  T
   7    -87.1174924  0.322582E-06  0.179E-03    0.13       8.3  T
   8    -87.1174928 -0.419556E-06  0.485E-04    0.13      30.4  T
   9    -87.1174927  0.103291E-06  0.917E-04    0.13      16.1  T
  10    -87.1174928 -0.909376E-07  0.420E-04    0.13      35.1  T
  11    -87.1174928 -0.204306E-07  0.172E-04    0.13      85.9  T
  12    -87.1174928 -0.402794E-08  0.185E-05    0.13     796.8  T
     SCC iter.                  ...        0 min,  0.083 sec
     gradient                   ...        0 min,  0.075 sec
 * total energy  :   -86.2951540 Eh     change       -0.5902157E-02 Eh
   gradient norm :     0.0183478 Eh/α   predicted    -0.5853424E-02 (  -0.83%)
   displ. norm   :     0.1940164 α      lambda       -0.1173924E-02
   maximum displ.:     0.0730551 α      in ANC's #26, #15, #10, ...

........................................................................
.............................. CYCLE    4 ..............................
........................................................................
   1    -87.1172848 -0.871173E+02  0.510E-02    0.15       0.0  T
   2    -87.0647373  0.525475E-01  0.600E-01    0.03       1.0  T
   3    -87.1174837 -0.527464E-01  0.327E-02    0.14       1.0  T
   4    -87.1175200 -0.363260E-04  0.265E-02    0.14       1.0  T
   5    -87.1175833 -0.632740E-04  0.143E-02    0.14       1.0  T
   6    -87.1176075 -0.241892E-04  0.512E-03    0.13       2.9  T
   7    -87.1176100 -0.255049E-05  0.279E-03    0.13       5.3  T
   8    -87.1176110 -0.989372E-06  0.860E-04    0.13      17.2  T
   9    -87.1176111 -0.957237E-07  0.188E-04    0.13      78.6  T
  10    -87.1176111 -0.475235E-08  0.534E-05    0.13     276.2  T
     SCC iter.                  ...        0 min,  0.069 sec
     gradient                   ...        0 min,  0.075 sec
 * total energy  :   -86.2959878 Eh     change       -0.8337608E-03 Eh
   gradient norm :     0.0110654 Eh/α   predicted    -0.6090830E-03 ( -26.95%)
   displ. norm   :     0.1798983 α      lambda       -0.5604373E-03
   maximum displ.:     0.0583734 α      in ANC's #15, #2, #16, ...

........................................................................
.............................. CYCLE    5 ..............................
........................................................................
   1    -87.1179832 -0.871180E+02  0.337E-02    0.15       0.0  T
   2    -87.1066623  0.113209E-01  0.280E-01    0.07       1.0  T
   3    -87.1180405 -0.113781E-01  0.248E-02    0.14       1.0  T
   4    -87.1180776 -0.371022E-04  0.166E-02    0.14       1.0  T
   5    -87.1181043 -0.267434E-04  0.707E-03    0.14       2.1  T
   6    -87.1181105 -0.618325E-05  0.128E-03    0.13      11.5  T
   7    -87.1181107 -0.192341E-06  0.404E-04    0.13      36.5  T
   8    -87.1181107 -0.181452E-07  0.165E-04    0.13      89.5  T
   9    -87.1181107 -0.327235E-08  0.188E-05    0.13     784.6  T
     SCC iter.                  ...        0 min,  0.063 sec
     gradient                   ...        0 min,  0.073 sec
 * total energy  :   -86.2963286 Eh     change       -0.3408817E-03 Eh
   gradient norm :     0.0045727 Eh/α   predicted    -0.2893002E-03 ( -15.13%)
   displ. norm   :     0.0948001 α      lambda       -0.1042181E-03
   maximum displ.:     0.0521100 α      in ANC's #2, #16, #6, ...

........................................................................
.............................. CYCLE    6 ..............................
........................................................................
   1    -87.1190050 -0.871190E+02  0.135E-02    0.14       0.0  T
   2    -87.1177917  0.121328E-02  0.931E-02    0.10       1.0  T
   3    -87.1190234 -0.123170E-02  0.612E-03    0.14       2.4  T
   4    -87.1190267 -0.333675E-05  0.283E-03    0.13       5.2  T
   5    -87.1190275 -0.738507E-06  0.419E-04    0.13      35.2  T
   6    -87.1190275 -0.930129E-09  0.125E-04    0.13     117.5  T
   7    -87.1190275 -0.173837E-08  0.240E-05    0.13     613.8  T
     SCC iter.                  ...        0 min,  0.036 sec
     gradient                   ...        0 min,  0.051 sec
 * total energy  :   -86.2964077 Eh     change       -0.7904593E-04 Eh
   gradient norm :     0.0031447 Eh/α   predicted    -0.5257895E-04 ( -33.48%)
   displ. norm   :     0.1500370 α      lambda       -0.1150778E-03
   maximum displ.:     0.0905197 α      in ANC's #2, #16, #6, ...

........................................................................
.............................. CYCLE    7 ..............................
........................................................................
   1    -87.1198605 -0.871199E+02  0.130E-02    0.14       0.0  T
   2    -87.1187670  0.109349E-02  0.886E-02    0.11       1.0  T
   3    -87.1198784 -0.111139E-02  0.504E-03    0.14       2.9  T
   4    -87.1198812 -0.281348E-05  0.137E-03    0.13      10.8  T
   5    -87.1198811  0.130106E-06  0.106E-03    0.13      13.9  T
   6    -87.1198812 -0.140688E-06  0.226E-04    0.13      65.1  T
   7    -87.1198812 -0.653061E-08  0.280E-05    0.13     526.8  T
   8    -87.1198812 -0.586198E-10  0.835E-06    0.13    1765.9  T
     SCC iter.                  ...        0 min,  0.049 sec
     gradient                   ...        0 min,  0.047 sec
 * total energy  :   -86.2964938 Eh     change       -0.8613898E-04 Eh
   gradient norm :     0.0034979 Eh/α   predicted    -0.5895165E-04 ( -31.56%)
   displ. norm   :     0.1832883 α      lambda       -0.1058953E-03
   maximum displ.:     0.1151266 α      in ANC's #2, #16, #6, ...

........................................................................
.............................. CYCLE    8 ..............................
........................................................................
   1    -87.1201007 -0.871201E+02  0.849E-03    0.14       0.0  T
   2    -87.1197511  0.349573E-03  0.506E-02    0.12       1.0  T
   3    -87.1201081 -0.356988E-03  0.292E-03    0.14       5.0  T
   4    -87.1201089 -0.742083E-06  0.144E-03    0.13      10.2  T
   5    -87.1201088  0.469939E-07  0.114E-03    0.13      12.9  T
   6    -87.1201090 -0.167411E-06  0.147E-04    0.13     100.4  T
   7    -87.1201090 -0.238863E-08  0.233E-05    0.13     632.2  T
     SCC iter.                  ...        0 min,  0.047 sec
     gradient                   ...        0 min,  0.068 sec
 * total energy  :   -86.2965758 Eh     change       -0.8194851E-04 Eh
   gradient norm :     0.0045253 Eh/α   predicted    -0.5473004E-04 ( -33.21%)
   displ. norm   :     0.2092990 α      lambda       -0.1083021E-03
   maximum displ.:     0.1368805 α      in ANC's #2, #16, #6, ...

........................................................................
.............................. CYCLE    9 ..............................
........................................................................
   1    -87.1199538 -0.871200E+02  0.504E-03    0.14       0.0  T
   2    -87.1199279  0.259298E-04  0.145E-02    0.13       1.0  T
   3    -87.1199514 -0.234837E-04  0.546E-03    0.14       2.7  T
   4    -87.1199552 -0.389596E-05  0.179E-03    0.13       8.2  T
   5    -87.1199554 -0.128742E-06  0.114E-03    0.14      12.9  T
   6    -87.1199555 -0.154118E-06  0.118E-04    0.14     124.9  T
   7    -87.1199555 -0.113066E-08  0.356E-05    0.14     414.7  T
     SCC iter.                  ...        0 min,  0.047 sec
     gradient                   ...        0 min,  0.069 sec
 * total energy  :   -86.2966593 Eh     change       -0.8348450E-04 Eh
   gradient norm :     0.0045254 Eh/α   predicted    -0.5652420E-04 ( -32.29%)
   displ. norm   :     0.1989052 α      lambda       -0.9437228E-04
   maximum displ.:     0.1378281 α      in ANC's #2, #16, #6, ...

........................................................................
.............................. CYCLE   10 ..............................
........................................................................
   1    -87.1198137 -0.871198E+02  0.487E-03    0.13       0.0  T
   2    -87.1197967  0.170060E-04  0.115E-02    0.14       1.3  T
   3    -87.1198076 -0.108773E-04  0.775E-03    0.13       1.9  T
   4    -87.1198151 -0.755971E-05  0.128E-03    0.14      11.5  T
   5    -87.1198151  0.188578E-10  0.860E-04    0.14      17.1  T
   6    -87.1198152 -0.822786E-07  0.798E-05    0.14     184.7  T
   7    -87.1198152 -0.322046E-09  0.235E-05    0.14     627.3  T
     SCC iter.                  ...        0 min,  0.047 sec
     gradient                   ...        0 min,  0.068 sec
 * total energy  :   -86.2967299 Eh     change       -0.7064017E-04 Eh
   gradient norm :     0.0033717 Eh/α   predicted    -0.4905335E-04 ( -30.56%)
   displ. norm   :     0.1651733 α      lambda       -0.6348795E-04
   maximum displ.:     0.1204171 α      in ANC's #2, #16, #3, ...

........................................................................
.............................. CYCLE   11 ..............................
........................................................................
   1    -87.1197354 -0.871197E+02  0.372E-03    0.13       0.0  T
   2    -87.1197141  0.212749E-04  0.127E-02    0.14       1.2  T
   3    -87.1197352 -0.210942E-04  0.322E-03    0.13       4.6  T
   4    -87.1197364 -0.118708E-05  0.762E-04    0.14      19.3  T
   5    -87.1197364  0.415689E-08  0.287E-04    0.14      51.3  T
   6    -87.1197364 -0.596773E-08  0.694E-05    0.14     212.3  T
   7    -87.1197364 -0.153918E-09  0.403E-05    0.14     365.5  T
     SCC iter.                  ...        0 min,  0.046 sec
     gradient                   ...        0 min,  0.069 sec
 * total energy  :   -86.2967786 Eh     change       -0.4871922E-04 Eh
   gradient norm :     0.0023919 Eh/α   predicted    -0.3261203E-04 ( -33.06%)
   displ. norm   :     0.1536810 α      lambda       -0.5096390E-04
   maximum displ.:     0.1149657 α      in ANC's #2, #16, #3, ...

........................................................................
.............................. CYCLE   12 ..............................
........................................................................
   1    -87.1198597 -0.871199E+02  0.303E-03    0.13       0.0  T
   2    -87.1198435  0.161866E-04  0.112E-02    0.14       1.3  T
   3    -87.1198600 -0.164494E-04  0.200E-03    0.13       7.4  T
   4    -87.1198604 -0.386816E-06  0.822E-04    0.14      17.9  T
   5    -87.1198604 -0.400281E-07  0.137E-04    0.14     107.2  T
   6    -87.1198604 -0.194746E-09  0.552E-05    0.14     267.3  T
     SCC iter.                  ...        0 min,  0.039 sec
     gradient                   ...        0 min,  0.070 sec
 * total energy  :   -86.2968188 Eh     change       -0.4016213E-04 Eh
   gradient norm :     0.0020651 Eh/α   predicted    -0.2608595E-04 ( -35.05%)
   displ. norm   :     0.1703068 α      lambda       -0.4649066E-04
   maximum displ.:     0.1261510 α      in ANC's #2, #16, #3, ...

........................................................................
.............................. CYCLE   13 ..............................
........................................................................
   1    -87.1198612 -0.871199E+02  0.281E-03    0.14       0.0  T
   2    -87.1198561  0.510654E-05  0.653E-03    0.14       2.3  T
   3    -87.1198598 -0.370932E-05  0.367E-03    0.13       4.0  T
   4    -87.1198616 -0.176847E-05  0.942E-04    0.14      15.6  T
   5    -87.1198617 -0.683857E-07  0.227E-04    0.14      64.9  T
   6    -87.1198617 -0.488724E-08  0.369E-05    0.14     399.1  T
   7    -87.1198617  0.472085E-10  0.250E-05    0.14     589.6  T
     SCC iter.                  ...        0 min,  0.045 sec
     gradient                   ...        0 min,  0.067 sec
 * total energy  :   -86.2968553 Eh     change       -0.3652048E-04 Eh
   gradient norm :     0.0022209 Eh/α   predicted    -0.2392347E-04 ( -34.49%)
   displ. norm   :     0.1719828 α      lambda       -0.4331535E-04
   maximum displ.:     0.1279402 α      in ANC's #2, #16, #3, ...

........................................................................
.............................. CYCLE   14 ..............................
........................................................................
   1    -87.1204569 -0.871205E+02  0.333E-03    0.13       0.0  T
   2    -87.1204534  0.345239E-05  0.558E-03    0.14       2.6  T
   3    -87.1204527  0.747621E-06  0.587E-03    0.13       2.5  T
   4    -87.1204573 -0.464489E-05  0.100E-03    0.14      14.8  T
   5    -87.1204574 -0.664745E-07  0.150E-04    0.14      98.1  T
   6    -87.1204574 -0.321975E-09  0.462E-05    0.14     319.5  T
     SCC iter.                  ...        0 min,  0.038 sec
     gradient                   ...        0 min,  0.069 sec
 * total energy  :   -86.2968851 Eh     change       -0.2983823E-04 Eh
   gradient norm :     0.0024018 Eh/α   predicted    -0.2230179E-04 ( -25.26%)
   displ. norm   :     0.1963806 α      lambda       -0.3645491E-04
   maximum displ.:     0.1406322 α      in ANC's #2, #16, #3, ...

........................................................................
.............................. CYCLE   15 ..............................
........................................................................
   1    -87.1194871 -0.871195E+02  0.497E-03    0.14       0.0  T
   2    -87.1194646  0.224949E-04  0.131E-02    0.13       1.1  T
   3    -87.1194844 -0.198097E-04  0.545E-03    0.14       2.7  T
   4    -87.1194880 -0.355443E-05  0.957E-04    0.14      15.4  T
   5    -87.1194880 -0.188380E-07  0.209E-04    0.14      70.6  T
   6    -87.1194880 -0.606789E-09  0.691E-05    0.14     213.3  T
   7    -87.1194880 -0.168697E-09  0.173E-05    0.14     850.7  T
     SCC iter.                  ...        0 min,  0.047 sec
     gradient                   ...        0 min,  0.070 sec
 * total energy  :   -86.2968998 Eh     change       -0.1469068E-04 Eh
   gradient norm :     0.0027161 Eh/α   predicted    -0.1893533E-04 (  28.89%)
   displ. norm   :     0.0536892 α      lambda       -0.2516067E-04
   maximum displ.:     0.0332761 α      in ANC's #2, #4, #15, ...

........................................................................
.............................. CYCLE   16 ..............................
........................................................................
   1    -87.1204541 -0.871205E+02  0.270E-03    0.14       0.0  T
   2    -87.1204530  0.118543E-05  0.340E-03    0.13       4.3  T
   3    -87.1204511  0.180525E-05  0.481E-03    0.14       3.1  T
   4    -87.1204542 -0.302736E-05  0.862E-04    0.14      17.1  T
   5    -87.1204542 -0.700137E-07  0.137E-04    0.14     107.7  T
   6    -87.1204542 -0.996550E-09  0.375E-05    0.14     392.8  T
     SCC iter.                  ...        0 min,  0.040 sec
     gradient                   ...        0 min,  0.070 sec
 * total energy  :   -86.2969164 Eh     change       -0.1660104E-04 Eh
   gradient norm :     0.0012969 Eh/α   predicted    -0.1261740E-04 ( -24.00%)
   displ. norm   :     0.1026956 α      lambda       -0.1241470E-04
   maximum displ.:     0.0718589 α      in ANC's #2, #4, #15, ...

........................................................................
.............................. CYCLE   17 ..............................
........................................................................
   1    -87.1209724 -0.871210E+02  0.347E-03    0.14       0.0  T
   2    -87.1209395  0.329147E-04  0.158E-02    0.13       1.0  T
   3    -87.1209731 -0.336478E-04  0.179E-03    0.14       8.2  T
   4    -87.1209734 -0.294449E-06  0.863E-04    0.14      17.1  T
   5    -87.1209735 -0.286123E-07  0.419E-04    0.14      35.2  T
   6    -87.1209735 -0.214754E-07  0.525E-05    0.14     280.6  T
   7    -87.1209735 -0.159659E-09  0.128E-05    0.14    1150.2  T
     SCC iter.                  ...        0 min,  0.026 sec
     gradient                   ...        0 min,  0.063 sec
 * total energy  :   -86.2969279 Eh     change       -0.1151011E-04 Eh
   gradient norm :     0.0015647 Eh/α   predicted    -0.6237230E-05 ( -45.81%)
   displ. norm   :     0.0581272 α      lambda       -0.7316834E-05
   maximum displ.:     0.0379075 α      in ANC's #2, #4, #21, ...

........................................................................
.............................. CYCLE   18 ..............................
........................................................................
   1    -87.1208501 -0.871209E+02  0.267E-03    0.14       0.0  T
   2    -87.1208317  0.184424E-04  0.118E-02    0.13       1.3  T
   3    -87.1208506 -0.188765E-04  0.147E-03    0.14      10.0  T
   4    -87.1208508 -0.234800E-06  0.484E-04    0.14      30.4  T
   5    -87.1208508 -0.720809E-08  0.224E-04    0.14      65.8  T
   6    -87.1208508 -0.501291E-08  0.526E-05    0.14     280.1  T
   7    -87.1208508 -0.283393E-09  0.949E-06    0.14    1554.2  T
     SCC iter.                  ...        0 min,  0.043 sec
     gradient                   ...        0 min,  0.065 sec
 * total energy  :   -86.2969363 Eh     change       -0.8321767E-05 Eh
   gradient norm :     0.0011310 Eh/α   predicted    -0.3664890E-05 ( -55.96%)
   displ. norm   :     0.0775338 α      lambda       -0.8829669E-05
   maximum displ.:     0.0420325 α      in ANC's #2, #4, #21, ...

........................................................................
.............................. CYCLE   19 ..............................
........................................................................
   1    -87.1206480 -0.871206E+02  0.281E-03    0.14       0.0  T
   2    -87.1206333  0.146903E-04  0.105E-02    0.13       1.4  T
   3    -87.1206482 -0.148324E-04  0.212E-03    0.14       7.0  T
   4    -87.1206487 -0.526418E-06  0.463E-04    0.14      31.8  T
   5    -87.1206487 -0.240330E-08  0.163E-04    0.14      90.3  T
   6    -87.1206487 -0.614392E-09  0.548E-05    0.14     269.1  T
     SCC iter.                  ...        0 min,  0.037 sec
     gradient                   ...        0 min,  0.068 sec
 * total energy  :   -86.2969454 Eh     change       -0.9132940E-05 Eh
   gradient norm :     0.0010661 Eh/α   predicted    -0.4429078E-05 ( -51.50%)
   displ. norm   :     0.0974922 α      lambda       -0.8545821E-05
   maximum displ.:     0.0512486 α      in ANC's #2, #4, #21, ...

........................................................................
.............................. CYCLE   20 ..............................
........................................................................
   1    -87.1204572 -0.871205E+02  0.182E-03    0.14       0.0  T
   2    -87.1204550  0.221577E-05  0.415E-03    0.13       3.5  T
   3    -87.1204567 -0.172947E-05  0.231E-03    0.14       6.4  T
   4    -87.1204573 -0.637510E-06  0.439E-04    0.14      33.6  T
   5    -87.1204573 -0.433559E-08  0.149E-04    0.14      99.2  T
   6    -87.1204573 -0.131207E-08  0.399E-05    0.14     369.1  T
     SCC iter.                  ...        0 min,  0.037 sec
     gradient                   ...        0 min,  0.069 sec
 * total energy  :   -86.2969541 Eh     change       -0.8719909E-05 Eh
   gradient norm :     0.0012369 Eh/α   predicted    -0.4294466E-05 ( -50.75%)
   displ. norm   :     0.1112213 α      lambda       -0.9108174E-05
   maximum displ.:     0.0548847 α      in ANC's #2, #4, #1, ...
 * RMSD in coord.:     0.3372376 α      energy gain  -0.2348878E-01 Eh

generating ANC from model Hessian ...
Using Lindh-Hessian (1995)
 Shifting diagonal of input Hessian by   9.867518808254944E-003
 Lowest  eigenvalues of input Hessian
    0.000000    0.000000    0.000000    0.000000    0.000000    0.000000
    0.010000    0.010216    0.010569    0.010726    0.011219    0.012036
    0.012269    0.013901    0.014185    0.014968    0.015084    0.016507
 Highest eigenvalues
    2.014639    2.130133    2.224265    2.359973    2.427531    2.444736
 

........................................................................
.............................. CYCLE   21 ..............................
........................................................................
   1    -87.1203836 -0.871204E+02  0.152E-03    0.14       0.0  T
   2    -87.1203835  0.542112E-07  0.107E-03    0.14      13.8  T
   3    -87.1203818  0.175227E-05  0.371E-03    0.14       4.0  T
   4    -87.1203836 -0.184875E-05  0.376E-04    0.14      39.2  T
   5    -87.1203836 -0.476045E-08  0.160E-04    0.14      92.2  T
   6    -87.1203836 -0.222134E-08  0.342E-05    0.14     430.6  T
     SCC iter.                  ...        0 min,  0.041 sec
     gradient                   ...        0 min,  0.066 sec
 * total energy  :   -86.2969646 Eh     change       -0.1050119E-04 Eh
   gradient norm :     0.0012684 Eh/α   predicted     0.0000000E+00 (-100.00%)
   displ. norm   :     0.0215515 α      lambda       -0.5447229E-05
   maximum displ.:     0.0101981 α      in ANC's #14, #2, #1, ...

........................................................................
.............................. CYCLE   22 ..............................
........................................................................
   1    -87.1207070 -0.871207E+02  0.144E-03    0.14       0.0  T
   2    -87.1207070 -0.590291E-07  0.842E-04    0.14      17.5  T
   3    -87.1207068  0.262096E-06  0.153E-03    0.14       9.7  T
   4    -87.1207070 -0.242869E-06  0.657E-04    0.14      22.4  T
   5    -87.1207071 -0.435717E-07  0.131E-04    0.14     112.9  T
   6    -87.1207071 -0.127351E-08  0.231E-05    0.14     638.6  T
     SCC iter.                  ...        0 min,  0.039 sec
     gradient                   ...        0 min,  0.059 sec
 * total energy  :   -86.2969712 Eh     change       -0.6561404E-05 Eh
   gradient norm :     0.0004896 Eh/α   predicted    -0.2804436E-05 ( -57.26%)
   displ. norm   :     0.0590488 α      lambda       -0.8848547E-05
   maximum displ.:     0.0266528 α      in ANC's #14, #1, #2, ...

........................................................................
.............................. CYCLE   23 ..............................
........................................................................
   1    -87.1208133 -0.871208E+02  0.248E-03    0.14       0.0  T
   2    -87.1208061  0.723303E-05  0.746E-03    0.14       2.0  T
   3    -87.1208129 -0.685386E-05  0.266E-03    0.14       5.5  T
   4    -87.1208138 -0.844093E-06  0.515E-04    0.14      28.6  T
   5    -87.1208138  0.160718E-08  0.218E-04    0.14      67.5  T
   6    -87.1208138 -0.300685E-08  0.410E-05    0.14     360.0  T
   7    -87.1208138 -0.103839E-09  0.146E-05    0.14    1012.1  T
     SCC iter.                  ...        0 min,  0.043 sec
     gradient                   ...        0 min,  0.066 sec
 * total energy  :   -86.2969800 Eh     change       -0.8793741E-05 Eh
   gradient norm :     0.0008974 Eh/α   predicted    -0.4431839E-05 ( -49.60%)
   displ. norm   :     0.0569385 α      lambda       -0.4710954E-05
   maximum displ.:     0.0254180 α      in ANC's #1, #2, #14, ...

........................................................................
.............................. CYCLE   24 ..............................
........................................................................
   1    -87.1207606 -0.871208E+02  0.144E-03    0.14       0.0  T
   2    -87.1207541  0.645770E-05  0.693E-03    0.14       2.1  T
   3    -87.1207608 -0.667150E-05  0.453E-04    0.14      32.6  T
   4    -87.1207608 -0.114154E-07  0.178E-04    0.14      82.7  T
   5    -87.1207608 -0.329266E-10  0.692E-05    0.14     213.0  T
     SCC iter.                  ...        0 min,  0.032 sec
     gradient                   ...        0 min,  0.066 sec
 * total energy  :   -86.2969854 Eh     change       -0.5430601E-05 Eh
   gradient norm :     0.0010217 Eh/α   predicted    -0.2429785E-05 ( -55.26%)
   displ. norm   :     0.0960562 α      lambda       -0.7176963E-05
   maximum displ.:     0.0446025 α      in ANC's #1, #2, #14, ...

........................................................................
.............................. CYCLE   25 ..............................
........................................................................
   1    -87.1206308 -0.871206E+02  0.183E-03    0.13       0.0  T
   2    -87.1206195  0.113926E-04  0.922E-03    0.14       1.6  T
   3    -87.1206312 -0.117642E-04  0.397E-04    0.14      37.1  T
   4    -87.1206312 -0.185246E-08  0.166E-04    0.14      88.9  T
   5    -87.1206312 -0.241712E-09  0.651E-05    0.14     226.3  T
     SCC iter.                  ...        0 min,  0.032 sec
     gradient                   ...        0 min,  0.067 sec
 * total energy  :   -86.2969929 Eh     change       -0.7486921E-05 Eh
   gradient norm :     0.0008255 Eh/α   predicted    -0.3604557E-05 ( -51.86%)
   displ. norm   :     0.1107065 α      lambda       -0.7694559E-05
   maximum displ.:     0.0533132 α      in ANC's #1, #2, #4, ...

........................................................................
.............................. CYCLE   26 ..............................
........................................................................
   1    -87.1204570 -0.871205E+02  0.138E-03    0.14       0.0  T
   2    -87.1204566  0.462619E-06  0.210E-03    0.14       7.0  T
   3    -87.1204563  0.264605E-06  0.242E-03    0.13       6.1  T
   4    -87.1204571 -0.788494E-06  0.446E-04    0.14      33.0  T
   5    -87.1204571 -0.150161E-07  0.853E-05    0.14     172.9  T
   6    -87.1204571 -0.749907E-10  0.263E-05    0.14     560.9  T
     SCC iter.                  ...        0 min,  0.039 sec
     gradient                   ...        0 min,  0.068 sec
 * total energy  :   -86.2970012 Eh     change       -0.8315387E-05 Eh
   gradient norm :     0.0007152 Eh/α   predicted    -0.3868543E-05 ( -53.48%)
   displ. norm   :     0.1130075 α      lambda       -0.7556812E-05
   maximum displ.:     0.0560902 α      in ANC's #1, #2, #4, ...

........................................................................
.............................. CYCLE   27 ..............................
........................................................................
   1    -87.1204606 -0.871205E+02  0.257E-03    0.14       0.0  T
   2    -87.1204390  0.216499E-04  0.126E-02    0.13       1.2  T
   3    -87.1204613 -0.222686E-04  0.941E-04    0.14      15.7  T
   4    -87.1204613 -0.657818E-07  0.344E-04    0.14      42.8  T
   5    -87.1204613 -0.278681E-08  0.866E-05    0.14     170.2  T
   6    -87.1204613 -0.393214E-10  0.298E-05    0.14     494.3  T
     SCC iter.                  ...        0 min,  0.039 sec
     gradient                   ...        0 min,  0.067 sec
 * total energy  :   -86.2970100 Eh     change       -0.8798739E-05 Eh
   gradient norm :     0.0009026 Eh/α   predicted    -0.3801485E-05 ( -56.80%)
   displ. norm   :     0.1189327 α      lambda       -0.7945194E-05
   maximum displ.:     0.0605646 α      in ANC's #1, #2, #4, ...

........................................................................
.............................. CYCLE   28 ..............................
........................................................................
   1    -87.1205467 -0.871205E+02  0.413E-03    0.14       0.0  T
   2    -87.1204643  0.824327E-04  0.246E-02    0.13       1.0  T
   3    -87.1205489 -0.846168E-04  0.680E-04    0.14      21.7  T
   4    -87.1205489 -0.118685E-07  0.313E-04    0.14      47.1  T
   5    -87.1205489 -0.502624E-09  0.925E-05    0.14     159.5  T
   6    -87.1205489 -0.251688E-09  0.316E-05    0.14     466.1  T
     SCC iter.                  ...        0 min,  0.039 sec
     gradient                   ...        0 min,  0.067 sec
 * total energy  :   -86.2970190 Eh     change       -0.9037226E-05 Eh
   gradient norm :     0.0008846 Eh/α   predicted    -0.4001363E-05 ( -55.72%)
   displ. norm   :     0.1241683 α      lambda       -0.6778837E-05
   maximum displ.:     0.0644810 α      in ANC's #1, #2, #4, ...

........................................................................
.............................. CYCLE   29 ..............................
........................................................................
   1    -87.1206029 -0.871206E+02  0.394E-03    0.14       0.0  T
   2    -87.1205266  0.763614E-04  0.236E-02    0.13       1.0  T
   3    -87.1206049 -0.783703E-04  0.590E-04    0.14      25.0  T
   4    -87.1206049 -0.198349E-08  0.269E-04    0.14      54.8  T
   5    -87.1206049 -0.797925E-09  0.763E-05    0.14     193.1  T
   6    -87.1206049 -0.938769E-10  0.294E-05    0.14     501.5  T
     SCC iter.                  ...        0 min,  0.039 sec
     gradient                   ...        0 min,  0.067 sec
 * total energy  :   -86.2970269 Eh     change       -0.7840699E-05 Eh
   gradient norm :     0.0006735 Eh/α   predicted    -0.3414094E-05 ( -56.46%)
   displ. norm   :     0.1345557 α      lambda       -0.6825589E-05
   maximum displ.:     0.0709413 α      in ANC's #1, #2, #4, ...

........................................................................
.............................. CYCLE   30 ..............................
........................................................................
   1    -87.1206940 -0.871207E+02  0.306E-03    0.14       0.0  T
   2    -87.1206551  0.388786E-04  0.169E-02    0.13       1.0  T
   3    -87.1206951 -0.399559E-04  0.648E-04    0.14      22.8  T
   4    -87.1206951 -0.599573E-08  0.247E-04    0.14      59.6  T
   5    -87.1206951 -0.664457E-09  0.878E-05    0.14     167.9  T
   6    -87.1206951 -0.689795E-10  0.322E-05    0.14     457.9  T
     SCC iter.                  ...        0 min,  0.039 sec
     gradient                   ...        0 min,  0.067 sec
 * total energy  :   -86.2970349 Eh     change       -0.7976407E-05 Eh
   gradient norm :     0.0006091 Eh/α   predicted    -0.3444946E-05 ( -56.81%)
   displ. norm   :     0.1579754 α      lambda       -0.7946787E-05
   maximum displ.:     0.0837063 α      in ANC's #1, #2, #4, ...

........................................................................
.............................. CYCLE   31 ..............................
........................................................................
   1    -87.1207757 -0.871208E+02  0.197E-03    0.14       0.0  T
   2    -87.1207702  0.554517E-05  0.646E-03    0.13       2.3  T
   3    -87.1207757 -0.555991E-05  0.136E-03    0.14      10.8  T
   4    -87.1207759 -0.193705E-06  0.298E-04    0.14      49.6  T
   5    -87.1207759 -0.104654E-08  0.103E-04    0.14     142.7  T
   6    -87.1207759 -0.401954E-09  0.326E-05    0.14     452.1  T
     SCC iter.                  ...        0 min,  0.038 sec
     gradient                   ...        0 min,  0.068 sec
 * total energy  :   -86.2970443 Eh     change       -0.9480944E-05 Eh
   gradient norm :     0.0007885 Eh/α   predicted    -0.4019804E-05 ( -57.60%)
   displ. norm   :     0.2131739 α      lambda       -0.9921197E-05
   maximum displ.:     0.1135030 α      in ANC's #1, #2, #4, ...

........................................................................
.............................. CYCLE   32 ..............................
........................................................................
   1    -87.1206415 -0.871206E+02  0.227E-03    0.14       0.0  T
   2    -87.1206381  0.344987E-05  0.520E-03    0.14       2.8  T
   3    -87.1206411 -0.297348E-05  0.230E-03    0.14       6.4  T
   4    -87.1206417 -0.653141E-06  0.387E-04    0.14      38.1  T
   5    -87.1206417 -0.369950E-08  0.125E-04    0.14     118.3  T
   6    -87.1206417 -0.746837E-09  0.303E-05    0.14     485.9  T
     SCC iter.                  ...        0 min,  0.037 sec
     gradient                   ...        0 min,  0.068 sec
 * total energy  :   -86.2970554 Eh     change       -0.1105703E-04 Eh
   gradient norm :     0.0009546 Eh/α   predicted    -0.5064604E-05 ( -54.20%)
   displ. norm   :     0.1945511 α      lambda       -0.8307676E-05
   maximum displ.:     0.1043592 α      in ANC's #1, #2, #4, ...

........................................................................
.............................. CYCLE   33 ..............................
........................................................................
   1    -87.1207393 -0.871207E+02  0.271E-03    0.14       0.0  T
   2    -87.1207190  0.202614E-04  0.123E-02    0.14       1.2  T
   3    -87.1207399 -0.209378E-04  0.764E-04    0.14      19.3  T
   4    -87.1207400 -0.118112E-07  0.273E-04    0.14      54.0  T
   5    -87.1207400 -0.808626E-09  0.893E-05    0.14     165.2  T
   6    -87.1207400 -0.411646E-09  0.244E-05    0.14     603.1  T
     SCC iter.                  ...        0 min,  0.035 sec
     gradient                   ...        0 min,  0.041 sec
 * total energy  :   -86.2970640 Eh     change       -0.8561235E-05 Eh
   gradient norm :     0.0007906 Eh/α   predicted    -0.4224242E-05 ( -50.66%)
   displ. norm   :     0.1396290 α      lambda       -0.5179940E-05
   maximum displ.:     0.0758613 α      in ANC's #1, #2, #3, ...

........................................................................
.............................. CYCLE   34 ..............................
........................................................................
   1    -87.1206335 -0.871206E+02  0.218E-03    0.14       0.0  T
   2    -87.1206186  0.148749E-04  0.106E-02    0.14       1.4  T
   3    -87.1206340 -0.153614E-04  0.593E-04    0.14      24.9  T
   4    -87.1206340 -0.518089E-08  0.280E-04    0.14      52.7  T
   5    -87.1206340 -0.395038E-08  0.701E-05    0.14     210.3  T
   6    -87.1206340 -0.121688E-09  0.234E-05    0.14     631.0  T
     SCC iter.                  ...        0 min,  0.036 sec
     gradient                   ...        0 min,  0.065 sec
 * total energy  :   -86.2970697 Eh     change       -0.5720158E-05 Eh
   gradient norm :     0.0006539 Eh/α   predicted    -0.2613360E-05 ( -54.31%)
   displ. norm   :     0.1091719 α      lambda       -0.6500592E-05
   maximum displ.:     0.0577650 α      in ANC's #1, #3, #2, ...

........................................................................
.............................. CYCLE   35 ..............................
........................................................................
   1    -87.1211547 -0.871212E+02  0.182E-03    0.14       0.0  T
   2    -87.1211496  0.518402E-05  0.624E-03    0.14       2.4  T
   3    -87.1211547 -0.510958E-05  0.159E-03    0.14       9.3  T
   4    -87.1211550 -0.285871E-06  0.362E-04    0.14      40.7  T
   5    -87.1211550 -0.905473E-09  0.126E-04    0.14     116.8  T
   6    -87.1211550 -0.109016E-08  0.296E-05    0.14     497.4  T
     SCC iter.                  ...        0 min,  0.036 sec
     gradient                   ...        0 min,  0.065 sec
 * total energy  :   -86.2970757 Eh     change       -0.6037028E-05 Eh
   gradient norm :     0.0008197 Eh/α   predicted    -0.3268896E-05 ( -45.85%)
   displ. norm   :     0.1722309 α      lambda       -0.6826520E-05
   maximum displ.:     0.0937526 α      in ANC's #1, #3, #2, ...

........................................................................
.............................. CYCLE   36 ..............................
........................................................................
   1    -87.1203660 -0.871204E+02  0.225E-03    0.14       0.0  T
   2    -87.1203660 -0.226865E-07  0.135E-03    0.14      10.9  T
   3    -87.1203641  0.192964E-05  0.381E-03    0.13       3.9  T
   4    -87.1203659 -0.180494E-05  0.130E-03    0.14      11.4  T
   5    -87.1203661 -0.197341E-06  0.106E-04    0.14     139.3  T
   6    -87.1203661 -0.244427E-10  0.443E-05    0.14     333.2  T
     SCC iter.                  ...        0 min,  0.036 sec
     gradient                   ...        0 min,  0.065 sec
 * total energy  :   -86.2970816 Eh     change       -0.5895915E-05 Eh
   gradient norm :     0.0012340 Eh/α   predicted    -0.3459019E-05 ( -41.33%)
   displ. norm   :     0.0564097 α      lambda       -0.4605865E-05
   maximum displ.:     0.0297060 α      in ANC's #3, #1, #6, ...

........................................................................
.............................. CYCLE   37 ..............................
........................................................................
   1    -87.1206034 -0.871206E+02  0.268E-03    0.14       0.0  T
   2    -87.1205667  0.366905E-04  0.165E-02    0.13       1.0  T
   3    -87.1206043 -0.376569E-04  0.636E-04    0.14      23.2  T
   4    -87.1206043 -0.104719E-07  0.432E-04    0.14      34.1  T
   5    -87.1206044 -0.143899E-07  0.168E-04    0.14      87.5  T
   6    -87.1206044 -0.322784E-08  0.269E-05    0.14     548.1  T
     SCC iter.                  ...        0 min,  0.021 sec
     gradient                   ...        0 min,  0.054 sec
 * total energy  :   -86.2970873 Eh     change       -0.5677640E-05 Eh
   gradient norm :     0.0009109 Eh/α   predicted    -0.2306691E-05 ( -59.37%)
   displ. norm   :     0.1187843 α      lambda       -0.8420141E-05
   maximum displ.:     0.0697786 α      in ANC's #3, #1, #6, ...

........................................................................
.............................. CYCLE   38 ..............................
........................................................................
   1    -87.1207635 -0.871208E+02  0.538E-03    0.14       0.0  T
   2    -87.1206073  0.156185E-03  0.338E-02    0.12       1.0  T
   3    -87.1207674 -0.160094E-03  0.773E-04    0.14      19.1  T
   4    -87.1207674  0.355827E-07  0.678E-04    0.14      21.7  T
   5    -87.1207674 -0.317586E-07  0.286E-04    0.14      51.5  T
   6    -87.1207674 -0.845596E-08  0.568E-05    0.14     259.6  T
   7    -87.1207674 -0.298854E-09  0.121E-05    0.14    1221.9  T
     SCC iter.                  ...        0 min,  0.040 sec
     gradient                   ...        0 min,  0.054 sec
 * total energy  :   -86.2970958 Eh     change       -0.8524922E-05 Eh
   gradient norm :     0.0004306 Eh/α   predicted    -0.4240879E-05 ( -50.25%)
   displ. norm   :     0.0793204 α      lambda       -0.3461256E-05
   maximum displ.:     0.0501744 α      in ANC's #3, #1, #13, ...

........................................................................
.............................. CYCLE   39 ..............................
........................................................................
   1    -87.1208010 -0.871208E+02  0.175E-03    0.14       0.0  T
   2    -87.1207896  0.113662E-04  0.918E-03    0.13       1.6  T
   3    -87.1208013 -0.117001E-04  0.476E-04    0.14      31.0  T
   4    -87.1208013 -0.776150E-08  0.219E-04    0.14      67.3  T
   5    -87.1208013 -0.989345E-09  0.552E-05    0.14     267.1  T
   6    -87.1208013 -0.533191E-10  0.206E-05    0.14     715.1  T
     SCC iter.                  ...        0 min,  0.031 sec
     gradient                   ...        0 min,  0.056 sec
 * total energy  :   -86.2970998 Eh     change       -0.4005717E-05 Eh
   gradient norm :     0.0004956 Eh/α   predicted    -0.1739663E-05 ( -56.57%)
   displ. norm   :     0.0675053 α      lambda       -0.3489748E-05
   maximum displ.:     0.0452031 α      in ANC's #3, #1, #13, ...

   *** GEOMETRY OPTIMIZATION CONVERGED AFTER 39 ITERATIONS ***

------------------------------------------------------------------------
 total energy gain   :        -0.0236345 Eh      -14.8309 kcal/mol
 total RMSD          :         0.5021501 a0        0.2657 Å
 total power (kW/mol):        -1.5910851 (step)  -11.1857 (real)
------------------------------------------------------------------------

 ANCopt (total)                0 d,  0 h,  0 min,  5.547 sec
 optimizer setup                ...        0 min,  0.001 sec (  0.014%)
 model hessian                  ...        0 min,  0.056 sec (  1.003%)
 ANC generation                 ...        0 min,  0.007 sec (  0.133%)
 coordinate transformation      ...        0 min,  0.001 sec (  0.018%)
 single point calculation       ...        0 min,  5.467 sec ( 98.556%)
 optimization log               ...        0 min,  0.008 sec (  0.149%)
 hessian update                 ...        0 min,  0.001 sec (  0.016%)
 rational function              ...        0 min,  0.004 sec (  0.068%)

================
 final structure:
================
46
 xtb: 6.5.1 (579679a)
C           -6.74705638107983       -2.07552802794245       -0.91737263098345
O           -5.73173056769571       -1.08136650285303       -0.73490421529133
C           -4.62605620624294       -1.46616397220788       -0.11142432222320
O           -4.44081159703936       -2.58659940752181        0.30085221387525
C           -3.61803717336601       -0.36651756788455        0.02878169305003
N           -2.46173452089180       -0.75225209800433        0.63468505161716
C           -1.47766396493235        0.06887230202942        0.83352820613863
C           -0.27619621821674       -0.50603666936016        1.56768398265741
C           -0.21287624821295        0.06844363981122        2.99044687861427
C           -0.39046614545201       -2.03608022966179        1.62960921737520
N            0.93645735350573       -0.18234163876841        0.79766139985126
C            2.18191637758982       -0.41902345269999        1.24750737398007
O            2.51164692940154       -0.85067806156207        2.32641844338756
C            3.19521219549927       -0.04387620497875        0.19421420465379
N            2.88023149458559        0.42170337406159       -1.05638955255857
N            3.96250523126556        0.63602060148705       -1.67215473599093
C            5.07324874620592        0.31571865082699       -0.83532914267114
C            5.91372925023486        1.56795458856461       -0.55021445880083
C            5.90522381201750       -0.82278748824981       -1.43910998938006
O            4.45451985555037       -0.12766823699018        0.37094909132284
N           -1.54548448825577        1.37945392092089        0.45211872789908
C           -0.50676396164391        2.39359266150775        0.63830355367147
C           -2.67691816615153        1.88162623652835       -0.17619683088671
O           -2.75236827802114        3.04991977115915       -0.52876421234030
C           -3.76417639502717        0.93338147528384       -0.38676277789706
O           -4.84624086134596        1.42210452457776       -0.98358050617262
H           -7.11151205262550       -2.41887796006492        0.05355448591119
H           -7.54910660643494       -1.59985411634897       -1.47804594208288
H           -6.34292439252908       -2.92406101558276       -1.47428243072871
H            0.03928902285076        1.12532336623841        2.97959809338470
H            0.53181819842782       -0.46380945814796        3.57843691044084
H           -1.18782469931701       -0.05754067397138        3.45959411808614
H           -1.28763878901131       -2.30885098569435        2.18254715063848
H           -0.45357718279153       -2.44718312883207        0.62412846358540
H            0.48294013018161       -2.44463850335165        2.13355348785907
H            0.82481699760603        0.07654767541797       -0.17038696303290
H            5.27931260117991        2.32992313858616       -0.10303924299251
H            6.32833847928529        1.93230357480887       -1.48689601415423
H            6.71455868487611        1.30339480900290        0.13642118337400
H            6.32802415510312       -0.48558659598679       -2.38207163480096
H            6.70042231097398       -1.08187398299124       -0.74394205100912
H            5.26423190162373       -1.68564371987459       -1.60635940345818
H            0.38195860944201        1.96504530816559        1.08148083166743
H           -0.26942906818421        2.81574521088119       -0.33792300771769
H           -0.90712002521208        3.18052896462696        1.27799157296778
H           -4.70668734772183        2.36723290504619       -1.18352827083733
 
 Bond Distances (Angstroems)
 ---------------------------
C1-O2=1.4327         C1-H27=1.0924        C1-H28=1.0881        C1-H29=1.0925        O2-C1=1.4327         O2-C3=1.3264         
C3-O2=1.3264         C3-O4=1.2082         C3-C5=1.4983         O4-C3=1.2082         C5-C3=1.4983         C5-N6=1.3612         
C5-C25=1.3725        N6-C5=1.3612         N6-C7=1.2970         C7-N6=1.2970         C7-C8=1.5209         C7-N21=1.3666        
C8-C7=1.5209         C8-C9=1.5357         C8-C10=1.5356        C8-N11=1.4725        C9-C8=1.5357         C9-H30=1.0866        
C9-H31=1.0879        C9-H32=1.0893        C10-C8=1.5356        C10-H33=1.0886       C10-H34=1.0881       C10-H35=1.0880       
N11-C8=1.4725        N11-C12=1.3452       N11-H36=1.0083       C12-N11=1.3452       C12-O13=1.2079       C12-C14=1.5090       
O13-C12=1.2079       C14-C12=1.5090       C14-N15=1.3711       C14-O20=1.2744       N15-C14=1.3711       N15-N16=1.2635       
N16-N15=1.2635       N16-C17=1.4271       C17-N16=1.4271       C17-C18=1.5349       C17-C19=1.5339       C17-O20=1.4264       
C18-C17=1.5349       C18-H37=1.0877       C18-H38=1.0872       C18-H39=1.0876       C19-C17=1.5339       C19-H40=1.0870       
C19-H41=1.0875       C19-H42=1.0878       O20-C14=1.2744       O20-C17=1.4264       N21-C7=1.3666        N21-C22=1.4636       
N21-C23=1.3882       C22-N21=1.4636       C22-H43=1.0816       C22-H44=1.0898       C22-H45=1.0903       C23-N21=1.3882       
C23-O24=1.2227       C23-C25=1.4580       O24-C23=1.2227       C25-C5=1.3725        C25-C23=1.4580       C25-O26=1.3289       
O26-C25=1.3289       O26-H46=0.9761       H27-C1=1.0924        H28-C1=1.0881        H29-C1=1.0925        H30-C9=1.0866        
H31-C9=1.0879        H32-C9=1.0893        H33-C10=1.0886       H34-C10=1.0881       H35-C10=1.0880       H36-N11=1.0083       
H37-C18=1.0877       H38-C18=1.0872       H39-C18=1.0876       H40-C19=1.0870       H41-C19=1.0875       H42-C19=1.0878       
H43-C22=1.0816       H44-C22=1.0898       H45-C22=1.0903       H46-O26=0.9761       
 C  H  Rav=1.0882 sigma=0.0023  Rmin=1.0816  Rmax=1.0925    18
 C  C  Rav=1.4998 sigma=0.0510  Rmin=1.3725  Rmax=1.5357     9
 N  H  Rav=1.0083 sigma=0.0000  Rmin=1.0083  Rmax=1.0083     1
 N  C  Rav=1.3881 sigma=0.0537  Rmin=1.2970  Rmax=1.4725     9
 N  N  Rav=1.2635 sigma=0.0000  Rmin=1.2635  Rmax=1.2635     1
 O  H  Rav=0.9761 sigma=0.0000  Rmin=0.9761  Rmax=0.9761     1
 O  C  Rav=1.3034 sigma=0.0856  Rmin=1.2079  Rmax=1.4327     8
 
 selected bond angles (degree)
 --------------------
H27-C1-O2=109.96               H28-C1-O2=106.54               H28-C1-H27=110.45              H29-C1-O2=109.98               
H29-C1-H27=109.41              H29-C1-H28=110.46              C3-O2-C1=116.70                O4-C3-O2=123.87                
C5-C3-O2=113.07                C5-C3-O4=123.06                N6-C5-C3=113.90                C25-C5-C3=126.52               
C25-C5-N6=119.58               C7-N6-C5=122.23                C8-C7-N6=115.73                N21-C7-N6=121.78               
N21-C7-C8=122.44               C9-C8-C7=109.78                C10-C8-C7=109.71               C10-C8-C9=109.78               
N11-C8-C7=108.36               N11-C8-C9=111.61               N11-C8-C10=107.54              H30-C9-C8=111.36               
H31-C9-C8=110.24               H31-C9-H30=108.81              H32-C9-C8=108.59               H32-C9-H30=108.94              
H32-C9-H31=108.86              H33-C10-C8=109.36              H34-C10-C8=110.09              H34-C10-H33=109.08             
H35-C10-C8=109.46              H35-C10-H33=109.40             H35-C10-H34=109.43             
 
 selected dihedral angles (degree)
 ---------------------------------
C3-O2-C1-H27= 62.77           C3-O2-C1-H28=182.48           C3-O2-C1-H29=302.22           O4-C3-O2-C1=359.89            
C5-C3-O2-C1=179.70            N6-C5-C3-O2=181.66            N6-C5-C3-O4=  1.47            C25-C5-C3-O2=  1.62           
C25-C5-C3-O4=181.43           C7-N6-C5-C3=179.71            C7-N6-C5-C25=359.75           C8-C7-N6-C5=177.89            
N21-C7-N6-C5=  0.40           C9-C8-C7-N6=251.91            C9-C8-C7-N21= 69.38           C10-C8-C7-N6= 12.63           
C10-C8-C7-N21=190.11          N11-C8-C7-N6=129.78           N11-C8-C7-N21=307.26          H30-C9-C8-C7=290.88           
H30-C9-C8-C10=170.20          H30-C9-C8-N11= 51.05          H31-C9-C8-C7=170.01           H31-C9-C8-C10= 49.33          
H31-C9-C8-N11=290.18          H32-C9-C8-C7= 50.83           H32-C9-C8-C10=290.14          H32-C9-C8-N11=171.00          
H33-C10-C8-C7=298.44          H33-C10-C8-C9= 59.16          H33-C10-C8-N11=180.78         H34-C10-C8-C7= 58.27          
H34-C10-C8-C9=178.99          H34-C10-C8-N11=300.61         H35-C10-C8-C7=178.60          H35-C10-C8-C9=299.32          
H35-C10-C8-N11= 60.94         
           -------------------------------------------------
          |                Final Singlepoint                |
           -------------------------------------------------

          ...................................................
          :                      SETUP                      :
          :.................................................:
          :  # basis functions                 144          :
          :  # atomic orbitals                 144          :
          :  # shells                           92          :
          :  # electrons                       140          :
          :  # halogen bonds                     0          :
          :  max. iterations                   250          :
          :  Hamiltonian                  GFN1-xTB          :
          :  restarted?                      false          :
          :  GBSA solvation                   true          :
          :  PC potential                    false          :
          :  electronic temp.          300.0000000     K    :
          :  accuracy                    1.0000000          :
          :  -> integral cutoff          0.2500000E+02      :
          :  -> integral neglect         0.1000000E-07      :
          :  -> SCF convergence          0.1000000E-05 Eh   :
          :  -> wf. convergence          0.2000000E-04 e    :
          :  Broyden damping             0.4000000          :
          ...................................................

 iter      E             dE          RMSdq      gap      omega  full diag
   1    -87.1208013 -0.871208E+02  0.697E-06    0.14       0.0  T
   2    -87.1208013  0.185025E-10  0.124E-05    0.14    1190.6  T
   3    -87.1208013 -0.599698E-11  0.104E-05    0.14    1421.1  T

   *** convergence criteria satisfied after 3 iterations ***

         #    Occupation            Energy/Eh            Energy/eV
      -------------------------------------------------------------
         1        2.0000           -0.9335834             -25.4041
       ...           ...                  ...                  ...
        64        2.0000           -0.5016366             -13.6502
        65        2.0000           -0.4987394             -13.5714
        66        2.0000           -0.4948569             -13.4657
        67        2.0000           -0.4902386             -13.3401
        68        2.0000           -0.4771166             -12.9830
        69        2.0000           -0.4653722             -12.6634
        70        1.8664           -0.4471217             -12.1668 (HOMO)
        71        0.1336           -0.4421107             -12.0304 (LUMO)
        72                         -0.3612382              -9.8298
        73                         -0.3395697              -9.2402
        74                         -0.3052461              -8.3062
        75                         -0.2595614              -7.0630
       ...                                ...                  ...
       144                          0.7240880              19.7034
      -------------------------------------------------------------
                  HL-Gap            0.0050110 Eh            0.1364 eV
             Fermi-level           -0.4446162 Eh          -12.0986 eV

 SCC (total)                   0 d,  0 h,  0 min,  0.100 sec
 SCC setup                      ...        0 min,  0.002 sec (  1.811%)
 Dispersion                     ...        0 min,  0.000 sec (  0.270%)
 classical contributions        ...        0 min,  0.000 sec (  0.104%)
 integral evaluation            ...        0 min,  0.027 sec ( 27.444%)
 iterations                     ...        0 min,  0.012 sec ( 11.666%)
 molecular gradient             ...        0 min,  0.058 sec ( 57.953%)
 printout                       ...        0 min,  0.001 sec (  0.736%)

         :::::::::::::::::::::::::::::::::::::::::::::::::::::
         ::                     SUMMARY                     ::
         :::::::::::::::::::::::::::::::::::::::::::::::::::::
         :: total energy             -86.297099815230 Eh    ::
         :: total w/o Gsasa/hb       -86.270978769497 Eh    ::
         :: gradient norm              0.000495800531 Eh/a0 ::
         :: HOMO-LUMO gap              0.136355050814 eV    ::
         ::.................................................::
         :: SCC energy               -87.120801294399 Eh    ::
         :: -> electrostatic           0.415171635539 Eh    ::
         :: -> Gsolv                  -0.113603155907 Eh    ::
         ::    -> Gelec               -0.087482110174 Eh    ::
         ::    -> Gsasa               -0.025385062763 Eh    ::
         ::    -> Ghb                 -0.008360261974 Eh    ::
         ::    -> Gshift               0.007624279005 Eh    ::
         :: repulsion energy           0.852530252981 Eh    ::
         :: dispersion energy         -0.028828773811 Eh    ::
         :: halogen bond corr.         0.000000000000 Eh    ::
         :: add. restraining           0.000000000000 Eh    ::
         :: total charge               1.000000000650 e     ::
         :::::::::::::::::::::::::::::::::::::::::::::::::::::

           -------------------------------------------------
          |                Property Printout                |
           -------------------------------------------------

    * Orbital Energies and Occupations

         #    Occupation            Energy/Eh            Energy/eV
      -------------------------------------------------------------
         1        2.0000           -0.9335834             -25.4041
       ...           ...                  ...                  ...
        58        2.0000           -0.5329440             -14.5021
        59        2.0000           -0.5289132             -14.3925
        60        2.0000           -0.5209063             -14.1746
        61        2.0000           -0.5207904             -14.1714
        62        2.0000           -0.5147539             -14.0072
        63        2.0000           -0.5042472             -13.7213
        64        2.0000           -0.5016366             -13.6502
        65        2.0000           -0.4987394             -13.5714
        66        2.0000           -0.4948569             -13.4657
        67        2.0000           -0.4902386             -13.3401
        68        2.0000           -0.4771166             -12.9830
        69        2.0000           -0.4653722             -12.6634
        70        1.8664           -0.4471217             -12.1668 (HOMO)
        71        0.1336           -0.4421107             -12.0304 (LUMO)
        72                         -0.3612382              -9.8298
        73                         -0.3395697              -9.2402
        74                         -0.3052461              -8.3062
        75                         -0.2595614              -7.0630
        76                         -0.2546332              -6.9289
        77                         -0.1755289              -4.7764
        78                         -0.1617708              -4.4020
        79                         -0.1564553              -4.2574
        80                         -0.1559727              -4.2442
        81                         -0.1423911              -3.8747
       ...                                ...                  ...
       144                          0.7240880              19.7034
      -------------------------------------------------------------
                  HL-Gap            0.0050110 Eh            0.1364 eV
             Fermi-level           -0.4446162 Eh          -12.0986 eV

  Mulliken/CM5 charges         n(s)   n(p)   n(d)
     1C     0.16218  0.04133   0.982  2.856  0.000
     2O    -0.40631 -0.49053   1.684  4.723  0.000
     3C     0.58101  0.64868   0.964  2.455  0.000
     4O    -0.55316 -0.59739   1.723  4.830  0.000
     5C     0.09415  0.17315   1.045  2.861  0.000
     6N    -0.34799 -0.53683   1.520  3.828  0.000
     7C     0.27075  0.42283   1.020  2.710  0.000
     8C     0.15318  0.19220   1.071  2.776  0.000
     9C    -0.10798 -0.24865   1.023  3.085  0.000
    10C    -0.09842 -0.23596   1.022  3.076  0.000
    11N    -0.31529 -0.67472   1.445  3.870  0.000
    12C     0.48722  0.59655   0.962  2.551  0.000
    13O    -0.51770 -0.56421   1.716  4.802  0.000
    14C     0.43766  0.55423   1.063  2.499  0.000
    15N    -0.14063 -0.23895   1.550  3.591  0.000
    16N    -0.06588 -0.16405   1.580  3.486  0.000
    17C     0.34148  0.41113   1.056  2.603  0.000
    18C    -0.08781 -0.22622   1.032  3.055  0.000
    19C    -0.08836 -0.22685   1.032  3.057  0.000
    20O    -0.28333 -0.34401   1.683  4.600  0.000
    21N    -0.20370 -0.45440   1.455  3.749  0.000
    22C     0.04329 -0.04479   0.997  2.960  0.000
    23C     0.43768  0.53910   0.989  2.573  0.000
    24O    -0.55992 -0.61063   1.727  4.833  0.000
    25C     0.24506  0.27972   1.027  2.728  0.000
    26O    -0.48608 -0.67832   1.693  4.793  0.000
    27H     0.05591  0.11730   0.944  0.000  0.000
    28H     0.05864  0.11898   0.941  0.000  0.000
    29H     0.05582  0.11768   0.944  0.000  0.000
    30H     0.05695  0.11525   0.943  0.000  0.000
    31H     0.07667  0.13703   0.923  0.000  0.000
    32H     0.06123  0.11644   0.939  0.000  0.000
    33H     0.06214  0.12088   0.938  0.000  0.000
    34H     0.05442  0.11381   0.946  0.000  0.000
    35H     0.06411  0.12352   0.936  0.000  0.000
    36H     0.27269  0.48229   0.727  0.000  0.000
    37H     0.08843  0.14692   0.912  0.000  0.000
    38H     0.08939  0.14515   0.911  0.000  0.000
    39H     0.09338  0.14873   0.907  0.000  0.000
    40H     0.08905  0.14478   0.911  0.000  0.000
    41H     0.09310  0.14847   0.907  0.000  0.000
    42H     0.08781  0.14613   0.912  0.000  0.000
    43H     0.05709  0.13123   0.943  0.000  0.000
    44H     0.08330  0.15011   0.917  0.000  0.000
    45H     0.08744  0.15288   0.913  0.000  0.000
    46H     0.42134  0.60001   0.579  0.000  0.000

Wiberg/Mayer (AO) data.
largest (>0.10) Wiberg bond orders for each atom

 ---------------------------------------------------------------------------
     #   Z sym  total        # sym  WBO       # sym  WBO       # sym  WBO
 ---------------------------------------------------------------------------
     1   6 C    3.865 --    28 H    0.986    29 H    0.979    27 H    0.979
                             2 O    0.891
     2   8 O    2.211 --     3 C    1.128     1 C    0.891     4 O    0.139
     3   6 C    3.854 --     4 O    1.665     2 O    1.128     5 C    0.986
     4   8 O    1.926 --     3 C    1.665     2 O    0.139
     5   6 C    3.929 --    25 C    1.453     6 N    1.218     3 C    0.986
     6   7 N    3.000 --     7 C    1.537     5 C    1.218
     7   6 C    3.906 --     6 N    1.537    21 N    1.192     8 C    0.978
     8   6 C    3.909 --     7 C    0.978    10 C    0.978     9 C    0.975
                            11 N    0.906
     9   6 C    3.977 --    32 H    0.982    30 H    0.979    31 H    0.976
                             8 C    0.975
    10   6 C    3.976 --    34 H    0.984    35 H    0.982    33 H    0.979
                             8 C    0.978
    11   7 N    3.392 --    12 C    1.265     8 C    0.906    36 H    0.886
                            13 O    0.209
    12   6 C    3.923 --    13 O    1.628    11 N    1.265    14 C    0.946
    13   8 O    1.961 --    12 C    1.628    11 N    0.209
    14   6 C    3.738 --    20 O    1.334    15 N    1.211    12 C    0.946
    15   7 N    3.027 --    16 N    1.654    14 C    1.211
    16   7 N    2.904 --    15 N    1.654    17 C    1.052
    17   6 C    3.818 --    16 N    1.052    19 C    0.906    18 C    0.903
                            20 O    0.868
    18   6 C    3.936 --    37 H    0.979    38 H    0.977    39 H    0.976
                            17 C    0.903
    19   6 C    3.937 --    42 H    0.979    40 H    0.978    41 H    0.976
                            17 C    0.906
    20   8 O    2.370 --    14 C    1.334    17 C    0.868
    21   7 N    3.499 --     7 C    1.192    23 C    1.113    22 C    0.924
                            24 O    0.124
    22   6 C    3.911 --    43 H    0.978    44 H    0.972    45 H    0.971
                            21 N    0.924
    23   6 C    3.899 --    24 O    1.580    21 N    1.113    25 C    1.065
    24   8 O    1.887 --    23 C    1.580    21 N    0.124
    25   6 C    3.867 --     5 C    1.453    26 O    1.134    23 C    1.065
    26   8 O    2.085 --    25 C    1.134    46 H    0.797
    27   1 H    1.005 --     1 C    0.979
    28   1 H    1.010 --     1 C    0.986
    29   1 H    1.006 --     1 C    0.979
    30   1 H    0.998 --     9 C    0.979
    31   1 H    1.005 --     9 C    0.976
    32   1 H    0.998 --     9 C    0.982
    33   1 H    1.006 --    10 C    0.979
    34   1 H    1.004 --    10 C    0.984
    35   1 H    1.001 --    10 C    0.982
    36   1 H    0.938 --    11 N    0.886
    37   1 H    0.991 --    18 C    0.979
    38   1 H    0.992 --    18 C    0.977
    39   1 H    0.991 --    18 C    0.976
    40   1 H    0.992 --    19 C    0.978
    41   1 H    0.991 --    19 C    0.976
    42   1 H    0.991 --    19 C    0.979
    43   1 H    1.005 --    22 C    0.978
    44   1 H    1.000 --    22 C    0.972
    45   1 H    0.997 --    22 C    0.971
    46   1 H    0.836 --    26 O    0.797
 ---------------------------------------------------------------------------

Topologies differ in total number of bonds
Writing topology from bond orders to xtbtopo.mol

 dipole moment from electron density (au)
     X       Y       Z   
   5.9148   1.9886  -1.3681  total (Debye):   16.238

           -------------------------------------------------
          |                Geometry Summary                 |
           -------------------------------------------------

      molecular mass/u    :      366.3497991
   center of mass at/Å    :       -0.3691906       0.0309726       0.1730578
  moments of inertia/u·Å² :        0.1207496E+04   0.5617509E+04   0.5945166E+04
rotational constants/cm⁻¹ :        0.1396082E-01   0.3000909E-02   0.2835519E-02

 * 43 selected distances

     #   Z          #   Z                                           value/Å
     1   6 C        2   8 O                                       1.4326684
     2   8 O        3   6 C                                       1.3263907
     3   6 C        4   8 O                                       1.2081653
     5   6 C        6   7 N                                       1.3612297
     6   7 N        7   6 C                                       1.2969885
     8   6 C        9   6 C                                       1.5356731 (max)
     8   6 C       10   6 C                                       1.5355540
     8   6 C       11   7 N                                       1.4724953
    11   7 N       12   6 C                                       1.3451945
    12   6 C       13   8 O                                       1.2079310
    14   6 C       15   7 N                                       1.3711263
    15   7 N       16   7 N                                       1.2634933
    16   7 N       17   6 C                                       1.4271026
    17   6 C       18   6 C                                       1.5348593
    17   6 C       19   6 C                                       1.5339265
    14   6 C       20   8 O                                       1.2744067
    17   6 C       20   8 O                                       1.4263677
     7   6 C       21   7 N                                       1.3666372
    21   7 N       22   6 C                                       1.4635856
    21   7 N       23   6 C                                       1.3882003
    23   6 C       24   8 O                                       1.2226637
     5   6 C       25   6 C                                       1.3725056
    25   6 C       26   8 O                                       1.3288738
     1   6 C       27   1 H                                       1.0924362
     1   6 C       28   1 H                                       1.0880740
     1   6 C       29   1 H                                       1.0924649
     9   6 C       30   1 H                                       1.0866002
     9   6 C       31   1 H                                       1.0879318
     9   6 C       32   1 H                                       1.0892639
    10   6 C       33   1 H                                       1.0886061
    10   6 C       34   1 H                                       1.0881086
    10   6 C       35   1 H                                       1.0879883
    11   7 N       36   1 H                                       1.0082684
    18   6 C       37   1 H                                       1.0876794
    18   6 C       38   1 H                                       1.0872091
    18   6 C       39   1 H                                       1.0875607
    19   6 C       40   1 H                                       1.0870333
    19   6 C       41   1 H                                       1.0875317
    19   6 C       42   1 H                                       1.0878254
    22   6 C       43   1 H                                       1.0816131
    22   6 C       44   1 H                                       1.0897519
    22   6 C       45   1 H                                       1.0903003
    26   8 O       46   1 H                                       0.9760749 (min)

 * 7 distinct bonds (by element types)

   Z      Z             #   av. dist./Å        max./Å        min./Å
   1 H    6 C          18     1.0882211     1.0924649     1.0816131
   6 C    6 C           5     1.5025037     1.5356731     1.3725056
   1 H    7 N           1     1.0082684     1.0082684     1.0082684
   6 C    7 N           9     1.3880622     1.4724953     1.2969885
   7 N    7 N           1     1.2634933     1.2634933     1.2634933
   1 H    8 O           1     0.9760749     0.9760749     0.9760749
   6 C    8 O           8     1.3034334     1.4326684     1.2079310


optimized geometry written to: xtbopt.xyz


           -------------------------------------------------
          | TOTAL ENERGY              -86.297099815230 Eh   |
          | GRADIENT NORM               0.000495800531 Eh/α |
          | HOMO-LUMO GAP               0.136355050814 eV   |
           -------------------------------------------------

------------------------------------------------------------------------
 * finished run on 2023/06/20 at 15:48:58.751     
------------------------------------------------------------------------
 total:
 * wall-time:     0 d,  0 h,  0 min,  6.003 sec
 *  cpu-time:     0 d,  0 h,  0 min,  5.960 sec
 * ratio c/w:     0.993 speedup
 SCF:
 * wall-time:     0 d,  0 h,  0 min,  0.281 sec
 *  cpu-time:     0 d,  0 h,  0 min,  0.280 sec
 * ratio c/w:     0.998 speedup
 ANC optimizer:
 * wall-time:     0 d,  0 h,  0 min,  5.653 sec
 *  cpu-time:     0 d,  0 h,  0 min,  5.637 sec
 * ratio c/w:     0.997 speedup

