      -----------------------------------------------------------      
     |                   =====================                   |     
     |                           x T B                           |     
     |                   =====================                   |     
     |                         S. Grimme                         |     
     |          Mulliken Center for Theoretical Chemistry        |     
     |                    University of Bonn                     |     
      -----------------------------------------------------------      

   * xtb version 6.5.1 (579679a) compiled by 'ehlert@majestix' on 2022-07-11

   xtb is free software: you can redistribute it and/or modify it under
   the terms of the GNU Lesser General Public License as published by
   the Free Software Foundation, either version 3 of the License, or
   (at your option) any later version.
   
   xtb is distributed in the hope that it will be useful,
   but WITHOUT ANY WARRANTY; without even the implied warranty of
   MERCHANTABILITY or FITNESS FOR A PARTICULAR PURPOSE.  See the
   GNU Lesser General Public License for more details.
   
   Cite this work as:
   * C. Bannwarth, E. Caldeweyher, S. Ehlert, A. Hansen, P. Pracht,
     J. Seibert, S. Spicher, S. Grimme, WIREs Comput. Mol. Sci., 2020, 11,
     e01493. DOI: 10.1002/wcms.1493
   
   for GFN2-xTB:
   * C. Bannwarth, S. Ehlert and S. Grimme., J. Chem. Theory Comput., 2019,
     15, 1652-1671. DOI: 10.1021/acs.jctc.8b01176
   for GFN1-xTB:
   * S. Grimme, C. Bannwarth, P. Shushkov, J. Chem. Theory Comput., 2017,
     13, 1989-2009. DOI: 10.1021/acs.jctc.7b00118
   for GFN0-xTB:
   * P. Pracht, E. Caldeweyher, S. Ehlert, S. Grimme, ChemRxiv, 2019, preprint.
     DOI: 10.26434/chemrxiv.8326202.v1
   for GFN-FF:
   * S. Spicher and S. Grimme, Angew. Chem. Int. Ed., 2020, 59, 15665-15673.
     DOI: 10.1002/anie.202004239
   
   for ALPB and GBSA implicit solvation:
   * S. Ehlert, M. Stahn, S. Spicher, S. Grimme, J. Chem. Theory Comput.,
     2021, 17, 4250-4261. DOI: 10.1021/acs.jctc.1c00471
   
   for DFT-D4:
   * E. Caldeweyher, C. Bannwarth and S. Grimme, J. Chem. Phys., 2017,
     147, 034112. DOI: 10.1063/1.4993215
   * E. Caldeweyher, S. Ehlert, A. Hansen, H. Neugebauer, S. Spicher,
     C. Bannwarth and S. Grimme, J. Chem. Phys., 2019, 150, 154122.
     DOI: 10.1063/1.5090222
   * E. Caldeweyher, J.-M. Mewes, S. Ehlert and S. Grimme, Phys. Chem. Chem. Phys.
     2020, 22, 8499-8512. DOI: 10.1039/D0CP00502A
   
   for sTDA-xTB:
   * S. Grimme and C. Bannwarth, J. Chem. Phys., 2016, 145, 054103.
     DOI: 10.1063/1.4959605
   
   in the mass-spec context:
   * V. Asgeirsson, C. Bauer and S. Grimme, Chem. Sci., 2017, 8, 4879.
     DOI: 10.1039/c7sc00601b
   * J. Koopman and S. Grimme, ACS Omega 2019, 4, 12, 15120-15133.
     DOI: 10.1021/acsomega.9b02011
   
   for metadynamics refer to:
   * S. Grimme, J. Chem. Theory Comput., 2019, 155, 2847-2862
     DOI: 10.1021/acs.jctc.9b00143
   
   for SPH calculations refer to:
   * S. Spicher and S. Grimme, J. Chem. Theory Comput., 2021, 17, 1701-1714
     DOI: 10.1021/acs.jctc.0c01306
   
   with help from (in alphabetical order)
   P. Atkinson, C. Bannwarth, F. Bohle, G. Brandenburg, E. Caldeweyher
   M. Checinski, S. Dohm, S. Ehlert, S. Ehrlich, I. Gerasimov, C. Hölzer
   A. Katbashev, J. Koopman, C. Lavigne, S. Lehtola, F. März, M. Müller,
   F. Musil, H. Neugebauer, J. Pisarek, C. Plett, P. Pracht, F. Pultar,
   J. Seibert, P. Shushkov, S. Spicher, M. Stahn, M. Steiner, T. Strunk,
   J. Stückrath, T. Rose, and J. Unsleber
   
 * started run on 2023/06/21 at 17:40:38.887     

           -------------------------------------------------
          |                Calculation Setup                |
           -------------------------------------------------

          program call               : /lustre/hpc/kemi/ree/PhD/git/ReactivityQM/dep/xtb-6.5.1/bin/xtb --gfn 1 /lustre/hpc/kemi/ree/PhD/git/ReactivityQM/calculations/R02methylcation/reac01prodN09/conf09/R02methylcation_reac01prodN09_conf09_gfn1.xyz --opt --vfukui --chrg 0 --uhf 0 --alpb DMSO
          hostname                   : node317
          coordinate file            : /lustre/hpc/kemi/ree/PhD/git/ReactivityQM/calculations/R02methylcation/reac01prodN09/conf09/R02methylcation_reac01prodN09_conf09_gfn1.xyz
          omp threads                :                     1

   ID    Z sym.   atoms
    1    6 C      1, 3, 4, 6, 8-11, 13, 15, 18, 19, 22, 24
    2    8 O      2, 5, 14, 20, 23, 25
    3    7 N      7, 12, 16, 17, 21
    4    1 H      26-42

           -------------------------------------------------
          |                 G F N 1 - x T B                 |
           -------------------------------------------------

        Reference                      10.1021/acs.jctc.7b00118
      * Hamiltonian:
        H0-scaling (s, p, d)           1.850000    2.250000    2.000000
        zeta-weighting                 0.000000
      * Dispersion:
        s8                             2.400000
        a1                             0.630000
        a2                             5.000000
        s9                             0.000000
      * Repulsion:
        kExp                           1.500000
        rExp                           1.000000
      * Coulomb:
        alpha                          2.000000
        third order                    atomic
        anisotropic                    false
      * Halogen bond correction:
        rad-scale                      1.300000
        damping                        0.440000

      * Solvation model:               ALPB
        Solvent                        DMSO
        Parameter file                 internal GFN1-xTB/ALPB
        Dielectric constant                4.6680E+01
        Reference state                gsolv [1 M gas/solution]
        Free energy shift                  7.6243E-03 Eh       4.7843E+00 kcal/mol
        Temperature                        2.9815E+02 K
        Density                            1.1000E+00 kg/L
        Solvent mass                       7.8130E+01 g/mol
        Interaction kernel             P16
        Born radius scaling (c1)           1.7672E+00
        Born radii integrator          GBOBC
        Born offset                        0.0000E+00 a0       0.0000E+00 AA
        H-bond correction              true
        Ion screening                  false
        Surface tension                    1.0000E-05 Eh       1.5569E+01 dyn/cm
        Grid points                               230 per atom

          ...................................................
          :                      SETUP                      :
          :.................................................:
          :  # basis functions                 134          :
          :  # atomic orbitals                 134          :
          :  # shells                           84          :
          :  # electrons                       134          :
          :  # halogen bonds                     0          :
          :  max. iterations                   250          :
          :  Hamiltonian                  GFN1-xTB          :
          :  restarted?                      false          :
          :  GBSA solvation                   true          :
          :  PC potential                    false          :
          :  electronic temp.          300.0000000     K    :
          :  accuracy                    1.0000000          :
          :  -> integral cutoff          0.2500000E+02      :
          :  -> integral neglect         0.1000000E-07      :
          :  -> SCF convergence          0.1000000E-05 Eh   :
          :  -> wf. convergence          0.2000000E-04 e    :
          :  Broyden damping             0.4000000          :
          ...................................................

 iter      E             dE          RMSdq      gap      omega  full diag
   1    -83.1471113 -0.831471E+02  0.840E+00    0.74       0.0  T
   2    -83.2939630 -0.146852E+00  0.550E+00    0.48       1.0  T
   3    -83.3768265 -0.828636E-01  0.315E+00    0.76       1.0  T
   4    -83.5183808 -0.141554E+00  0.132E+00    0.54       1.0  T
   5    -83.5575370 -0.391562E-01  0.764E-01    0.25       1.0  T
   6    -83.5526290  0.490801E-02  0.900E-01    0.45       1.0  T
   7    -83.5170996  0.355294E-01  0.106E+00    0.29       1.0  T
   8    -83.6042862 -0.871867E-01  0.412E-01    0.23       1.0  T
   9    -83.6138147 -0.952845E-02  0.245E-01    0.21       1.0  T
  10    -83.6183991 -0.458441E-02  0.688E-02    0.20       1.0  T
  11    -83.6175576  0.841534E-03  0.114E-01    0.20       1.0  T
  12    -83.6182867 -0.729114E-03  0.663E-02    0.20       1.0  T
  13    -83.6187030 -0.416302E-03  0.108E-02    0.20       1.4  T
  14    -83.6187026  0.354542E-06  0.108E-02    0.20       1.4  T
  15    -83.6187134 -0.108119E-04  0.809E-04    0.20      19.1  T
  16    -83.6187135 -0.530320E-07  0.133E-04    0.20     115.7  T
  17    -83.6187135  0.119043E-08  0.146E-04    0.20     105.5  T

   *** convergence criteria satisfied after 17 iterations ***

         #    Occupation            Energy/Eh            Energy/eV
      -------------------------------------------------------------
         1        2.0000           -0.8693908             -23.6573
       ...           ...                  ...                  ...
        61        2.0000           -0.4674286             -12.7194
        62        2.0000           -0.4612769             -12.5520
        63        2.0000           -0.4589270             -12.4880
        64        2.0000           -0.4481586             -12.1950
        65        2.0000           -0.4473005             -12.1717
        66        2.0000           -0.4442099             -12.0876
        67        1.9568           -0.4332885             -11.7904 (HOMO)
        68        0.0432           -0.4260420             -11.5932 (LUMO)
        69                         -0.3274628              -8.9107
        70                         -0.3205947              -8.7238
        71                         -0.3081956              -8.3864
        72                         -0.2614399              -7.1141
       ...                                ...                  ...
       134                          0.7279664              19.8090
      -------------------------------------------------------------
                  HL-Gap            0.0072465 Eh            0.1972 eV
             Fermi-level           -0.4296652 Eh          -11.6918 eV

 SCC (total)                   0 d,  0 h,  0 min,  0.186 sec
 SCC setup                      ...        0 min,  0.002 sec (  1.238%)
 Dispersion                     ...        0 min,  0.000 sec (  0.235%)
 classical contributions        ...        0 min,  0.000 sec (  0.074%)
 integral evaluation            ...        0 min,  0.035 sec ( 19.083%)
 iterations                     ...        0 min,  0.063 sec ( 34.163%)
 molecular gradient             ...        0 min,  0.083 sec ( 44.618%)
 printout                       ...        0 min,  0.001 sec (  0.560%)

         :::::::::::::::::::::::::::::::::::::::::::::::::::::
         ::                     SUMMARY                     ::
         :::::::::::::::::::::::::::::::::::::::::::::::::::::
         :: total energy             -82.865399106014 Eh    ::
         :: total w/o Gsasa/hb       -82.844730136502 Eh    ::
         :: gradient norm              0.121217459581 Eh/a0 ::
         :: HOMO-LUMO gap              0.197187988020 eV    ::
         ::.................................................::
         :: SCC energy               -83.618713488932 Eh    ::
         :: -> electrostatic           0.383910963729 Eh    ::
         :: -> Gsolv                  -0.059449056106 Eh    ::
         ::    -> Gelec               -0.038780086593 Eh    ::
         ::    -> Gsasa               -0.024111482019 Eh    ::
         ::    -> Ghb                 -0.004181766499 Eh    ::
         ::    -> Gshift               0.007624279005 Eh    ::
         :: repulsion energy           0.778946614174 Eh    ::
         :: dispersion energy         -0.025632231256 Eh    ::
         :: halogen bond corr.         0.000000000000 Eh    ::
         :: add. restraining           0.000000000000 Eh    ::
         :: total charge               0.000000000000 e     ::
         :::::::::::::::::::::::::::::::::::::::::::::::::::::

      ----------------------------------------------------------- 
     |                   =====================                   |
     |                        A N C O P T                        |
     |                   =====================                   |
     |               Approximate Normal Coordinate               |
     |                Rational Function Optimizer                |
      ----------------------------------------------------------- 

          ...................................................
          :                      SETUP                      :
          :.................................................:
          :   optimization level            normal          :
          :   max. optcycles                   200          :
          :   ANC micro-cycles                  20          :
          :   degrees of freedom               120          :
          :.................................................:
          :   RF solver                   davidson          :
          :   write xtbopt.log                true          :
          :   linear?                        false          :
          :   energy convergence         0.5000000E-05 Eh   :
          :   grad. convergence          0.1000000E-02 Eh/α :
          :   maximium RF displ.         1.0000000          :
          :   Hlow (freq-cutoff)         0.1000000E-01      :
          :   Hmax (freq-cutoff)         5.0000000          :
          :   S6 in model hess.         20.0000000          :
          ...................................................

generating ANC from model Hessian ...
Using Lindh-Hessian (1995)
 Shifting diagonal of input Hessian by   9.766547650099969E-003
 Lowest  eigenvalues of input Hessian
    0.000000    0.000000    0.000000    0.000000    0.000000    0.000000
    0.010000    0.010069    0.010534    0.010693    0.011512    0.012113
    0.013405    0.013668    0.014752    0.016224    0.016406    0.016518
 Highest eigenvalues
    1.969208    2.076082    2.148776    2.301382    2.342972    2.454037
 

........................................................................
.............................. CYCLE    1 ..............................
........................................................................
   1    -83.6187135 -0.836187E+02  0.108E-04    0.20       0.0  T
   2    -83.6187134  0.761908E-07  0.900E-04    0.20      17.1  T
   3    -83.6187135 -0.772147E-07  0.172E-05    0.20     898.8  T
   4    -83.6187135 -0.287912E-10  0.695E-06    0.20    2219.5  T
     SCC iter.                  ...        0 min,  0.014 sec
     gradient                   ...        0 min,  0.082 sec
 * total energy  :   -82.8653991 Eh     change       -0.2223175E-08 Eh
   gradient norm :     0.1212200 Eh/α   predicted     0.0000000E+00 (-100.00%)
   displ. norm   :     0.3625284 α      lambda       -0.1772855E-01
   maximum displ.:     0.2214620 α      in ANC's #21, #18, #22, ...

........................................................................
.............................. CYCLE    2 ..............................
........................................................................
   1    -83.6311444 -0.836311E+02  0.147E-01    0.27       0.0  T
   2    -83.5998727  0.312717E-01  0.606E-01    0.36       1.0  T
   3    -83.6322522 -0.323795E-01  0.118E-01    0.27       1.0  T
   4    -83.6333581 -0.110591E-02  0.193E-02    0.26       1.0  T
   5    -83.6332841  0.740136E-04  0.320E-02    0.27       1.0  T
   6    -83.6333625 -0.784442E-04  0.308E-03    0.26       5.0  T
   7    -83.6333631 -0.589617E-06  0.582E-04    0.26      26.5  T
   8    -83.6333630  0.737259E-07  0.952E-04    0.26      16.2  T
   9    -83.6333631 -0.600359E-07  0.548E-04    0.26      28.2  T
  10    -83.6333631 -0.254306E-07  0.158E-04    0.26      97.8  T
  11    -83.6333631 -0.216711E-08  0.535E-05    0.26     288.7  T
     SCC iter.                  ...        0 min,  0.038 sec
     gradient                   ...        0 min,  0.082 sec
 * total energy  :   -82.8785883 Eh     change       -0.1318921E-01 Eh
   gradient norm :     0.0705406 Eh/α   predicted    -0.1004483E-01 ( -23.84%)
   displ. norm   :     0.3729515 α      lambda       -0.1070476E-01
   maximum displ.:     0.1799983 α      in ANC's #21, #26, #9, ...

........................................................................
.............................. CYCLE    3 ..............................
........................................................................
   1    -83.6401491 -0.836401E+02  0.277E-01    0.35       0.0  T
   2    -83.5960065  0.441425E-01  0.776E-01    0.51       1.0  T
   3    -83.6449569 -0.489504E-01  0.199E-01    0.35       1.0  T
   4    -83.6475875 -0.263059E-02  0.792E-02    0.34       1.0  T
   5    -83.6480795 -0.492030E-03  0.458E-02    0.34       1.0  T
   6    -83.6482077 -0.128162E-03  0.994E-03    0.34       1.6  T
   7    -83.6482151 -0.739052E-05  0.101E-03    0.34      15.3  T
   8    -83.6482151 -0.748137E-07  0.187E-04    0.34      82.4  T
   9    -83.6482151  0.277441E-08  0.221E-04    0.34      69.8  T
  10    -83.6482151 -0.446761E-09  0.193E-04    0.34      79.9  T
     SCC iter.                  ...        0 min,  0.035 sec
     gradient                   ...        0 min,  0.082 sec
 * total energy  :   -82.8853313 Eh     change       -0.6743006E-02 Eh
   gradient norm :     0.0223578 Eh/α   predicted    -0.6096859E-02 (  -9.58%)
   displ. norm   :     0.3218367 α      lambda       -0.2495766E-02
   maximum displ.:     0.1262935 α      in ANC's #8, #3, #5, ...

........................................................................
.............................. CYCLE    4 ..............................
........................................................................
   1    -83.6502832 -0.836503E+02  0.146E-01    0.39       0.0  T
   2    -83.6315107  0.187725E-01  0.479E-01    0.44       1.0  T
   3    -83.6522510 -0.207403E-01  0.441E-02    0.39       1.0  T
   4    -83.6523923 -0.141360E-03  0.994E-03    0.38       1.6  T
   5    -83.6523952 -0.283530E-05  0.342E-03    0.38       4.5  T
   6    -83.6523950  0.181577E-06  0.196E-03    0.38       7.9  T
   7    -83.6523953 -0.302068E-06  0.516E-04    0.38      29.9  T
   8    -83.6523953 -0.142805E-07  0.291E-04    0.38      53.0  T
   9    -83.6523953 -0.669789E-08  0.474E-05    0.38     325.2  T
  10    -83.6523953 -0.143459E-09  0.787E-06    0.38    1959.7  T
     SCC iter.                  ...        0 min,  0.035 sec
     gradient                   ...        0 min,  0.082 sec
 * total energy  :   -82.8872232 Eh     change       -0.1891890E-02 Eh
   gradient norm :     0.0169597 Eh/α   predicted    -0.1377151E-02 ( -27.21%)
   displ. norm   :     0.4908372 α      lambda       -0.2339873E-02
   maximum displ.:     0.2226771 α      in ANC's #3, #8, #5, ...

........................................................................
.............................. CYCLE    5 ..............................
........................................................................
   1    -83.6525099 -0.836525E+02  0.148E-01    0.46       0.0  T
   2    -83.6392343  0.132756E-01  0.414E-01    0.49       1.0  T
   3    -83.6545222 -0.152879E-01  0.233E-02    0.45       1.0  T
   4    -83.6545533 -0.311490E-04  0.807E-03    0.45       1.9  T
   5    -83.6545545 -0.112522E-05  0.226E-03    0.45       6.8  T
   6    -83.6545546 -0.173550E-06  0.883E-04    0.45      17.5  T
   7    -83.6545547 -0.519399E-07  0.339E-04    0.45      45.5  T
   8    -83.6545547 -0.538336E-08  0.946E-05    0.45     163.1  T
   9    -83.6545547 -0.202704E-09  0.332E-05    0.45     464.8  T
     SCC iter.                  ...        0 min,  0.032 sec
     gradient                   ...        0 min,  0.082 sec
 * total energy  :   -82.8890993 Eh     change       -0.1876140E-02 Eh
   gradient norm :     0.0183077 Eh/α   predicted    -0.1451804E-02 ( -22.62%)
   displ. norm   :     0.6272832 α      lambda       -0.2357671E-02
   maximum displ.:     0.3081957 α      in ANC's #3, #8, #5, ...

........................................................................
.............................. CYCLE    6 ..............................
........................................................................
   1    -83.6540353 -0.836540E+02  0.133E-01    0.56       0.0  T
   2    -83.6473602  0.667503E-02  0.308E-01    0.56       1.0  T
   3    -83.6556026 -0.824236E-02  0.124E-02    0.55       1.2  T
   4    -83.6556063 -0.367002E-05  0.677E-03    0.55       2.3  T
   5    -83.6556066 -0.345322E-06  0.134E-03    0.55      11.5  T
   6    -83.6556067 -0.531276E-07  0.545E-04    0.55      28.3  T
   7    -83.6556067 -0.599034E-08  0.278E-04    0.55      55.4  T
   8    -83.6556067 -0.581352E-09  0.127E-04    0.55     121.8  T
   9    -83.6556067 -0.106746E-08  0.168E-05    0.55     917.4  T
     SCC iter.                  ...        0 min,  0.032 sec
     gradient                   ...        0 min,  0.082 sec
 * total energy  :   -82.8910928 Eh     change       -0.1993421E-02 Eh
   gradient norm :     0.0210541 Eh/α   predicted    -0.1642716E-02 ( -17.59%)
   displ. norm   :     0.6872022 α      lambda       -0.2563047E-02
   maximum displ.:     0.3456393 α      in ANC's #3, #5, #8, ...

........................................................................
.............................. CYCLE    7 ..............................
........................................................................
   1    -83.6565626 -0.836566E+02  0.117E-01    0.68       0.0  T
   2    -83.6537920  0.277060E-02  0.219E-01    0.67       1.0  T
   3    -83.6577836 -0.399156E-02  0.132E-02    0.67       1.2  T
   4    -83.6577866 -0.305286E-05  0.719E-03    0.67       2.1  T
   5    -83.6577871 -0.508827E-06  0.171E-03    0.67       9.0  T
   6    -83.6577872 -0.361665E-07  0.750E-04    0.67      20.6  T
   7    -83.6577872 -0.230406E-07  0.278E-04    0.67      55.6  T
   8    -83.6577872 -0.139704E-08  0.707E-05    0.67     218.3  T
   9    -83.6577872 -0.116628E-09  0.178E-05    0.67     867.6  T
     SCC iter.                  ...        0 min,  0.031 sec
     gradient                   ...        0 min,  0.083 sec
 * total energy  :   -82.8934198 Eh     change       -0.2327004E-02 Eh
   gradient norm :     0.0222284 Eh/α   predicted    -0.1886722E-02 ( -18.92%)
   displ. norm   :     0.7617887 α      lambda       -0.3348532E-02
   maximum displ.:     0.3828744 α      in ANC's #3, #5, #8, ...

........................................................................
.............................. CYCLE    8 ..............................
........................................................................
   1    -83.6621969 -0.836622E+02  0.116E-01    0.86       0.0  T
   2    -83.6613217  0.875173E-03  0.167E-01    0.83       1.0  T
   3    -83.6634768 -0.215510E-02  0.181E-02    0.84       1.0  T
   4    -83.6634802 -0.339685E-05  0.111E-02    0.84       1.4  T
   5    -83.6634824 -0.217206E-05  0.250E-03    0.84       6.2  T
   6    -83.6634824 -0.603662E-07  0.934E-04    0.84      16.5  T
   7    -83.6634825 -0.322004E-07  0.275E-04    0.84      56.1  T
   8    -83.6634825 -0.932118E-09  0.737E-05    0.84     209.4  T
   9    -83.6634825 -0.379998E-10  0.182E-05    0.84     847.6  T
     SCC iter.                  ...        0 min,  0.032 sec
     gradient                   ...        0 min,  0.082 sec
 * total energy  :   -82.8965014 Eh     change       -0.3081657E-02 Eh
   gradient norm :     0.0225726 Eh/α   predicted    -0.2645899E-02 ( -14.14%)
   displ. norm   :     0.8423238 α      lambda       -0.4006127E-02
   maximum displ.:     0.4322244 α      in ANC's #3, #8, #5, ...

........................................................................
.............................. CYCLE    9 ..............................
........................................................................
   1    -83.6694626 -0.836695E+02  0.118E-01    1.15       0.0  T
   2    -83.6698037 -0.341092E-03  0.120E-01    1.10       1.0  T
   3    -83.6707366 -0.932943E-03  0.177E-02    1.11       1.0  T
   4    -83.6707381 -0.148823E-05  0.114E-02    1.11       1.3  T
   5    -83.6707402 -0.210518E-05  0.276E-03    1.11       5.6  T
   6    -83.6707403 -0.435254E-07  0.780E-04    1.11      19.8  T
   7    -83.6707403 -0.180500E-07  0.295E-04    1.11      52.3  T
   8    -83.6707403 -0.113172E-08  0.791E-05    1.11     195.0  T
   9    -83.6707403 -0.430020E-10  0.184E-05    1.11     838.3  T
     SCC iter.                  ...        0 min,  0.031 sec
     gradient                   ...        0 min,  0.083 sec
 * total energy  :   -82.9006641 Eh     change       -0.4162645E-02 Eh
   gradient norm :     0.0290609 Eh/α   predicted    -0.3424267E-02 ( -17.74%)
   displ. norm   :     0.8597813 α      lambda       -0.4837785E-02
   maximum displ.:     0.4411046 α      in ANC's #3, #8, #5, ...

........................................................................
.............................. CYCLE   10 ..............................
........................................................................
   1    -83.6725306 -0.836725E+02  0.887E-02    1.52       0.0  T
   2    -83.6729576 -0.426951E-03  0.610E-02    1.48       1.0  T
   3    -83.6731476 -0.190046E-03  0.116E-02    1.49       1.3  T
   4    -83.6731485 -0.926736E-06  0.631E-03    1.49       2.4  T
   5    -83.6731487 -0.117146E-06  0.219E-03    1.48       7.1  T
   6    -83.6731487 -0.791694E-07  0.412E-04    1.48      37.4  T
   7    -83.6731487 -0.143392E-08  0.156E-04    1.48      98.8  T
   8    -83.6731487 -0.139792E-09  0.409E-05    1.48     377.2  T
     SCC iter.                  ...        0 min,  0.031 sec
     gradient                   ...        0 min,  0.084 sec
 * total energy  :   -82.9063890 Eh     change       -0.5724901E-02 Eh
   gradient norm :     0.0491233 Eh/α   predicted    -0.4207004E-02 ( -26.51%)
   displ. norm   :     0.6664305 α      lambda       -0.8051120E-02
   maximum displ.:     0.2874677 α      in ANC's #3, #8, #5, ...

........................................................................
.............................. CYCLE   11 ..............................
........................................................................
   1    -83.6904421 -0.836904E+02  0.108E-01    1.96       0.0  T
   2    -83.6911390 -0.696874E-03  0.496E-02    1.94       1.0  T
   3    -83.6912251 -0.860808E-04  0.176E-02    1.94       1.0  T
   4    -83.6912274 -0.234209E-05  0.946E-03    1.94       1.6  T
   5    -83.6912274  0.629215E-07  0.275E-03    1.94       5.6  T
   6    -83.6912276 -0.241797E-06  0.341E-04    1.94      45.3  T
   7    -83.6912276 -0.192640E-08  0.172E-04    1.94      89.8  T
   8    -83.6912276 -0.184400E-09  0.660E-05    1.94     233.7  T
     SCC iter.                  ...        0 min,  0.028 sec
     gradient                   ...        0 min,  0.083 sec
 * total energy  :   -82.9162041 Eh     change       -0.9815119E-02 Eh
   gradient norm :     0.0713250 Eh/α   predicted    -0.5813439E-02 ( -40.77%)
   displ. norm   :     0.6763495 α      lambda       -0.1437199E-01
   maximum displ.:     0.2740185 α      in ANC's #3, #8, #5, ...

........................................................................
.............................. CYCLE   12 ..............................
........................................................................
   1    -83.7053713 -0.837054E+02  0.131E-01    2.32       0.0  T
   2    -83.7059945 -0.623160E-03  0.382E-02    2.30       1.0  T
   3    -83.7060152 -0.207234E-04  0.205E-02    2.30       1.0  T
   4    -83.7060176 -0.235881E-05  0.880E-03    2.30       1.8  T
   5    -83.7060177 -0.132556E-06  0.174E-03    2.30       8.8  T
   6    -83.7060178 -0.613628E-07  0.574E-04    2.30      26.9  T
   7    -83.7060178 -0.405718E-08  0.171E-04    2.30      90.2  T
   8    -83.7060178 -0.202022E-09  0.525E-05    2.30     294.2  T
     SCC iter.                  ...        0 min,  0.028 sec
     gradient                   ...        0 min,  0.083 sec
 * total energy  :   -82.9330928 Eh     change       -0.1688871E-01 Eh
   gradient norm :     0.0997867 Eh/α   predicted    -0.1047323E-01 ( -37.99%)
   displ. norm   :     0.5910922 α      lambda       -0.2230078E-01
   maximum displ.:     0.1704509 α      in ANC's #18, #31, #3, ...

........................................................................
.............................. CYCLE   13 ..............................
........................................................................
   1    -83.7386555 -0.837387E+02  0.145E-01    2.44       0.0  T
   2    -83.7394357 -0.780162E-03  0.513E-02    2.42       1.0  T
   3    -83.7394732 -0.375024E-04  0.269E-02    2.43       1.0  T
   4    -83.7394771 -0.393858E-05  0.122E-02    2.43       1.3  T
   5    -83.7394775 -0.423406E-06  0.210E-03    2.43       7.3  T
   6    -83.7394776 -0.901437E-07  0.950E-04    2.43      16.2  T
   7    -83.7394776 -0.876722E-08  0.264E-04    2.43      58.5  T
   8    -83.7394776 -0.828550E-09  0.812E-05    2.43     190.0  T
   9    -83.7394776 -0.803198E-10  0.215E-05    2.43     718.2  T
     SCC iter.                  ...        0 min,  0.033 sec
     gradient                   ...        0 min,  0.083 sec
 * total energy  :   -82.9549035 Eh     change       -0.2181072E-01 Eh
   gradient norm :     0.1044874 Eh/α   predicted    -0.1504625E-01 ( -31.01%)
   displ. norm   :     0.8053317 α      lambda       -0.4562745E-01
   maximum displ.:     0.2709509 α      in ANC's #34, #31, #36, ...

........................................................................
.............................. CYCLE   14 ..............................
........................................................................
   1    -83.7781453 -0.837781E+02  0.187E-01    2.41       0.0  T
   2    -83.7791902 -0.104494E-02  0.811E-02    2.34       1.0  T
   3    -83.7792649 -0.746924E-04  0.417E-02    2.35       1.0  T
   4    -83.7792757 -0.107956E-04  0.146E-02    2.34       1.1  T
   5    -83.7792774 -0.174603E-05  0.348E-03    2.34       4.4  T
   6    -83.7792776 -0.162545E-06  0.130E-03    2.35      11.8  T
   7    -83.7792776 -0.179638E-07  0.475E-04    2.35      32.5  T
   8    -83.7792776 -0.261169E-08  0.840E-05    2.35     183.6  T
   9    -83.7792776 -0.795808E-10  0.315E-05    2.35     489.4  T
     SCC iter.                  ...        0 min,  0.033 sec
     gradient                   ...        0 min,  0.084 sec
 * total energy  :   -82.9682390 Eh     change       -0.1333545E-01 Eh
   gradient norm :     0.1405343 Eh/α   predicted    -0.3760988E-01 ( 182.03%)
   displ. norm   :     0.3870997 α      lambda       -0.3286012E-01
   maximum displ.:     0.1579772 α      in ANC's #3, #8, #26, ...

........................................................................
.............................. CYCLE   15 ..............................
........................................................................
   1    -83.7778555 -0.837779E+02  0.950E-02    2.44       0.0  T
   2    -83.7780507 -0.195214E-03  0.425E-02    2.44       1.0  T
   3    -83.7780591 -0.838599E-05  0.209E-02    2.44       1.0  T
   4    -83.7780600 -0.889708E-06  0.723E-03    2.44       2.1  T
   5    -83.7780604 -0.446498E-06  0.117E-03    2.44      13.2  T
   6    -83.7780605 -0.332972E-07  0.300E-04    2.44      51.4  T
   7    -83.7780605 -0.128867E-08  0.117E-04    2.44     131.8  T
   8    -83.7780605 -0.160696E-09  0.335E-05    2.44     461.1  T
     SCC iter.                  ...        0 min,  0.031 sec
     gradient                   ...        0 min,  0.083 sec
 * total energy  :   -82.9805863 Eh     change       -0.1234736E-01 Eh
   gradient norm :     0.0650833 Eh/α   predicted    -0.1889206E-01 (  53.00%)
   displ. norm   :     0.4977871 α      lambda       -0.1296408E-01
   maximum displ.:     0.2691385 α      in ANC's #3, #8, #26, ...

........................................................................
.............................. CYCLE   16 ..............................
........................................................................
   1    -83.7519832 -0.837520E+02  0.129E-01    2.33       0.0  T
   2    -83.7525438 -0.560618E-03  0.635E-02    2.37       1.0  T
   3    -83.7526048 -0.610003E-04  0.331E-02    2.37       1.0  T
   4    -83.7526051 -0.290075E-06  0.572E-03    2.37       2.7  T
   5    -83.7526057 -0.562333E-06  0.760E-04    2.37      20.3  T
   6    -83.7526057 -0.104038E-07  0.283E-04    2.37      54.5  T
   7    -83.7526057 -0.133313E-08  0.886E-05    2.37     174.2  T
   8    -83.7526057 -0.949711E-10  0.271E-05    2.37     570.0  T
     SCC iter.                  ...        0 min,  0.029 sec
     gradient                   ...        0 min,  0.083 sec
 * total energy  :   -82.9845749 Eh     change       -0.3988561E-02 Eh
   gradient norm :     0.0694999 Eh/α   predicted    -0.8088269E-02 ( 102.79%)
   displ. norm   :     0.3761848 α      lambda       -0.9711019E-02
   maximum displ.:     0.1224231 α      in ANC's #34, #3, #28, ...

........................................................................
.............................. CYCLE   17 ..............................
........................................................................
   1    -83.7688229 -0.837688E+02  0.762E-02    2.41       0.0  T
   2    -83.7691179 -0.295080E-03  0.332E-02    2.38       1.0  T
   3    -83.7691306 -0.126640E-04  0.175E-02    2.38       1.0  T
   4    -83.7691306 -0.356455E-07  0.591E-03    2.38       2.6  T
   5    -83.7691310 -0.318023E-06  0.596E-04    2.38      25.9  T
   6    -83.7691310 -0.904255E-08  0.256E-04    2.38      60.3  T
   7    -83.7691310 -0.544802E-09  0.108E-04    2.38     143.2  T
   8    -83.7691310 -0.952411E-10  0.183E-05    2.38     845.4  T
     SCC iter.                  ...        0 min,  0.028 sec
     gradient                   ...        0 min,  0.083 sec
 * total energy  :   -82.9898575 Eh     change       -0.5282559E-02 Eh
   gradient norm :     0.0378059 Eh/α   predicted    -0.5542652E-02 (   4.92%)
   displ. norm   :     0.7835628 α      lambda       -0.6902148E-02
   maximum displ.:     0.4048929 α      in ANC's #3, #8, #11, ...

........................................................................
.............................. CYCLE   18 ..............................
........................................................................
   1    -83.7758125 -0.837758E+02  0.631E-02    2.42       0.0  T
   2    -83.7759853 -0.172854E-03  0.241E-02    2.42       1.0  T
   3    -83.7759908 -0.545194E-05  0.140E-02    2.42       1.1  T
   4    -83.7759912 -0.416560E-06  0.409E-03    2.42       3.8  T
   5    -83.7759914 -0.190125E-06  0.136E-03    2.42      11.3  T
   6    -83.7759914 -0.237460E-07  0.309E-04    2.42      50.0  T
   7    -83.7759914 -0.811411E-09  0.700E-05    2.42     220.5  T
   8    -83.7759914 -0.956817E-10  0.199E-05    2.42     776.6  T
     SCC iter.                  ...        0 min,  0.028 sec
     gradient                   ...        0 min,  0.083 sec
 * total energy  :   -82.9908119 Eh     change       -0.9544856E-03 Eh
   gradient norm :     0.0506893 Eh/α   predicted    -0.5569932E-02 ( 483.55%)
   displ. norm   :     0.3421796 α      lambda       -0.5590093E-02
   maximum displ.:     0.1507253 α      in ANC's #5, #8, #7, ...

........................................................................
.............................. CYCLE   19 ..............................
........................................................................
   1    -83.7850695 -0.837851E+02  0.350E-02    2.43       0.0  T
   2    -83.7851134 -0.439070E-04  0.174E-02    2.43       1.0  T
   3    -83.7851156 -0.220619E-05  0.947E-03    2.43       1.6  T
   4    -83.7851157 -0.137881E-06  0.274E-03    2.43       5.6  T
   5    -83.7851158 -0.817568E-07  0.650E-04    2.43      23.7  T
   6    -83.7851158 -0.345183E-08  0.180E-04    2.43      85.7  T
   7    -83.7851158 -0.294378E-09  0.520E-05    2.43     296.9  T
     SCC iter.                  ...        0 min,  0.024 sec
     gradient                   ...        0 min,  0.083 sec
 * total energy  :   -82.9935411 Eh     change       -0.2729172E-02 Eh
   gradient norm :     0.0247192 Eh/α   predicted    -0.3122313E-02 (  14.41%)
   displ. norm   :     0.5507389 α      lambda       -0.5452876E-02
   maximum displ.:     0.2998272 α      in ANC's #3, #5, #8, ...

........................................................................
.............................. CYCLE   20 ..............................
........................................................................
   1    -83.7484302 -0.837484E+02  0.825E-02    2.36       0.0  T
   2    -83.7487943 -0.364074E-03  0.334E-02    2.37       1.0  T
   3    -83.7488030 -0.868116E-05  0.182E-02    2.37       1.0  T
   4    -83.7488034 -0.388153E-06  0.568E-03    2.37       2.7  T
   5    -83.7488036 -0.267729E-06  0.149E-03    2.37      10.4  T
   6    -83.7488037 -0.497004E-07  0.287E-04    2.37      53.7  T
   7    -83.7488037 -0.129603E-08  0.867E-05    2.37     177.9  T
   8    -83.7488037 -0.146869E-09  0.291E-05    2.37     530.7  T
     SCC iter.                  ...        0 min,  0.030 sec
     gradient                   ...        0 min,  0.085 sec
 * total energy  :   -82.9900164 Eh     change        0.3524763E-02 Eh
   gradient norm :     0.0861234 Eh/α   predicted    -0.3553414E-02 (-200.81%)
   displ. norm   :     0.2188812 α      lambda       -0.9212956E-02
   maximum displ.:     0.0769021 α      in ANC's #28, #5, #34, ...
 * RMSD in coord.:     1.2851875 α      energy gain  -0.1246172E+00 Eh

generating ANC from model Hessian ...
Using Lindh-Hessian (1995)
 Shifting diagonal of input Hessian by   9.783064777682900E-003
 Lowest  eigenvalues of input Hessian
    0.000000    0.000000    0.000000    0.000000    0.000000    0.000000
    0.010000    0.010117    0.010606    0.010641    0.011752    0.011928
    0.013084    0.014082    0.014636    0.015504    0.016490    0.017143
 Highest eigenvalues
    2.144855    2.182819    2.239806    2.374021    2.403704    2.415169
 

........................................................................
.............................. CYCLE   21 ..............................
........................................................................
   1    -83.7762759 -0.837763E+02  0.715E-02    2.43       0.0  T
   2    -83.7765810 -0.305012E-03  0.247E-02    2.43       1.0  T
   3    -83.7765865 -0.552083E-05  0.137E-02    2.43       1.1  T
   4    -83.7765868 -0.288131E-06  0.450E-03    2.43       3.4  T
   5    -83.7765869 -0.163595E-06  0.106E-03    2.43      14.5  T
   6    -83.7765869 -0.227177E-07  0.299E-04    2.43      51.5  T
   7    -83.7765869 -0.143790E-08  0.516E-05    2.43     299.2  T
   8    -83.7765869 -0.498801E-10  0.168E-05    2.43     920.2  T
     SCC iter.                  ...        0 min,  0.029 sec
     gradient                   ...        0 min,  0.084 sec
 * total energy  :   -82.9950468 Eh     change       -0.5030404E-02 Eh
   gradient norm :     0.0138851 Eh/α   predicted     0.0000000E+00 (-100.00%)
   displ. norm   :     0.1728654 α      lambda       -0.8751523E-03
   maximum displ.:     0.0714119 α      in ANC's #4, #5, #14, ...

........................................................................
.............................. CYCLE   22 ..............................
........................................................................
   1    -83.7803732 -0.837804E+02  0.879E-03    2.43       0.0  T
   2    -83.7803743 -0.107332E-05  0.443E-03    2.43       3.5  T
   3    -83.7803744 -0.906638E-07  0.237E-03    2.43       6.5  T
   4    -83.7803744 -0.220795E-07  0.348E-04    2.43      44.3  T
   5    -83.7803744 -0.110285E-08  0.775E-05    2.43     199.0  T
   6    -83.7803744 -0.850946E-10  0.211E-05    2.43     731.3  T
     SCC iter.                  ...        0 min,  0.022 sec
     gradient                   ...        0 min,  0.084 sec
 * total energy  :   -82.9956525 Eh     change       -0.6057356E-03 Eh
   gradient norm :     0.0063026 Eh/α   predicted    -0.4508541E-03 ( -25.57%)
   displ. norm   :     0.3339678 α      lambda       -0.8800372E-03
   maximum displ.:     0.1531798 α      in ANC's #14, #4, #3, ...

........................................................................
.............................. CYCLE   23 ..............................
........................................................................
   1    -83.7830043 -0.837830E+02  0.677E-03    2.43       0.0  T
   2    -83.7830050 -0.694110E-06  0.341E-03    2.43       4.5  T
   3    -83.7830051 -0.497989E-07  0.174E-03    2.43       8.8  T
   4    -83.7830051 -0.106007E-07  0.388E-04    2.43      39.8  T
   5    -83.7830051 -0.159901E-08  0.888E-05    2.43     173.7  T
   6    -83.7830051 -0.113189E-09  0.221E-05    2.43     696.8  T
     SCC iter.                  ...        0 min,  0.022 sec
     gradient                   ...        0 min,  0.084 sec
 * total energy  :   -82.9963735 Eh     change       -0.7209998E-03 Eh
   gradient norm :     0.0070900 Eh/α   predicted    -0.4890971E-03 ( -32.16%)
   displ. norm   :     0.6073629 α      lambda       -0.1245062E-02
   maximum displ.:     0.3091466 α      in ANC's #14, #3, #4, ...

........................................................................
.............................. CYCLE   24 ..............................
........................................................................
   1    -83.7786861 -0.837787E+02  0.171E-02    2.44       0.0  T
   2    -83.7786926 -0.650570E-05  0.789E-03    2.44       2.0  T
   3    -83.7786930 -0.422093E-06  0.399E-03    2.44       3.9  T
   4    -83.7786931 -0.979212E-07  0.117E-03    2.44      13.2  T
   5    -83.7786931 -0.571923E-08  0.275E-04    2.44      56.1  T
   6    -83.7786931 -0.110221E-08  0.493E-05    2.44     312.9  T
   7    -83.7786931 -0.447500E-10  0.212E-05    2.44     728.7  T
     SCC iter.                  ...        0 min,  0.026 sec
     gradient                   ...        0 min,  0.084 sec
 * total energy  :   -82.9972571 Eh     change       -0.8836115E-03 Eh
   gradient norm :     0.0159410 Eh/α   predicted    -0.8521798E-03 (  -3.56%)
   displ. norm   :     0.3670322 α      lambda       -0.7237704E-03
   maximum displ.:     0.1922134 α      in ANC's #3, #14, #4, ...

........................................................................
.............................. CYCLE   25 ..............................
........................................................................
   1    -83.7781657 -0.837782E+02  0.891E-03    2.44       0.0  T
   2    -83.7781692 -0.348208E-05  0.373E-03    2.44       4.1  T
   3    -83.7781695 -0.245802E-06  0.183E-03    2.44       8.4  T
   4    -83.7781695 -0.132199E-07  0.667E-04    2.44      23.1  T
   5    -83.7781695 -0.233922E-08  0.156E-04    2.44      98.8  T
   6    -83.7781695 -0.119456E-09  0.464E-05    2.44     332.7  T
     SCC iter.                  ...        0 min,  0.023 sec
     gradient                   ...        0 min,  0.084 sec
 * total energy  :   -82.9977994 Eh     change       -0.5422760E-03 Eh
   gradient norm :     0.0159589 Eh/α   predicted    -0.4106366E-03 ( -24.28%)
   displ. norm   :     0.3145641 α      lambda       -0.9969715E-03
   maximum displ.:     0.2064775 α      in ANC's #3, #4, #14, ...

........................................................................
.............................. CYCLE   26 ..............................
........................................................................
   1    -83.7843320 -0.837843E+02  0.184E-02    2.43       0.0  T
   2    -83.7843383 -0.628004E-05  0.868E-03    2.43       1.8  T
   3    -83.7843384 -0.129992E-06  0.401E-03    2.43       3.8  T
   4    -83.7843384 -0.223024E-07  0.851E-04    2.43      18.1  T
   5    -83.7843384 -0.116482E-07  0.200E-04    2.43      77.3  T
   6    -83.7843384 -0.595065E-09  0.496E-05    2.43     311.0  T
     SCC iter.                  ...        0 min,  0.022 sec
     gradient                   ...        0 min,  0.085 sec
 * total energy  :   -82.9983733 Eh     change       -0.5739433E-03 Eh
   gradient norm :     0.0100133 Eh/α   predicted    -0.5478140E-03 (  -4.55%)
   displ. norm   :     0.5264011 α      lambda       -0.8531814E-03
   maximum displ.:     0.2966437 α      in ANC's #3, #14, #4, ...

........................................................................
.............................. CYCLE   27 ..............................
........................................................................
   1    -83.7784333 -0.837784E+02  0.183E-02    2.42       0.0  T
   2    -83.7784391 -0.579678E-05  0.924E-03    2.42       1.7  T
   3    -83.7784394 -0.328097E-06  0.461E-03    2.42       3.3  T
   4    -83.7784395 -0.859692E-07  0.101E-03    2.42      15.3  T
   5    -83.7784395 -0.100006E-07  0.280E-04    2.42      55.0  T
   6    -83.7784395 -0.104325E-08  0.551E-05    2.42     280.0  T
   7    -83.7784395 -0.508891E-10  0.212E-05    2.42     727.4  T
     SCC iter.                  ...        0 min,  0.025 sec
     gradient                   ...        0 min,  0.084 sec
 * total energy  :   -82.9988638 Eh     change       -0.4904939E-03 Eh
   gradient norm :     0.0177464 Eh/α   predicted    -0.5447993E-03 (  11.07%)
   displ. norm   :     0.1890415 α      lambda       -0.5378461E-03
   maximum displ.:     0.1270503 α      in ANC's #3, #14, #4, ...

........................................................................
.............................. CYCLE   28 ..............................
........................................................................
   1    -83.7830038 -0.837830E+02  0.128E-02    2.42       0.0  T
   2    -83.7830091 -0.526638E-05  0.660E-03    2.42       2.3  T
   3    -83.7830096 -0.531548E-06  0.369E-03    2.42       4.2  T
   4    -83.7830097 -0.202096E-07  0.731E-04    2.42      21.1  T
   5    -83.7830097 -0.384159E-08  0.109E-04    2.42     141.3  T
   6    -83.7830097 -0.337891E-09  0.291E-05    2.42     529.8  T
     SCC iter.                  ...        0 min,  0.022 sec
     gradient                   ...        0 min,  0.084 sec
 * total energy  :   -82.9992717 Eh     change       -0.4079088E-03 Eh
   gradient norm :     0.0110942 Eh/α   predicted    -0.2785419E-03 ( -31.71%)
   displ. norm   :     0.4342468 α      lambda       -0.7658101E-03
   maximum displ.:     0.3075559 α      in ANC's #3, #14, #4, ...

........................................................................
.............................. CYCLE   29 ..............................
........................................................................
   1    -83.7843745 -0.837844E+02  0.154E-02    2.42       0.0  T
   2    -83.7843859 -0.113947E-04  0.618E-03    2.41       2.5  T
   3    -83.7843861 -0.200451E-06  0.357E-03    2.41       4.3  T
   4    -83.7843861 -0.113344E-08  0.973E-04    2.41      15.9  T
   5    -83.7843861 -0.130152E-07  0.212E-04    2.41      72.8  T
   6    -83.7843861 -0.811099E-09  0.481E-05    2.41     321.1  T
   7    -83.7843861 -0.260769E-10  0.141E-05    2.41    1096.0  T
     SCC iter.                  ...        0 min,  0.026 sec
     gradient                   ...        0 min,  0.084 sec
 * total energy  :   -82.9997160 Eh     change       -0.4443039E-03 Eh
   gradient norm :     0.0170735 Eh/α   predicted    -0.4551193E-03 (   2.43%)
   displ. norm   :     0.4840945 α      lambda       -0.7068430E-03
   maximum displ.:     0.3259045 α      in ANC's #3, #14, #4, ...

........................................................................
.............................. CYCLE   30 ..............................
........................................................................
   1    -83.7840513 -0.837841E+02  0.198E-02    2.41       0.0  T
   2    -83.7840641 -0.127675E-04  0.905E-03    2.41       1.7  T
   3    -83.7840645 -0.394540E-06  0.474E-03    2.41       3.3  T
   4    -83.7840645 -0.386469E-07  0.132E-03    2.41      11.7  T
   5    -83.7840645 -0.173471E-07  0.355E-04    2.41      43.5  T
   6    -83.7840645 -0.250112E-08  0.482E-05    2.41     319.8  T
   7    -83.7840645 -0.414389E-10  0.173E-05    2.41     893.4  T
     SCC iter.                  ...        0 min,  0.026 sec
     gradient                   ...        0 min,  0.084 sec
 * total energy  :   -83.0000783 Eh     change       -0.3622369E-03 Eh
   gradient norm :     0.0112129 Eh/α   predicted    -0.4362499E-03 (  20.43%)
   displ. norm   :     0.1809779 α      lambda       -0.4535624E-03
   maximum displ.:     0.1033021 α      in ANC's #3, #10, #6, ...

........................................................................
.............................. CYCLE   31 ..............................
........................................................................
   1    -83.7918002 -0.837918E+02  0.170E-02    2.43       0.0  T
   2    -83.7918071 -0.695695E-05  0.817E-03    2.42       1.9  T
   3    -83.7918073 -0.205844E-06  0.425E-03    2.42       3.6  T
   4    -83.7918074 -0.252638E-07  0.965E-04    2.42      16.0  T
   5    -83.7918074 -0.128117E-07  0.197E-04    2.42      78.1  T
   6    -83.7918074 -0.845461E-09  0.352E-05    2.42     438.4  T
     SCC iter.                  ...        0 min,  0.022 sec
     gradient                   ...        0 min,  0.084 sec
 * total energy  :   -83.0002371 Eh     change       -0.1588233E-03 Eh
   gradient norm :     0.0135155 Eh/α   predicted    -0.2342127E-03 (  47.47%)
   displ. norm   :     0.4127711 α      lambda       -0.5548609E-03
   maximum displ.:     0.2771499 α      in ANC's #3, #14, #4, ...

........................................................................
.............................. CYCLE   32 ..............................
........................................................................
   1    -83.7846201 -0.837846E+02  0.218E-02    2.43       0.0  T
   2    -83.7846384 -0.182431E-04  0.112E-02    2.43       1.4  T
   3    -83.7846399 -0.157326E-05  0.637E-03    2.43       2.4  T
   4    -83.7846400 -0.655942E-07  0.147E-03    2.43      10.5  T
   5    -83.7846400 -0.149822E-07  0.392E-04    2.43      39.4  T
   6    -83.7846400 -0.480567E-08  0.618E-05    2.43     249.5  T
   7    -83.7846400 -0.125766E-09  0.184E-05    2.43     838.7  T
     SCC iter.                  ...        0 min,  0.025 sec
     gradient                   ...        0 min,  0.084 sec
 * total energy  :   -83.0004266 Eh     change       -0.1894885E-03 Eh
   gradient norm :     0.0165581 Eh/α   predicted    -0.3247056E-03 (  71.36%)
   displ. norm   :     0.0531624 α      lambda       -0.2386799E-03
   maximum displ.:     0.0277495 α      in ANC's #3, #4, #1, ...

........................................................................
.............................. CYCLE   33 ..............................
........................................................................
   1    -83.7864268 -0.837864E+02  0.103E-02    2.43       0.0  T
   2    -83.7864301 -0.331114E-05  0.539E-03    2.43       2.9  T
   3    -83.7864305 -0.414815E-06  0.304E-03    2.43       5.1  T
   4    -83.7864305 -0.100870E-07  0.403E-04    2.43      38.3  T
   5    -83.7864305 -0.355547E-08  0.113E-04    2.43     136.3  T
   6    -83.7864305 -0.427832E-09  0.250E-05    2.43     617.0  T
     SCC iter.                  ...        0 min,  0.022 sec
     gradient                   ...        0 min,  0.084 sec
 * total energy  :   -83.0005699 Eh     change       -0.1433442E-03 Eh
   gradient norm :     0.0070681 Eh/α   predicted    -0.1196782E-03 ( -16.51%)
   displ. norm   :     0.1204544 α      lambda       -0.1193020E-03
   maximum displ.:     0.0555376 α      in ANC's #3, #14, #10, ...

........................................................................
.............................. CYCLE   34 ..............................
........................................................................
   1    -83.7873795 -0.837874E+02  0.399E-03    2.43       0.0  T
   2    -83.7873802 -0.679421E-06  0.167E-03    2.43       9.2  T
   3    -83.7873802 -0.149436E-07  0.961E-04    2.43      16.1  T
   4    -83.7873802 -0.717066E-09  0.230E-04    2.43      67.1  T
   5    -83.7873802 -0.770910E-09  0.602E-05    2.43     256.4  T
   6    -83.7873802 -0.709264E-10  0.179E-05    2.43     862.9  T
     SCC iter.                  ...        0 min,  0.022 sec
     gradient                   ...        0 min,  0.084 sec
 * total energy  :   -83.0006597 Eh     change       -0.8982168E-04 Eh
   gradient norm :     0.0034565 Eh/α   predicted    -0.6052067E-04 ( -32.62%)
   displ. norm   :     0.2481526 α      lambda       -0.1781816E-03
   maximum displ.:     0.0959568 α      in ANC's #3, #14, #10, ...

........................................................................
.............................. CYCLE   35 ..............................
........................................................................
   1    -83.7878138 -0.837878E+02  0.527E-03    2.43       0.0  T
   2    -83.7878146 -0.790155E-06  0.279E-03    2.43       5.5  T
   3    -83.7878146 -0.711706E-07  0.139E-03    2.43      11.1  T
   4    -83.7878146 -0.466306E-08  0.400E-04    2.43      38.6  T
   5    -83.7878146 -0.975945E-09  0.809E-05    2.43     190.6  T
   6    -83.7878146 -0.167432E-09  0.216E-05    2.43     715.4  T
     SCC iter.                  ...        0 min,  0.023 sec
     gradient                   ...        0 min,  0.084 sec
 * total energy  :   -83.0007752 Eh     change       -0.1154832E-03 Eh
   gradient norm :     0.0061711 Eh/α   predicted    -0.9457665E-04 ( -18.10%)
   displ. norm   :     0.1806323 α      lambda       -0.1166825E-03
   maximum displ.:     0.0681256 α      in ANC's #7, #11, #14, ...

........................................................................
.............................. CYCLE   36 ..............................
........................................................................
   1    -83.7879933 -0.837880E+02  0.545E-03    2.43       0.0  T
   2    -83.7879945 -0.121177E-05  0.236E-03    2.43       6.5  T
   3    -83.7879946 -0.685880E-07  0.120E-03    2.43      12.9  T
   4    -83.7879946 -0.279609E-08  0.421E-04    2.43      36.6  T
   5    -83.7879946 -0.158917E-08  0.769E-05    2.43     200.5  T
   6    -83.7879946 -0.515712E-10  0.265E-05    2.43     583.1  T
     SCC iter.                  ...        0 min,  0.022 sec
     gradient                   ...        0 min,  0.084 sec
 * total energy  :   -83.0008580 Eh     change       -0.8278667E-04 Eh
   gradient norm :     0.0064780 Eh/α   predicted    -0.6024460E-04 ( -27.23%)
   displ. norm   :     0.2092146 α      lambda       -0.1305063E-03
   maximum displ.:     0.0865984 α      in ANC's #7, #9, #11, ...

........................................................................
.............................. CYCLE   37 ..............................
........................................................................
   1    -83.7879373 -0.837879E+02  0.382E-03    2.42       0.0  T
   2    -83.7879377 -0.438339E-06  0.166E-03    2.42       9.3  T
   3    -83.7879378 -0.337919E-07  0.915E-04    2.42      16.9  T
   4    -83.7879378 -0.302390E-08  0.256E-04    2.42      60.4  T
   5    -83.7879378 -0.499412E-09  0.578E-05    2.42     267.1  T
   6    -83.7879378 -0.337081E-10  0.217E-05    2.42     712.4  T
     SCC iter.                  ...        0 min,  0.022 sec
     gradient                   ...        0 min,  0.084 sec
 * total energy  :   -83.0009582 Eh     change       -0.1001533E-03 Eh
   gradient norm :     0.0071117 Eh/α   predicted    -0.6810941E-04 ( -31.99%)
   displ. norm   :     0.2788514 α      lambda       -0.2086838E-03
   maximum displ.:     0.1292791 α      in ANC's #7, #3, #9, ...

........................................................................
.............................. CYCLE   38 ..............................
........................................................................
   1    -83.7891220 -0.837891E+02  0.627E-03    2.42       0.0  T
   2    -83.7891231 -0.110547E-05  0.285E-03    2.42       5.4  T
   3    -83.7891232 -0.543038E-07  0.145E-03    2.42      10.7  T
   4    -83.7891232 -0.754638E-08  0.452E-04    2.42      34.1  T
   5    -83.7891232 -0.129590E-08  0.913E-05    2.42     168.9  T
   6    -83.7891232 -0.104308E-09  0.220E-05    2.42     702.9  T
     SCC iter.                  ...        0 min,  0.022 sec
     gradient                   ...        0 min,  0.084 sec
 * total energy  :   -83.0010968 Eh     change       -0.1385881E-03 Eh
   gradient norm :     0.0072916 Eh/α   predicted    -0.1124546E-03 ( -18.86%)
   displ. norm   :     0.3623672 α      lambda       -0.2615158E-03
   maximum displ.:     0.1471721 α      in ANC's #9, #7, #14, ...

........................................................................
.............................. CYCLE   39 ..............................
........................................................................
   1    -83.7831400 -0.837831E+02  0.134E-02    2.41       0.0  T
   2    -83.7831423 -0.228403E-05  0.688E-03    2.41       2.2  T
   3    -83.7831425 -0.200657E-06  0.386E-03    2.41       4.0  T
   4    -83.7831425 -0.605226E-07  0.377E-04    2.41      40.9  T
   5    -83.7831425 -0.288209E-08  0.124E-04    2.41     124.2  T
   6    -83.7831425 -0.156433E-09  0.411E-05    2.41     375.7  T
     SCC iter.                  ...        0 min,  0.022 sec
     gradient                   ...        0 min,  0.084 sec
 * total energy  :   -83.0011470 Eh     change       -0.5025250E-04 Eh
   gradient norm :     0.0139398 Eh/α   predicted    -0.1479343E-03 ( 194.38%)
   displ. norm   :     0.2231703 α      lambda       -0.3839805E-03
   maximum displ.:     0.1664565 α      in ANC's #3, #14, #10, ...

........................................................................
.............................. CYCLE   40 ..............................
........................................................................
   1    -83.7898017 -0.837898E+02  0.165E-02    2.42       0.0  T
   2    -83.7898101 -0.834170E-05  0.841E-03    2.42       1.8  T
   3    -83.7898108 -0.758073E-06  0.478E-03    2.42       3.2  T
   4    -83.7898108 -0.306184E-07  0.830E-04    2.42      18.6  T
   5    -83.7898109 -0.822118E-08  0.234E-04    2.42      66.0  T
   6    -83.7898109 -0.169746E-08  0.443E-05    2.42     348.6  T
   7    -83.7898109 -0.594724E-10  0.129E-05    2.42    1193.8  T
     SCC iter.                  ...        0 min,  0.026 sec
     gradient                   ...        0 min,  0.084 sec
 * total energy  :   -83.0013074 Eh     change       -0.1603971E-03 Eh
   gradient norm :     0.0098825 Eh/α   predicted    -0.2015613E-03 (  25.66%)
   displ. norm   :     0.1663098 α      lambda       -0.2248417E-03
   maximum displ.:     0.1073646 α      in ANC's #3, #19, #7, ...

........................................................................
.............................. CYCLE   41 ..............................
........................................................................
   1    -83.7896170 -0.837896E+02  0.119E-02    2.42       0.0  T
   2    -83.7896213 -0.428750E-05  0.573E-03    2.42       2.7  T
   3    -83.7896214 -0.166922E-06  0.303E-03    2.42       5.1  T
   4    -83.7896215 -0.167559E-07  0.834E-04    2.42      18.5  T
   5    -83.7896215 -0.708712E-08  0.213E-04    2.42      72.5  T
   6    -83.7896215 -0.978488E-09  0.349E-05    2.42     442.1  T
   7    -83.7896215 -0.179767E-10  0.109E-05    2.42    1409.3  T
     SCC iter.                  ...        0 min,  0.026 sec
     gradient                   ...        0 min,  0.084 sec
 * total energy  :   -83.0014193 Eh     change       -0.1119412E-03 Eh
   gradient norm :     0.0075259 Eh/α   predicted    -0.1155309E-03 (   3.21%)
   displ. norm   :     0.1482951 α      lambda       -0.1225392E-03
   maximum displ.:     0.0748324 α      in ANC's #3, #9, #19, ...

........................................................................
.............................. CYCLE   42 ..............................
........................................................................
   1    -83.7884898 -0.837885E+02  0.358E-03    2.41       0.0  T
   2    -83.7884902 -0.431499E-06  0.198E-03    2.41       7.8  T
   3    -83.7884903 -0.524784E-07  0.103E-03    2.41      15.0  T
   4    -83.7884903 -0.129913E-08  0.195E-04    2.41      79.1  T
   5    -83.7884903 -0.333145E-09  0.492E-05    2.41     313.7  T
     SCC iter.                  ...        0 min,  0.019 sec
     gradient                   ...        0 min,  0.084 sec
 * total energy  :   -83.0015145 Eh     change       -0.9520626E-04 Eh
   gradient norm :     0.0067119 Eh/α   predicted    -0.6261830E-04 ( -34.23%)
   displ. norm   :     0.2590768 α      lambda       -0.2166007E-03
   maximum displ.:     0.1298835 α      in ANC's #3, #9, #22, ...
 * RMSD in coord.:     0.6486331 α      energy gain  -0.1149820E-01 Eh

generating ANC from model Hessian ...
Using Lindh-Hessian (1995)
 Shifting diagonal of input Hessian by   9.783238271089038E-003
 Lowest  eigenvalues of input Hessian
    0.000000    0.000000    0.000000    0.000000    0.000000    0.000000
    0.010000    0.010127    0.010673    0.010704    0.011434    0.012235
    0.013081    0.014123    0.015091    0.015362    0.016459    0.017264
 Highest eigenvalues
    2.144205    2.180907    2.238231    2.379540    2.405751    2.409553
 

........................................................................
.............................. CYCLE   43 ..............................
........................................................................
   1    -83.7867190 -0.837867E+02  0.654E-03    2.41       0.0  T
   2    -83.7867206 -0.160326E-05  0.385E-03    2.41       4.0  T
   3    -83.7867207 -0.154570E-06  0.202E-03    2.41       7.6  T
   4    -83.7867207 -0.904423E-08  0.564E-04    2.41      27.4  T
   5    -83.7867207 -0.138800E-08  0.855E-05    2.41     180.5  T
   6    -83.7867207 -0.141753E-09  0.337E-05    2.41     458.3  T
     SCC iter.                  ...        0 min,  0.022 sec
     gradient                   ...        0 min,  0.084 sec
 * total energy  :   -83.0016381 Eh     change       -0.1235548E-03 Eh
   gradient norm :     0.0089404 Eh/α   predicted     0.0000000E+00 (-100.00%)
   displ. norm   :     0.0639644 α      lambda       -0.1427097E-03
   maximum displ.:     0.0239553 α      in ANC's #10, #22, #19, ...

........................................................................
.............................. CYCLE   44 ..............................
........................................................................
   1    -83.7889762 -0.837890E+02  0.643E-03    2.41       0.0  T
   2    -83.7889776 -0.143000E-05  0.322E-03    2.41       4.8  T
   3    -83.7889777 -0.125495E-06  0.182E-03    2.41       8.5  T
   4    -83.7889777 -0.587345E-08  0.413E-04    2.41      37.4  T
   5    -83.7889777 -0.100964E-08  0.878E-05    2.41     175.8  T
   6    -83.7889777 -0.219330E-09  0.205E-05    2.41     751.4  T
     SCC iter.                  ...        0 min,  0.023 sec
     gradient                   ...        0 min,  0.084 sec
 * total energy  :   -83.0017658 Eh     change       -0.1276724E-03 Eh
   gradient norm :     0.0026473 Eh/α   predicted    -0.8633514E-04 ( -32.38%)
   displ. norm   :     0.1537129 α      lambda       -0.2039638E-03
   maximum displ.:     0.0586943 α      in ANC's #19, #10, #15, ...

........................................................................
.............................. CYCLE   45 ..............................
........................................................................
   1    -83.7906874 -0.837907E+02  0.571E-03    2.40       0.0  T
   2    -83.7906886 -0.119065E-05  0.270E-03    2.40       5.7  T
   3    -83.7906887 -0.975975E-07  0.144E-03    2.40      10.7  T
   4    -83.7906887 -0.524547E-08  0.450E-04    2.40      34.3  T
   5    -83.7906887 -0.528402E-09  0.630E-05    2.40     245.0  T
   6    -83.7906887 -0.101537E-09  0.192E-05    2.40     802.9  T
     SCC iter.                  ...        0 min,  0.021 sec
     gradient                   ...        0 min,  0.084 sec
 * total energy  :   -83.0019275 Eh     change       -0.1617111E-03 Eh
   gradient norm :     0.0042351 Eh/α   predicted    -0.1043996E-03 ( -35.44%)
   displ. norm   :     0.3685929 α      lambda       -0.3648526E-03
   maximum displ.:     0.1429718 α      in ANC's #19, #15, #10, ...

........................................................................
.............................. CYCLE   46 ..............................
........................................................................
   1    -83.7887508 -0.837888E+02  0.118E-02    2.39       0.0  T
   2    -83.7887577 -0.686216E-05  0.450E-03    2.39       3.4  T
   3    -83.7887579 -0.230942E-06  0.241E-03    2.39       6.4  T
   4    -83.7887579 -0.105109E-07  0.102E-03    2.39      15.2  T
   5    -83.7887579 -0.513079E-08  0.207E-04    2.39      74.5  T
   6    -83.7887579 -0.109482E-08  0.368E-05    2.39     419.1  T
   7    -83.7887579 -0.294875E-10  0.138E-05    2.39    1119.7  T
     SCC iter.                  ...        0 min,  0.025 sec
     gradient                   ...        0 min,  0.084 sec
 * total energy  :   -83.0021877 Eh     change       -0.2602065E-03 Eh
   gradient norm :     0.0088297 Eh/α   predicted    -0.2072150E-03 ( -20.37%)
   displ. norm   :     0.2648224 α      lambda       -0.2183992E-03
   maximum displ.:     0.1005802 α      in ANC's #15, #19, #4, ...

........................................................................
.............................. CYCLE   47 ..............................
........................................................................
   1    -83.7864453 -0.837864E+02  0.800E-03    2.39       0.0  T
   2    -83.7864468 -0.151908E-05  0.445E-03    2.39       3.5  T
   3    -83.7864470 -0.187680E-06  0.249E-03    2.39       6.2  T
   4    -83.7864470 -0.122205E-07  0.324E-04    2.39      47.6  T
   5    -83.7864470 -0.160406E-08  0.112E-04    2.39     138.3  T
   6    -83.7864470 -0.327518E-09  0.265E-05    2.39     582.6  T
     SCC iter.                  ...        0 min,  0.021 sec
     gradient                   ...        0 min,  0.084 sec
 * total energy  :   -83.0023066 Eh     change       -0.1188837E-03 Eh
   gradient norm :     0.0142732 Eh/α   predicted    -0.1169030E-03 (  -1.67%)
   displ. norm   :     0.0769413 α      lambda       -0.2671826E-03
   maximum displ.:     0.0303741 α      in ANC's #15, #6, #5, ...

........................................................................
.............................. CYCLE   48 ..............................
........................................................................
   1    -83.7889608 -0.837890E+02  0.119E-02    2.39       0.0  T
   2    -83.7889680 -0.712478E-05  0.463E-03    2.39       3.3  T
   3    -83.7889681 -0.186244E-06  0.274E-03    2.39       5.6  T
   4    -83.7889682 -0.415736E-08  0.839E-04    2.39      18.4  T
   5    -83.7889682 -0.729386E-08  0.191E-04    2.39      80.7  T
   6    -83.7889682 -0.114279E-08  0.281E-05    2.39     550.0  T
     SCC iter.                  ...        0 min,  0.021 sec
     gradient                   ...        0 min,  0.084 sec
 * total energy  :   -83.0024410 Eh     change       -0.1344532E-03 Eh
   gradient norm :     0.0060988 Eh/α   predicted    -0.1343847E-03 (  -0.05%)
   displ. norm   :     0.1416730 α      lambda       -0.1490717E-03
   maximum displ.:     0.0541024 α      in ANC's #15, #24, #22, ...

........................................................................
.............................. CYCLE   49 ..............................
........................................................................
   1    -83.7884564 -0.837885E+02  0.628E-03    2.40       0.0  T
   2    -83.7884587 -0.230421E-05  0.254E-03    2.40       6.1  T
   3    -83.7884587 -0.702228E-07  0.131E-03    2.40      11.8  T
   4    -83.7884587 -0.359837E-08  0.587E-04    2.40      26.3  T
   5    -83.7884587 -0.184140E-08  0.106E-04    2.40     146.1  T
   6    -83.7884587 -0.221021E-09  0.228E-05    2.40     675.4  T
     SCC iter.                  ...        0 min,  0.021 sec
     gradient                   ...        0 min,  0.084 sec
 * total energy  :   -83.0025441 Eh     change       -0.1030218E-03 Eh
   gradient norm :     0.0076579 Eh/α   predicted    -0.7603607E-04 ( -26.19%)
   displ. norm   :     0.1508859 α      lambda       -0.1284273E-03
   maximum displ.:     0.0587116 α      in ANC's #15, #1, #5, ...

........................................................................
.............................. CYCLE   50 ..............................
........................................................................
   1    -83.7887810 -0.837888E+02  0.457E-03    2.40       0.0  T
   2    -83.7887821 -0.107500E-05  0.196E-03    2.40       7.9  T
   3    -83.7887822 -0.843665E-07  0.741E-04    2.40      20.8  T
   4    -83.7887822 -0.975817E-09  0.328E-04    2.40      47.0  T
   5    -83.7887822 -0.538805E-09  0.525E-05    2.40     294.0  T
   6    -83.7887822 -0.279954E-10  0.187E-05    2.40     826.2  T
     SCC iter.                  ...        0 min,  0.022 sec
     gradient                   ...        0 min,  0.084 sec
 * total energy  :   -83.0026378 Eh     change       -0.9378967E-04 Eh
   gradient norm :     0.0082222 Eh/α   predicted    -0.6567630E-04 ( -29.97%)
   displ. norm   :     0.1991788 α      lambda       -0.1374573E-03
   maximum displ.:     0.0748231 α      in ANC's #5, #1, #15, ...

........................................................................
.............................. CYCLE   51 ..............................
........................................................................
   1    -83.7893992 -0.837894E+02  0.428E-03    2.40       0.0  T
   2    -83.7893999 -0.650955E-06  0.179E-03    2.40       8.6  T
   3    -83.7894000 -0.776084E-07  0.667E-04    2.40      23.1  T
   4    -83.7894000 -0.104052E-08  0.222E-04    2.40      69.6  T
   5    -83.7894000 -0.209965E-09  0.506E-05    2.40     304.9  T
   6    -83.7894000 -0.355413E-10  0.171E-05    2.40     900.7  T
     SCC iter.                  ...        0 min,  0.022 sec
     gradient                   ...        0 min,  0.084 sec
 * total energy  :   -83.0027446 Eh     change       -0.1067345E-03 Eh
   gradient norm :     0.0077981 Eh/α   predicted    -0.7147084E-04 ( -33.04%)
   displ. norm   :     0.2835852 α      lambda       -0.1730910E-03
   maximum displ.:     0.1160620 α      in ANC's #5, #1, #15, ...

........................................................................
.............................. CYCLE   52 ..............................
........................................................................
   1    -83.7895549 -0.837896E+02  0.522E-03    2.40       0.0  T
   2    -83.7895558 -0.891837E-06  0.189E-03    2.39       8.1  T
   3    -83.7895559 -0.855959E-07  0.856E-04    2.39      18.0  T
   4    -83.7895559 -0.358961E-08  0.313E-04    2.39      49.4  T
   5    -83.7895559 -0.204608E-09  0.721E-05    2.39     214.0  T
   6    -83.7895559 -0.581650E-10  0.243E-05    2.39     635.8  T
     SCC iter.                  ...        0 min,  0.022 sec
     gradient                   ...        0 min,  0.084 sec
 * total energy  :   -83.0028761 Eh     change       -0.1314974E-03 Eh
   gradient norm :     0.0067724 Eh/α   predicted    -0.9350614E-04 ( -28.89%)
   displ. norm   :     0.3095298 α      lambda       -0.1810320E-03
   maximum displ.:     0.1365046 α      in ANC's #5, #1, #7, ...

........................................................................
.............................. CYCLE   53 ..............................
........................................................................
   1    -83.7906235 -0.837906E+02  0.652E-03    2.39       0.0  T
   2    -83.7906250 -0.150072E-05  0.260E-03    2.39       5.9  T
   3    -83.7906251 -0.122081E-06  0.140E-03    2.39      11.0  T
   4    -83.7906251 -0.813868E-08  0.487E-04    2.39      31.7  T
   5    -83.7906251 -0.299707E-09  0.888E-05    2.39     173.8  T
   6    -83.7906251 -0.935643E-10  0.244E-05    2.39     632.6  T
     SCC iter.                  ...        0 min,  0.022 sec
     gradient                   ...        0 min,  0.084 sec
 * total energy  :   -83.0030025 Eh     change       -0.1264755E-03 Eh
   gradient norm :     0.0042365 Eh/α   predicted    -0.9918899E-04 ( -21.57%)
   displ. norm   :     0.6800520 α      lambda       -0.2933099E-03
   maximum displ.:     0.2922232 α      in ANC's #1, #5, #15, ...

........................................................................
.............................. CYCLE   54 ..............................
........................................................................
   1    -83.7770289 -0.837770E+02  0.386E-02    2.38       0.0  T
   2    -83.7770673 -0.383950E-04  0.208E-02    2.38       1.0  T
   3    -83.7770723 -0.494862E-05  0.118E-02    2.38       1.3  T
   4    -83.7770725 -0.239908E-06  0.161E-03    2.38       9.6  T
   5    -83.7770725 -0.427645E-07  0.500E-04    2.38      30.8  T
   6    -83.7770725 -0.793167E-08  0.957E-05    2.38     161.2  T
   7    -83.7770725 -0.348578E-09  0.233E-05    2.38     663.2  T
     SCC iter.                  ...        0 min,  0.025 sec
     gradient                   ...        0 min,  0.084 sec
 * total energy  :   -83.0022610 Eh     change        0.7415040E-03 Eh
   gradient norm :     0.0389047 Eh/α   predicted    -0.2144867E-03 (-128.93%)
   displ. norm   :     0.2918628 α      lambda       -0.2096098E-02
   maximum displ.:     0.1050574 α      in ANC's #15, #22, #19, ...

........................................................................
.............................. CYCLE   55 ..............................
........................................................................
   1    -83.7904039 -0.837904E+02  0.394E-02    2.39       0.0  T
   2    -83.7904497 -0.458669E-04  0.207E-02    2.39       1.0  T
   3    -83.7904545 -0.473687E-05  0.118E-02    2.39       1.3  T
   4    -83.7904547 -0.197022E-06  0.181E-03    2.39       8.5  T
   5    -83.7904547 -0.489253E-07  0.552E-04    2.39      28.0  T
   6    -83.7904547 -0.102107E-07  0.106E-04    2.39     146.2  T
   7    -83.7904547 -0.452218E-09  0.216E-05    2.39     715.7  T
     SCC iter.                  ...        0 min,  0.025 sec
     gradient                   ...        0 min,  0.084 sec
 * total energy  :   -83.0031336 Eh     change       -0.8725170E-03 Eh
   gradient norm :     0.0054116 Eh/α   predicted    -0.1137328E-02 (  30.35%)
   displ. norm   :     0.0609393 α      lambda       -0.1051640E-03
   maximum displ.:     0.0261033 α      in ANC's #1, #15, #18, ...

........................................................................
.............................. CYCLE   56 ..............................
........................................................................
   1    -83.7916857 -0.837917E+02  0.964E-03    2.39       0.0  T
   2    -83.7916886 -0.289200E-05  0.451E-03    2.39       3.4  T
   3    -83.7916887 -0.940274E-07  0.243E-03    2.39       6.3  T
   4    -83.7916887 -0.103415E-07  0.615E-04    2.39      25.1  T
   5    -83.7916887 -0.453130E-08  0.172E-04    2.39      89.5  T
   6    -83.7916887 -0.618414E-09  0.256E-05    2.39     602.8  T
     SCC iter.                  ...        0 min,  0.021 sec
     gradient                   ...        0 min,  0.084 sec
 * total energy  :   -83.0031669 Eh     change       -0.3329231E-04 Eh
   gradient norm :     0.0063596 Eh/α   predicted    -0.5278371E-04 (  58.55%)
   displ. norm   :     0.0953293 α      lambda       -0.8589249E-04
   maximum displ.:     0.0628179 α      in ANC's #1, #10, #15, ...

........................................................................
.............................. CYCLE   57 ..............................
........................................................................
   1    -83.7909203 -0.837909E+02  0.349E-03    2.40       0.0  T
   2    -83.7909203 -0.719230E-07  0.184E-03    2.40       8.4  T
   3    -83.7909203 -0.255292E-08  0.853E-04    2.40      18.1  T
   4    -83.7909203 -0.606889E-08  0.110E-04    2.40     140.2  T
   5    -83.7909203 -0.106951E-09  0.312E-05    2.40     495.0  T
     SCC iter.                  ...        0 min,  0.018 sec
     gradient                   ...        0 min,  0.084 sec
 * total energy  :   -83.0032333 Eh     change       -0.6641258E-04 Eh
   gradient norm :     0.0044978 Eh/α   predicted    -0.4334836E-04 ( -34.73%)
   displ. norm   :     0.2681545 α      lambda       -0.1256273E-03
   maximum displ.:     0.1865412 α      in ANC's #1, #10, #3, ...

........................................................................
.............................. CYCLE   58 ..............................
........................................................................
   1    -83.7896040 -0.837896E+02  0.431E-03    2.40       0.0  T
   2    -83.7896042 -0.193508E-06  0.223E-03    2.40       6.9  T
   3    -83.7896042 -0.144845E-07  0.118E-03    2.40      13.1  T
   4    -83.7896042 -0.627813E-08  0.137E-04    2.40     113.0  T
   5    -83.7896042 -0.269679E-09  0.421E-05    2.40     366.3  T
     SCC iter.                  ...        0 min,  0.018 sec
     gradient                   ...        0 min,  0.084 sec
 * total energy  :   -83.0033190 Eh     change       -0.8577955E-04 Eh
   gradient norm :     0.0051115 Eh/α   predicted    -0.6733224E-04 ( -21.51%)
   displ. norm   :     0.2277055 α      lambda       -0.7865828E-04
   maximum displ.:     0.1671021 α      in ANC's #1, #10, #3, ...

........................................................................
.............................. CYCLE   59 ..............................
........................................................................
   1    -83.7895991 -0.837896E+02  0.244E-03    2.40       0.0  T
   2    -83.7895992 -0.131453E-06  0.119E-03    2.40      12.9  T
   3    -83.7895992 -0.852474E-08  0.620E-04    2.40      24.9  T
   4    -83.7895992 -0.100172E-08  0.146E-04    2.40     105.9  T
   5    -83.7895992 -0.181643E-09  0.333E-05    2.40     463.6  T
     SCC iter.                  ...        0 min,  0.018 sec
     gradient                   ...        0 min,  0.084 sec
 * total energy  :   -83.0033818 Eh     change       -0.6280186E-04 Eh
   gradient norm :     0.0050793 Eh/α   predicted    -0.4137225E-04 ( -34.12%)
   displ. norm   :     0.3612839 α      lambda       -0.1366160E-03
   maximum displ.:     0.2737572 α      in ANC's #1, #10, #3, ...

........................................................................
.............................. CYCLE   60 ..............................
........................................................................
   1    -83.7903538 -0.837904E+02  0.432E-03    2.41       0.0  T
[...]
C4-C6-C3=111.78                N7-C6-C3=105.37                N7-C6-C4=109.87                C24-C6-C3=103.84               
C24-C6-C4=111.48               C24-C6-N7=114.22               C8-N7-C6=121.22                C9-C8-N7=119.98                
N21-C8-N7=123.81               N21-C8-C9=116.20               C10-C9-C8=109.62               C11-C9-C8=110.15               
C11-C9-C10=111.44              N12-C9-C8=106.18               N12-C9-C10=109.85              N12-C9-C11=109.47              
H32-C10-C9=109.68              H33-C10-C9=109.91              H33-C10-H32=109.22             H34-C10-C9=109.89              
H34-C10-H32=108.94             H34-C10-H33=109.18             
 
 selected dihedral angles (degree)
 ---------------------------------
C3-O2-C1-H26=183.95           C3-O2-C1-H27= 64.48           C3-O2-C1-H28=303.90           O5-C3-O2-C1=  1.66            
C6-C3-O2-C1=180.22            C4-C6-C3-O2= 24.33            C4-C6-C3-O5=202.95            N7-C6-C3-O2=143.64            
N7-C6-C3-O5=322.26            C24-C6-C3-O2=264.03           C24-C6-C3-O5= 82.65           C3-C6-C4-H29=174.56           
C3-C6-C4-H30= 54.93           C3-C6-C4-H31=294.41           N7-C6-C4-H29= 57.95           N7-C6-C4-H30=298.31           
N7-C6-C4-H31=177.80           C24-C6-C4-H29=290.29          C24-C6-C4-H30=170.66          C24-C6-C4-H31= 50.14          
C8-N7-C6-C3= 89.70            C8-N7-C6-C4=210.28            C8-N7-C6-C24=336.40           C9-C8-N7-C6=184.39            
N21-C8-N7-C6=  5.51           C10-C9-C8-N7=246.61           C10-C9-C8-N21= 65.57          C11-C9-C8-N7=123.64           
C11-C9-C8-N21=302.61          N12-C9-C8-N7=  5.21           N12-C9-C8-N21=184.18          H32-C10-C9-C8=180.79          
H32-C10-C9-C11=302.99         H32-C10-C9-N12= 64.49         H33-C10-C9-C8= 60.70          H33-C10-C9-C11=182.90         
H33-C10-C9-N12=304.40         H34-C10-C9-C8=300.53          H34-C10-C9-C11= 62.73         H34-C10-C9-N12=184.23         
           -------------------------------------------------
          |                Final Singlepoint                |
           -------------------------------------------------

          ...................................................
          :                      SETUP                      :
          :.................................................:
          :  # basis functions                 134          :
          :  # atomic orbitals                 134          :
          :  # shells                           84          :
          :  # electrons                       134          :
          :  # halogen bonds                     0          :
          :  max. iterations                   250          :
          :  Hamiltonian                  GFN1-xTB          :
          :  restarted?                      false          :
          :  GBSA solvation                   true          :
          :  PC potential                    false          :
          :  electronic temp.          300.0000000     K    :
          :  accuracy                    1.0000000          :
          :  -> integral cutoff          0.2500000E+02      :
          :  -> integral neglect         0.1000000E-07      :
          :  -> SCF convergence          0.1000000E-05 Eh   :
          :  -> wf. convergence          0.2000000E-04 e    :
          :  Broyden damping             0.4000000          :
          ...................................................

 iter      E             dE          RMSdq      gap      omega  full diag
   1    -83.7927065 -0.837927E+02  0.985E-06    2.41       0.0  T
   2    -83.7927065 -0.767386E-12  0.448E-06    2.41    3446.5  T
   3    -83.7927065 -0.270006E-12  0.234E-06    2.41    6585.9  T

   *** convergence criteria satisfied after 3 iterations ***

         #    Occupation            Energy/Eh            Energy/eV
      -------------------------------------------------------------
         1        2.0000           -0.8651496             -23.5419
       ...           ...                  ...                  ...
        61        2.0000           -0.4709768             -12.8159
        62        2.0000           -0.4635319             -12.6133
        63        2.0000           -0.4620661             -12.5735
        64        2.0000           -0.4588708             -12.4865
        65        2.0000           -0.4513050             -12.2806
        66        2.0000           -0.4474649             -12.1761
        67        2.0000           -0.4419408             -12.0258 (HOMO)
        68                         -0.3533929              -9.6163 (LUMO)
        69                         -0.3094659              -8.4210
        70                         -0.2976551              -8.0996
        71                         -0.2704958              -7.3606
        72                         -0.2567218              -6.9858
       ...                                ...                  ...
       134                          0.7585784              20.6420
      -------------------------------------------------------------
                  HL-Gap            0.0885479 Eh            2.4095 eV
             Fermi-level           -0.3976668 Eh          -10.8211 eV

 SCC (total)                   0 d,  0 h,  0 min,  0.138 sec
 SCC setup                      ...        0 min,  0.001 sec (  0.997%)
 Dispersion                     ...        0 min,  0.000 sec (  0.215%)
 classical contributions        ...        0 min,  0.000 sec (  0.063%)
 integral evaluation            ...        0 min,  0.037 sec ( 27.058%)
 iterations                     ...        0 min,  0.012 sec (  8.888%)
 molecular gradient             ...        0 min,  0.085 sec ( 62.059%)
 printout                       ...        0 min,  0.001 sec (  0.675%)

         :::::::::::::::::::::::::::::::::::::::::::::::::::::
         ::                     SUMMARY                     ::
         :::::::::::::::::::::::::::::::::::::::::::::::::::::
         :: total energy             -83.004727524406 Eh    ::
         :: total w/o Gsasa/hb       -82.984749105806 Eh    ::
         :: gradient norm              0.000629512466 Eh/a0 ::
         :: HOMO-LUMO gap              2.409511218665 eV    ::
         ::.................................................::
         :: SCC energy               -83.792706461369 Eh    ::
         :: -> electrostatic           0.356753442684 Eh    ::
         :: -> Gsolv                  -0.054423247146 Eh    ::
         ::    -> Gelec               -0.034444828547 Eh    ::
         ::    -> Gsasa               -0.023795622485 Eh    ::
         ::    -> Ghb                 -0.003807075119 Eh    ::
         ::    -> Gshift               0.007624279005 Eh    ::
         :: repulsion energy           0.814691983893 Eh    ::
         :: dispersion energy         -0.026713046929 Eh    ::
         :: halogen bond corr.         0.000000000000 Eh    ::
         :: add. restraining           0.000000000000 Eh    ::
         :: total charge               0.000000000000 e     ::
         :::::::::::::::::::::::::::::::::::::::::::::::::::::

           -------------------------------------------------
          |                Property Printout                |
           -------------------------------------------------

    * Orbital Energies and Occupations

         #    Occupation            Energy/Eh            Energy/eV
      -------------------------------------------------------------
         1        2.0000           -0.8651496             -23.5419
       ...           ...                  ...                  ...
        55        2.0000           -0.5108542             -13.9011
        56        2.0000           -0.5054629             -13.7543
        57        2.0000           -0.5044149             -13.7258
        58        2.0000           -0.5031112             -13.6904
        59        2.0000           -0.4921036             -13.3908
        60        2.0000           -0.4797488             -13.0546
        61        2.0000           -0.4709768             -12.8159
        62        2.0000           -0.4635319             -12.6133
        63        2.0000           -0.4620661             -12.5735
        64        2.0000           -0.4588708             -12.4865
        65        2.0000           -0.4513050             -12.2806
        66        2.0000           -0.4474649             -12.1761
        67        2.0000           -0.4419408             -12.0258 (HOMO)
        68                         -0.3533929              -9.6163 (LUMO)
        69                         -0.3094659              -8.4210
        70                         -0.2976551              -8.0996
        71                         -0.2704958              -7.3606
        72                         -0.2567218              -6.9858
        73                         -0.2258729              -6.1463
        74                         -0.1972943              -5.3687
        75                         -0.1460722              -3.9748
        76                         -0.1430468              -3.8925
        77                         -0.1421149              -3.8671
        78                         -0.1259523              -3.4273
       ...                                ...                  ...
       134                          0.7585784              20.6420
      -------------------------------------------------------------
                  HL-Gap            0.0885479 Eh            2.4095 eV
             Fermi-level           -0.3976668 Eh          -10.8211 eV

  Mulliken/CM5 charges         n(s)   n(p)   n(d)
     1C     0.15969  0.03810   0.986  2.854  0.000
     2O    -0.39550 -0.48628   1.682  4.713  0.000
     3C     0.59012  0.65810   0.973  2.437  0.000
     4C    -0.08584 -0.22321   1.014  3.072  0.000
     5O    -0.53816 -0.58345   1.721  4.817  0.000
     6C     0.09967  0.15493   1.073  2.827  0.000
     7N    -0.38659 -0.58079   1.534  3.852  0.000
     8C     0.29697  0.44952   1.020  2.683  0.000
     9C     0.15308  0.19409   1.064  2.783  0.000
    10C    -0.10844 -0.24799   1.021  3.087  0.000
    11C    -0.10824 -0.24792   1.021  3.087  0.000
    12N    -0.33432 -0.68534   1.428  3.906  0.000
    13C     0.46781  0.57730   0.974  2.558  0.000
    14O    -0.58144 -0.62686   1.727  4.855  0.000
    15C     0.33078  0.45665   1.009  2.660  0.000
    16N    -0.22361 -0.32753   1.566  3.657  0.000
    17N    -0.26911 -0.37692   1.564  3.705  0.000
    18C     0.39070  0.49940   1.007  2.602  0.000
    19C    -0.11141 -0.24881   1.012  3.100  0.000
    20O    -0.35838 -0.41474   1.697  4.661  0.000
    21N    -0.30683 -0.65412   1.433  3.874  0.000
    22C     0.46596  0.57212   0.999  2.536  0.000
    23O    -0.52271 -0.56184   1.724  4.799  0.000
    24C     0.36748  0.41465   1.080  2.552  0.000
    25O    -0.46728 -0.51366   1.728  4.739  0.000
    26H     0.06623  0.12658   0.934  0.000  0.000
    27H     0.06254  0.12376   0.937  0.000  0.000
    28H     0.06199  0.12390   0.938  0.000  0.000
    29H     0.05788  0.11453   0.942  0.000  0.000
    30H     0.05697  0.11489   0.943  0.000  0.000
    31H     0.06166  0.12218   0.938  0.000  0.000
    32H     0.06919  0.12933   0.931  0.000  0.000
    33H     0.05099  0.10793   0.949  0.000  0.000
    34H     0.04733  0.10386   0.953  0.000  0.000
    35H     0.04771  0.10429   0.952  0.000  0.000
    36H     0.06948  0.13032   0.931  0.000  0.000
    37H     0.05310  0.11020   0.947  0.000  0.000
    38H     0.25912  0.47576   0.741  0.000  0.000
    39H     0.06974  0.12555   0.930  0.000  0.000
    40H     0.07873  0.13321   0.921  0.000  0.000
    41H     0.07873  0.13327   0.921  0.000  0.000
    42H     0.28422  0.48503   0.716  0.000  0.000

Wiberg/Mayer (AO) data.
largest (>0.10) Wiberg bond orders for each atom

 ---------------------------------------------------------------------------
     #   Z sym  total        # sym  WBO       # sym  WBO       # sym  WBO
 ---------------------------------------------------------------------------
     1   6 C    3.852 --    26 H    0.985    28 H    0.980    27 H    0.979
                             2 O    0.874
     2   8 O    2.232 --     3 C    1.159     1 C    0.874     5 O    0.140
     3   6 C    3.845 --     5 O    1.697     2 O    1.159     6 C    0.863
     4   6 C    3.984 --    30 H    0.985    29 H    0.983    31 H    0.982
                             6 C    0.981
     5   8 O    1.965 --     3 C    1.697     2 O    0.140
     6   6 C    3.962 --     4 C    0.981     7 N    0.979    24 C    0.950
                             3 C    0.863
     7   7 N    3.049 --     8 C    1.751     6 C    0.979
     8   6 C    3.926 --     7 N    1.751    21 N    1.072     9 C    0.980
     9   6 C    3.939 --     8 C    0.980    11 C    0.979    10 C    0.977
                            12 N    0.937
    10   6 C    3.986 --    33 H    0.985    34 H    0.984    32 H    0.978
                             9 C    0.977
    11   6 C    3.987 --    37 H    0.985    35 H    0.982     9 C    0.979
                            36 H    0.977
    12   7 N    3.361 --    13 C    1.270     9 C    0.937    38 H    0.875
                            14 O    0.179
    13   6 C    3.919 --    14 O    1.576    12 N    1.270    15 C    0.991
    14   8 O    1.897 --    13 C    1.576    12 N    0.179
    15   6 C    3.872 --    16 N    1.624    20 O    1.047    13 C    0.991
    16   7 N    2.999 --    15 C    1.624    17 N    1.197
    17   7 N    2.982 --    18 C    1.613    16 N    1.197
    18   6 C    3.869 --    17 N    1.613    20 O    1.072    19 C    1.031
    19   6 C    3.987 --    18 C    1.031    39 H    0.982    41 H    0.964
                            40 H    0.963
    20   8 O    2.315 --    18 C    1.072    15 C    1.047
    21   7 N    3.429 --    22 C    1.184     8 C    1.072    42 H    0.880
                            23 O    0.148
    22   6 C    3.892 --    23 O    1.676    21 N    1.184    24 C    0.906
    23   8 O    1.960 --    22 C    1.676    21 N    0.148
    24   6 C    3.848 --    25 O    1.813     6 C    0.950    22 C    0.906
    25   8 O    2.027 --    24 C    1.813
    26   1 H    1.007 --     1 C    0.985
    27   1 H    1.003 --     1 C    0.979
    28   1 H    1.004 --     1 C    0.980
    29   1 H    1.000 --     4 C    0.983
    30   1 H    1.003 --     4 C    0.985
    31   1 H    1.007 --     4 C    0.982
    32   1 H    1.008 --    10 C    0.978
    33   1 H    1.001 --    10 C    0.985
    34   1 H    0.999 --    10 C    0.984
    35   1 H    0.998 --    11 C    0.982
    36   1 H    1.007 --    11 C    0.977
    37   1 H    1.000 --    11 C    0.985
    38   1 H    0.956 --    12 N    0.875
    39   1 H    0.998 --    19 C    0.982
    40   1 H    0.997 --    19 C    0.963
    41   1 H    0.997 --    19 C    0.964
    42   1 H    0.928 --    21 N    0.880
 ---------------------------------------------------------------------------

Topologies differ in total number of bonds
Writing topology from bond orders to xtbtopo.mol

 dipole moment from electron density (au)
     X       Y       Z   
  -0.7746   2.0517   1.8616  total (Debye):    7.312

           -------------------------------------------------
          |                Geometry Summary                 |
           -------------------------------------------------

      molecular mass/u    :      351.3152409
   center of mass at/Å    :       -0.0041955      -0.2575574      -0.1129051
  moments of inertia/u·Å² :        0.1536092E+04   0.3565817E+04   0.4517741E+04
rotational constants/cm⁻¹ :        0.1097437E-01   0.4727565E-02   0.3731430E-02

 * 36 selected distances

     #   Z          #   Z                                           value/Å
     1   6 C        2   8 O                                       1.4369633
     2   8 O        3   6 C                                       1.3146017
     3   6 C        5   8 O                                       1.2016040
     4   6 C        6   6 C                                       1.5285607
     7   7 N        8   6 C                                       1.2676667
     9   6 C       10   6 C                                       1.5354035 (max)
     9   6 C       11   6 C                                       1.5352801
     9   6 C       12   7 N                                       1.4597099
    12   7 N       13   6 C                                       1.3443173
    13   6 C       14   8 O                                       1.2214140
    15   6 C       16   7 N                                       1.2967203
    17   7 N       18   6 C                                       1.2964247
    18   6 C       19   6 C                                       1.4790229
    15   6 C       20   8 O                                       1.3514890
    18   6 C       20   8 O                                       1.3437181
     8   6 C       21   7 N                                       1.3877698
    21   7 N       22   6 C                                       1.3632359
    22   6 C       23   8 O                                       1.2094922
    24   6 C       25   8 O                                       1.2026633
     1   6 C       26   1 H                                       1.0873690
     1   6 C       27   1 H                                       1.0912599
     1   6 C       28   1 H                                       1.0916005
     4   6 C       29   1 H                                       1.0882669
     4   6 C       30   1 H                                       1.0868920
     4   6 C       31   1 H                                       1.0881870
    10   6 C       32   1 H                                       1.0885382
    10   6 C       33   1 H                                       1.0886812
    10   6 C       34   1 H                                       1.0878623
    11   6 C       35   1 H                                       1.0876576
    11   6 C       36   1 H                                       1.0885576
    11   6 C       37   1 H                                       1.0889300
    12   7 N       38   1 H                                       1.0124181
    19   6 C       39   1 H                                       1.0874044
    19   6 C       40   1 H                                       1.0897294
    19   6 C       41   1 H                                       1.0897276
    21   7 N       42   1 H                                       1.0089062 (min)

 * 5 distinct bonds (by element types)

   Z      Z             #   av. dist./Å        max./Å        min./Å
   1 H    6 C          15     1.0887109     1.0916005     1.0868920
   6 C    6 C           4     1.5195668     1.5354035     1.4790229
   1 H    7 N           2     1.0106622     1.0124181     1.0089062
   6 C    7 N           7     1.3451207     1.4597099     1.2676667
   6 C    8 O           8     1.2852432     1.4369633     1.2016040


optimized geometry written to: xtbopt.xyz


           -------------------------------------------------
          | TOTAL ENERGY              -83.004727524406 Eh   |
          | GRADIENT NORM               0.000629512466 Eh/α |
          | HOMO-LUMO GAP               2.409511218665 eV   |
           -------------------------------------------------

------------------------------------------------------------------------
 * finished run on 2023/06/21 at 17:40:54.368     
------------------------------------------------------------------------
 total:
 * wall-time:     0 d,  0 h,  0 min, 15.481 sec
 *  cpu-time:     0 d,  0 h,  0 min, 15.297 sec
 * ratio c/w:     0.988 speedup
 SCF:
 * wall-time:     0 d,  0 h,  0 min,  0.187 sec
 *  cpu-time:     0 d,  0 h,  0 min,  0.186 sec
 * ratio c/w:     0.996 speedup
 ANC optimizer:
 * wall-time:     0 d,  0 h,  0 min, 15.186 sec
 *  cpu-time:     0 d,  0 h,  0 min, 15.062 sec
 * ratio c/w:     0.992 speedup

