42
 energy: -83.012306611005 gnorm: 0.000321857529 xtb: 6.5.1 (579679a)
C           -5.79071054236226       -2.00096647074753       -1.79065571268192
O           -4.84488501369400       -1.48163033887174       -0.85214199184903
C           -3.74868071913605       -0.92171273257831       -1.35903704260534
O           -3.53534181446112       -0.83644779568262       -2.54718927306406
C           -2.81298551560705       -0.40996285168400       -0.31463073588179
N           -1.67277671367232        0.15226578772968       -0.81834877620310
C           -0.75526728946745        0.64501809503508       -0.05265517679206
C            0.43760893365276        1.27540157515922       -0.76146204228937
C            0.40799496333318        2.79750966987103       -0.55960095889360
C            0.36988001111303        0.95035294855762       -2.26079451455681
N            1.66616827367140        0.68168492241945       -0.21714306657737
C            2.90485056840524        1.08313467666750       -0.58532470010157
O            3.16083397025425        2.04694532213430       -1.28534211308112
C            3.96974360664901        0.22156881242008       -0.01397825636887
N            5.25043453320729        0.32580345304052       -0.18761887978014
N            5.82762629930821       -0.68269568506591        0.52327070445290
C            4.86423641880111       -1.34179780386155        1.08764953048667
C            4.97008731257748       -2.52896192957344        1.96283203893018
O            3.66174028922678       -0.82221221151052        0.78753112807559
N           -0.87830638874003        0.64319786119736        1.31552867587670
C            0.08595307099872        1.21259528752258        2.25963518335688
C           -1.99797045120937        0.11105976732986        1.92698747878679
O           -2.14261404431262        0.11413640431613        3.14559926064828
C           -3.00334645947453       -0.45325193286980        1.03803716139508
O           -4.07500090970180       -0.97286461902669        1.64620816116448
H           -6.11278992030964       -1.21331690787301       -2.47632785473138
H           -5.34192496222597       -2.81694794178853       -2.36244769972890
H           -6.63556637292876       -2.36685277024530       -1.21072447451722
H            1.13521244429040        3.27709466202532       -1.21190874512392
H           -0.58558866334527        3.16690735000458       -0.80940917899998
H            0.63414546452378        3.06479897328399        0.46912959640853
H            0.37348355769027       -0.12799253745291       -2.40923530046423
H           -0.54278844464564        1.36261376328528       -2.68725340747578
H            1.23011558171578        1.38556943944499       -2.76634073539717
H            1.58332312018382       -0.21751682388409        0.22821979082307
H            6.01738481515610       -2.77254281995021        2.12471926890543
H            4.48703197124396       -2.33130340111364        2.91908800064527
H            4.46516163498382       -3.37699995897293        1.50034365416891
H            0.16623726513606        0.53035255743577        3.10556842284534
H           -0.28980435628027        2.17288539193945        2.61321634761540
H            1.05711695118085        1.33536405571169        1.79590333454872
H           -3.96002247569358       -0.88028424377340        2.61088289803872
