      -----------------------------------------------------------      
     |                   =====================                   |     
     |                           x T B                           |     
     |                   =====================                   |     
     |                         S. Grimme                         |     
     |          Mulliken Center for Theoretical Chemistry        |     
     |                    University of Bonn                     |     
      -----------------------------------------------------------      

   * xtb version 6.5.1 (579679a) compiled by 'ehlert@majestix' on 2022-07-11

   xtb is free software: you can redistribute it and/or modify it under
   the terms of the GNU Lesser General Public License as published by
   the Free Software Foundation, either version 3 of the License, or
   (at your option) any later version.
   
   xtb is distributed in the hope that it will be useful,
   but WITHOUT ANY WARRANTY; without even the implied warranty of
   MERCHANTABILITY or FITNESS FOR A PARTICULAR PURPOSE.  See the
   GNU Lesser General Public License for more details.
   
   Cite this work as:
   * C. Bannwarth, E. Caldeweyher, S. Ehlert, A. Hansen, P. Pracht,
     J. Seibert, S. Spicher, S. Grimme, WIREs Comput. Mol. Sci., 2020, 11,
     e01493. DOI: 10.1002/wcms.1493
   
   for GFN2-xTB:
   * C. Bannwarth, S. Ehlert and S. Grimme., J. Chem. Theory Comput., 2019,
     15, 1652-1671. DOI: 10.1021/acs.jctc.8b01176
   for GFN1-xTB:
   * S. Grimme, C. Bannwarth, P. Shushkov, J. Chem. Theory Comput., 2017,
     13, 1989-2009. DOI: 10.1021/acs.jctc.7b00118
   for GFN0-xTB:
   * P. Pracht, E. Caldeweyher, S. Ehlert, S. Grimme, ChemRxiv, 2019, preprint.
     DOI: 10.26434/chemrxiv.8326202.v1
   for GFN-FF:
   * S. Spicher and S. Grimme, Angew. Chem. Int. Ed., 2020, 59, 15665-15673.
     DOI: 10.1002/anie.202004239
   
   for ALPB and GBSA implicit solvation:
   * S. Ehlert, M. Stahn, S. Spicher, S. Grimme, J. Chem. Theory Comput.,
     2021, 17, 4250-4261. DOI: 10.1021/acs.jctc.1c00471
   
   for DFT-D4:
   * E. Caldeweyher, C. Bannwarth and S. Grimme, J. Chem. Phys., 2017,
     147, 034112. DOI: 10.1063/1.4993215
   * E. Caldeweyher, S. Ehlert, A. Hansen, H. Neugebauer, S. Spicher,
     C. Bannwarth and S. Grimme, J. Chem. Phys., 2019, 150, 154122.
     DOI: 10.1063/1.5090222
   * E. Caldeweyher, J.-M. Mewes, S. Ehlert and S. Grimme, Phys. Chem. Chem. Phys.
     2020, 22, 8499-8512. DOI: 10.1039/D0CP00502A
   
   for sTDA-xTB:
   * S. Grimme and C. Bannwarth, J. Chem. Phys., 2016, 145, 054103.
     DOI: 10.1063/1.4959605
   
   in the mass-spec context:
   * V. Asgeirsson, C. Bauer and S. Grimme, Chem. Sci., 2017, 8, 4879.
     DOI: 10.1039/c7sc00601b
   * J. Koopman and S. Grimme, ACS Omega 2019, 4, 12, 15120-15133.
     DOI: 10.1021/acsomega.9b02011
   
   for metadynamics refer to:
   * S. Grimme, J. Chem. Theory Comput., 2019, 155, 2847-2862
     DOI: 10.1021/acs.jctc.9b00143
   
   for SPH calculations refer to:
   * S. Spicher and S. Grimme, J. Chem. Theory Comput., 2021, 17, 1701-1714
     DOI: 10.1021/acs.jctc.0c01306
   
   with help from (in alphabetical order)
   P. Atkinson, C. Bannwarth, F. Bohle, G. Brandenburg, E. Caldeweyher
   M. Checinski, S. Dohm, S. Ehlert, S. Ehrlich, I. Gerasimov, C. Hölzer
   A. Katbashev, J. Koopman, C. Lavigne, S. Lehtola, F. März, M. Müller,
   F. Musil, H. Neugebauer, J. Pisarek, C. Plett, P. Pracht, F. Pultar,
   J. Seibert, P. Shushkov, S. Spicher, M. Stahn, M. Steiner, T. Strunk,
   J. Stückrath, T. Rose, and J. Unsleber
   
 * started run on 2023/06/20 at 15:32:22.895     

           -------------------------------------------------
          |                Calculation Setup                |
           -------------------------------------------------

          program call               : /lustre/hpc/kemi/ree/PhD/git/ReactivityQM/dep/xtb-6.5.1/bin/xtb --gfn 1 /lustre/hpc/kemi/ree/PhD/git/ReactivityQM/calculations/R03/reac02prodE11/conf14/R03_reac02prodE11_conf14_gfn1.xyz --opt --vfukui --chrg -1 --uhf 0 --alpb DMSO
          hostname                   : node068
          coordinate file            : /lustre/hpc/kemi/ree/PhD/git/ReactivityQM/calculations/R03/reac02prodE11/conf14/R03_reac02prodE11_conf14_gfn1.xyz
          omp threads                :                     1

   ID    Z sym.   atoms
    1    6 C      1, 3, 5, 7-10, 12, 14, 17-19, 22, 23, 25
    2    8 O      2, 4, 13, 20, 24, 26
    3    7 N      6, 11, 15, 16, 21
    4    1 H      27-46

           -------------------------------------------------
          |                 G F N 1 - x T B                 |
           -------------------------------------------------

        Reference                      10.1021/acs.jctc.7b00118
      * Hamiltonian:
        H0-scaling (s, p, d)           1.850000    2.250000    2.000000
        zeta-weighting                 0.000000
      * Dispersion:
        s8                             2.400000
        a1                             0.630000
        a2                             5.000000
        s9                             0.000000
      * Repulsion:
        kExp                           1.500000
        rExp                           1.000000
      * Coulomb:
        alpha                          2.000000
        third order                    atomic
        anisotropic                    false
      * Halogen bond correction:
        rad-scale                      1.300000
        damping                        0.440000

      * Solvation model:               ALPB
        Solvent                        DMSO
        Parameter file                 internal GFN1-xTB/ALPB
        Dielectric constant                4.6680E+01
        Reference state                gsolv [1 M gas/solution]
        Free energy shift                  7.6243E-03 Eh       4.7843E+00 kcal/mol
        Temperature                        2.9815E+02 K
        Density                            1.1000E+00 kg/L
        Solvent mass                       7.8130E+01 g/mol
        Interaction kernel             P16
        Born radius scaling (c1)           1.7672E+00
        Born radii integrator          GBOBC
        Born offset                        0.0000E+00 a0       0.0000E+00 AA
        H-bond correction              true
        Ion screening                  false
        Surface tension                    1.0000E-05 Eh       1.5569E+01 dyn/cm
        Grid points                               230 per atom

          ...................................................
          :                      SETUP                      :
          :.................................................:
          :  # basis functions                 144          :
          :  # atomic orbitals                 144          :
          :  # shells                           92          :
          :  # electrons                       142          :
          :  # halogen bonds                     0          :
          :  max. iterations                   250          :
          :  Hamiltonian                  GFN1-xTB          :
          :  restarted?                      false          :
          :  GBSA solvation                   true          :
          :  PC potential                    false          :
          :  electronic temp.          300.0000000     K    :
          :  accuracy                    1.0000000          :
          :  -> integral cutoff          0.2500000E+02      :
          :  -> integral neglect         0.1000000E-07      :
          :  -> SCF convergence          0.1000000E-05 Eh   :
          :  -> wf. convergence          0.2000000E-04 e    :
          :  Broyden damping             0.4000000          :
          ...................................................

 iter      E             dE          RMSdq      gap      omega  full diag
   1    -87.5123828 -0.875124E+02  0.845E+00    1.75       0.0  T
   2    -87.8086228 -0.296240E+00  0.507E+00    0.16       1.0  T
   3    -87.7674857  0.411371E-01  0.162E+00    0.06       1.0  T
   4    -87.8144912 -0.470055E-01  0.519E-01    0.78       1.0  T
   5    -87.8306743 -0.161831E-01  0.118E-01    0.16       1.0  T
   6    -87.6024738  0.228201E+00  0.127E+00    0.07       1.0  T
   7    -87.8290023 -0.226529E+00  0.149E-01    0.21       1.0  T
   8    -87.8304260 -0.142363E-02  0.101E-01    0.17       1.0  T
   9    -87.8312572 -0.831217E-03  0.617E-02    0.14       1.0  T
  10    -87.8316348 -0.377659E-03  0.299E-02    0.13       1.0  T
  11    -87.8317521 -0.117290E-03  0.787E-04    0.12      18.7  T
  12    -87.8317507  0.141107E-05  0.321E-03    0.12       4.6  T
  13    -87.8317521 -0.139648E-05  0.468E-04    0.12      31.5  T
  14    -87.8317522 -0.308185E-07  0.563E-05    0.12     261.9  T
  15    -87.8317522 -0.310393E-09  0.379E-05    0.12     388.6  T

   *** convergence criteria satisfied after 15 iterations ***

         #    Occupation            Energy/Eh            Energy/eV
      -------------------------------------------------------------
         1        2.0000           -0.8318891             -22.6369
       ...           ...                  ...                  ...
        65        2.0000           -0.4317224             -11.7478
        66        2.0000           -0.4257218             -11.5845
        67        2.0000           -0.4136346             -11.2556
        68        2.0000           -0.4123574             -11.2208
        69        2.0000           -0.4027637             -10.9598
        70        2.0000           -0.3761903             -10.2367
        71        1.8196           -0.3183557              -8.6629 (HOMO)
        72        0.1804           -0.3139642              -8.5434 (LUMO)
        73                         -0.2708525              -7.3703
        74                         -0.2401079              -6.5337
        75                         -0.2288905              -6.2284
        76                         -0.1474566              -4.0125
       ...                                ...                  ...
       144                          0.7103883              19.3307
      -------------------------------------------------------------
                  HL-Gap            0.0043915 Eh            0.1195 eV
             Fermi-level           -0.3161600 Eh           -8.6032 eV

 SCC (total)                   0 d,  0 h,  0 min,  0.188 sec
 SCC setup                      ...        0 min,  0.002 sec (  1.052%)
 Dispersion                     ...        0 min,  0.000 sec (  0.166%)
 classical contributions        ...        0 min,  0.000 sec (  0.055%)
 integral evaluation            ...        0 min,  0.029 sec ( 15.281%)
 iterations                     ...        0 min,  0.098 sec ( 52.319%)
 molecular gradient             ...        0 min,  0.057 sec ( 30.312%)
 printout                       ...        0 min,  0.002 sec (  0.804%)

         :::::::::::::::::::::::::::::::::::::::::::::::::::::
         ::                     SUMMARY                     ::
         :::::::::::::::::::::::::::::::::::::::::::::::::::::
         :: total energy             -87.047759616819 Eh    ::
         :: total w/o Gsasa/hb       -87.025397546088 Eh    ::
         :: gradient norm              0.108115079206 Eh/a0 ::
         :: HOMO-LUMO gap              0.119498827418 eV    ::
         ::.................................................::
         :: SCC energy               -87.831752151271 Eh    ::
         :: -> electrostatic           0.446314294176 Eh    ::
         :: -> Gsolv                  -0.110050959094 Eh    ::
         ::    -> Gelec               -0.087688888363 Eh    ::
         ::    -> Gsasa               -0.025290408818 Eh    ::
         ::    -> Ghb                 -0.004695940918 Eh    ::
         ::    -> Gshift               0.007624279005 Eh    ::
         :: repulsion energy           0.812810394854 Eh    ::
         :: dispersion energy         -0.028817860402 Eh    ::
         :: halogen bond corr.         0.000000000000 Eh    ::
         :: add. restraining           0.000000000000 Eh    ::
         :: total charge              -1.000000000000 e     ::
         :::::::::::::::::::::::::::::::::::::::::::::::::::::

      ----------------------------------------------------------- 
     |                   =====================                   |
     |                        A N C O P T                        |
     |                   =====================                   |
     |               Approximate Normal Coordinate               |
     |                Rational Function Optimizer                |
      ----------------------------------------------------------- 

          ...................................................
          :                      SETUP                      :
          :.................................................:
          :   optimization level            normal          :
          :   max. optcycles                   200          :
          :   ANC micro-cycles                  20          :
          :   degrees of freedom               132          :
          :.................................................:
          :   RF solver                   davidson          :
          :   write xtbopt.log                true          :
          :   linear?                        false          :
          :   energy convergence         0.5000000E-05 Eh   :
          :   grad. convergence          0.1000000E-02 Eh/α :
          :   maximium RF displ.         1.0000000          :
          :   Hlow (freq-cutoff)         0.1000000E-01      :
          :   Hmax (freq-cutoff)         5.0000000          :
          :   S6 in model hess.         20.0000000          :
          ...................................................

generating ANC from model Hessian ...
Using Lindh-Hessian (1995)
 Shifting diagonal of input Hessian by   9.860337177974446E-003
 Lowest  eigenvalues of input Hessian
    0.000000    0.000000    0.000000    0.000000    0.000000    0.000000
    0.010000    0.010212    0.010475    0.010729    0.011575    0.012176
    0.012435    0.013829    0.014363    0.014756    0.015841    0.016716
 Highest eigenvalues
    1.929776    2.071424    2.156230    2.257981    2.292916    2.352481
 

........................................................................
.............................. CYCLE    1 ..............................
........................................................................
   1    -87.8317522 -0.878318E+02  0.292E-05    0.12       0.0  T
   2    -87.8317521  0.581852E-08  0.210E-04    0.12      70.3  T
   3    -87.8317522 -0.593393E-08  0.560E-07    0.12   26320.7  T
   4    -87.8317522  0.198952E-12  0.170E-06    0.12    8657.6  T
     SCC iter.                  ...        0 min,  0.021 sec
     gradient                   ...        0 min,  0.060 sec
 * total energy  :   -87.0477596 Eh     change       -0.1697344E-09 Eh
   gradient norm :     0.1081121 Eh/α   predicted     0.0000000E+00 (-100.00%)
   displ. norm   :     0.2879913 α      lambda       -0.1401765E-01
   maximum displ.:     0.1523547 α      in ANC's #32, #25, #19, ...

........................................................................
.............................. CYCLE    2 ..............................
........................................................................
   1    -87.8394079 -0.878394E+02  0.158E-01    0.33       0.0  T
   2    -87.5495895  0.289818E+00  0.147E+00    0.10       1.0  T
   3    -87.8402876 -0.290698E+00  0.121E-01    0.25       1.0  T
   4    -87.8410590 -0.771489E-03  0.929E-02    0.21       1.0  T
   5    -87.8422207 -0.116169E-02  0.205E-02    0.15       1.0  T
   6    -87.8418368  0.383981E-03  0.577E-02    0.12       1.0  T
   7    -87.8422353 -0.398510E-03  0.195E-02    0.13       1.0  T
   8    -87.8422839 -0.486080E-04  0.295E-03    0.13       5.0  T
   9    -87.8422848 -0.964580E-06  0.108E-03    0.14      13.6  T
  10    -87.8422849 -0.103916E-06  0.602E-04    0.14      24.5  T
  11    -87.8422850 -0.380729E-07  0.280E-04    0.14      52.6  T
  12    -87.8422850 -0.104366E-07  0.334E-05    0.14     440.9  T
  13    -87.8422850 -0.150976E-09  0.152E-06    0.14    9675.4  T
     SCC iter.                  ...        0 min,  0.048 sec
     gradient                   ...        0 min,  0.062 sec
 * total energy  :   -87.0579766 Eh     change       -0.1021696E-01 Eh
   gradient norm :     0.0515520 Eh/α   predicted    -0.7594675E-02 ( -25.67%)
   displ. norm   :     0.3183552 α      lambda       -0.6507199E-02
   maximum displ.:     0.1533088 α      in ANC's #32, #25, #13, ...

........................................................................
.............................. CYCLE    3 ..............................
........................................................................
   1    -87.8496893 -0.878497E+02  0.118E-01    0.35       0.0  T
   2    -87.8121799  0.375094E-01  0.554E-01    0.04       1.0  T
   3    -87.8502999 -0.381201E-01  0.800E-02    0.27       1.0  T
   4    -87.8507470 -0.447074E-03  0.529E-02    0.21       1.0  T
   5    -87.8510781 -0.331128E-03  0.280E-02    0.15       1.0  T
   6    -87.8508627  0.215416E-03  0.473E-02    0.14       1.0  T
   7    -87.8511467 -0.283936E-03  0.858E-03    0.16       1.7  T
   8    -87.8511547 -0.801136E-05  0.903E-04    0.16      16.3  T
   9    -87.8511548 -0.989782E-07  0.925E-05    0.16     159.4  T
  10    -87.8511548 -0.375863E-09  0.351E-05    0.16     419.7  T
     SCC iter.                  ...        0 min,  0.042 sec
     gradient                   ...        0 min,  0.040 sec
 * total energy  :   -87.0618377 Eh     change       -0.3861129E-02 Eh
   gradient norm :     0.0159940 Eh/α   predicted    -0.3584224E-02 (  -7.17%)
   displ. norm   :     0.1942689 α      lambda       -0.1005483E-02
   maximum displ.:     0.0796863 α      in ANC's #7, #13, #32, ...

........................................................................
.............................. CYCLE    4 ..............................
........................................................................
   1    -87.8528596 -0.878529E+02  0.477E-02    0.22       0.0  T
   2    -87.8459350  0.692466E-02  0.237E-01    0.09       1.0  T
   3    -87.8531196 -0.718464E-02  0.186E-02    0.19       1.0  T
   4    -87.8531649 -0.452570E-04  0.523E-03    0.17       2.8  T
   5    -87.8531518  0.130799E-04  0.119E-02    0.16       1.2  T
   6    -87.8531588 -0.703881E-05  0.862E-03    0.16       1.7  T
   7    -87.8531672 -0.841699E-05  0.212E-03    0.17       7.0  T
   8    -87.8531678 -0.536354E-06  0.424E-04    0.17      34.7  T
   9    -87.8531678  0.475097E-09  0.413E-04    0.17      35.7  T
  10    -87.8531678 -0.175593E-07  0.160E-04    0.17      92.2  T
  11    -87.8531678 -0.304327E-08  0.221E-05    0.17     667.3  T
     SCC iter.                  ...        0 min,  0.041 sec
     gradient                   ...        0 min,  0.042 sec
 * total energy  :   -87.0625915 Eh     change       -0.7537829E-03 Eh
   gradient norm :     0.0131788 Eh/α   predicted    -0.5217181E-03 ( -30.79%)
   displ. norm   :     0.2614508 α      lambda       -0.8665421E-03
   maximum displ.:     0.1247556 α      in ANC's #7, #4, #13, ...

........................................................................
.............................. CYCLE    5 ..............................
........................................................................
   1    -87.8542924 -0.878543E+02  0.388E-02    0.22       0.0  T
   2    -87.8530370  0.125535E-02  0.108E-01    0.13       1.0  T
   3    -87.8544519 -0.141488E-02  0.171E-02    0.19       1.0  T
   4    -87.8544757 -0.237985E-04  0.582E-03    0.19       2.5  T
   5    -87.8544705  0.523446E-05  0.810E-03    0.18       1.8  T
   6    -87.8544755 -0.505471E-05  0.405E-03    0.18       3.6  T
   7    -87.8544775 -0.198947E-05  0.235E-04    0.18      62.8  T
   8    -87.8544775 -0.398300E-08  0.798E-05    0.18     184.8  T
   9    -87.8544775  0.980151E-09  0.105E-04    0.18     141.1  T
     SCC iter.                  ...        0 min,  0.052 sec
     gradient                   ...        0 min,  0.067 sec
 * total energy  :   -87.0631572 Eh     change       -0.5657275E-03 Eh
   gradient norm :     0.0097976 Eh/α   predicted    -0.4628894E-03 ( -18.18%)
   displ. norm   :     0.1752180 α      lambda       -0.2824665E-03
   maximum displ.:     0.0843995 α      in ANC's #7, #4, #6, ...

........................................................................
.............................. CYCLE    6 ..............................
........................................................................
   1    -87.8552127 -0.878552E+02  0.197E-02    0.20       0.0  T
   2    -87.8551566  0.560455E-04  0.285E-02    0.17       1.0  T
   3    -87.8552449 -0.883343E-04  0.104E-02    0.19       1.4  T
   4    -87.8552532 -0.822018E-05  0.303E-03    0.19       4.9  T
   5    -87.8552529  0.272188E-06  0.212E-03    0.19       7.0  T
   6    -87.8552532 -0.290690E-06  0.337E-04    0.19      43.8  T
   7    -87.8552532 -0.103947E-07  0.107E-04    0.19     137.3  T
   8    -87.8552532 -0.736364E-09  0.336E-05    0.19     438.4  T
     SCC iter.                  ...        0 min,  0.044 sec
     gradient                   ...        0 min,  0.064 sec
 * total energy  :   -87.0633577 Eh     change       -0.2004711E-03 Eh
   gradient norm :     0.0059765 Eh/α   predicted    -0.1455935E-03 ( -27.37%)
   displ. norm   :     0.1812920 α      lambda       -0.1861760E-03
   maximum displ.:     0.0848112 α      in ANC's #4, #7, #9, ...

........................................................................
.............................. CYCLE    7 ..............................
........................................................................
   1    -87.8557857 -0.878558E+02  0.141E-02    0.20       0.0  T
   2    -87.8557870 -0.135082E-05  0.133E-02    0.18       1.1  T
   3    -87.8558014 -0.143442E-04  0.631E-03    0.20       2.3  T
   4    -87.8558041 -0.272290E-05  0.248E-03    0.19       5.9  T
   5    -87.8558041 -0.196529E-07  0.128E-03    0.19      11.6  T
   6    -87.8558042 -0.288314E-07  0.123E-04    0.19     120.1  T
   7    -87.8558042 -0.487432E-09  0.528E-05    0.19     279.0  T
     SCC iter.                  ...        0 min,  0.026 sec
     gradient                   ...        0 min,  0.055 sec
 * total energy  :   -87.0634878 Eh     change       -0.1300797E-03 Eh
   gradient norm :     0.0038313 Eh/α   predicted    -0.9616532E-04 ( -26.07%)
   displ. norm   :     0.1593025 α      lambda       -0.1099327E-03
   maximum displ.:     0.0754604 α      in ANC's #4, #7, #9, ...

........................................................................
.............................. CYCLE    8 ..............................
........................................................................
   1    -87.8558543 -0.878559E+02  0.648E-03    0.19       0.0  T
   2    -87.8558564 -0.209117E-05  0.531E-03    0.19       2.8  T
   3    -87.8558576 -0.119121E-05  0.176E-03    0.19       8.4  T
   4    -87.8558576  0.203792E-07  0.111E-03    0.19      13.3  T
   5    -87.8558575  0.517310E-07  0.824E-04    0.19      17.9  T
   6    -87.8558576 -0.788656E-07  0.118E-04    0.19     125.0  T
   7    -87.8558576 -0.115732E-08  0.218E-05    0.19     674.9  T
     SCC iter.                  ...        0 min,  0.042 sec
     gradient                   ...        0 min,  0.039 sec
 * total energy  :   -87.0635663 Eh     change       -0.7856694E-04 Eh
   gradient norm :     0.0042153 Eh/α   predicted    -0.5643182E-04 ( -28.17%)
   displ. norm   :     0.1424818 α      lambda       -0.7362789E-04
   maximum displ.:     0.0690235 α      in ANC's #4, #5, #7, ...

........................................................................
.............................. CYCLE    9 ..............................
........................................................................
   1    -87.8556883 -0.878557E+02  0.473E-03    0.19       0.0  T
   2    -87.8556871  0.123745E-05  0.539E-03    0.20       2.7  T
   3    -87.8556897 -0.265523E-05  0.145E-03    0.19      10.2  T
   4    -87.8556899 -0.136186E-06  0.922E-04    0.19      16.0  T
   5    -87.8556899 -0.245587E-07  0.262E-04    0.19      56.4  T
   6    -87.8556899 -0.434358E-08  0.704E-05    0.19     209.5  T
   7    -87.8556899 -0.220979E-09  0.227E-05    0.19     648.9  T
     SCC iter.                  ...        0 min,  0.045 sec
     gradient                   ...        0 min,  0.045 sec
 * total energy  :   -87.0636178 Eh     change       -0.5146915E-04 Eh
   gradient norm :     0.0037718 Eh/α   predicted    -0.3756160E-04 ( -27.02%)
   displ. norm   :     0.1122704 α      lambda       -0.4396681E-04
   maximum displ.:     0.0554591 α      in ANC's #4, #5, #7, ...

........................................................................
.............................. CYCLE   10 ..............................
........................................................................
   1    -87.8555436 -0.878555E+02  0.673E-03    0.19       0.0  T
   2    -87.8555422  0.140543E-05  0.712E-03    0.20       2.1  T
   3    -87.8555473 -0.508925E-05  0.253E-03    0.19       5.8  T
   4    -87.8555478 -0.496231E-06  0.846E-04    0.19      17.4  T
   5    -87.8555478 -0.147902E-07  0.401E-04    0.19      36.7  T
   6    -87.8555478 -0.272674E-08  0.774E-05    0.19     190.4  T
   7    -87.8555478 -0.230727E-09  0.263E-05    0.19     561.4  T
     SCC iter.                  ...        0 min,  0.026 sec
     gradient                   ...        0 min,  0.058 sec
 * total energy  :   -87.0636484 Eh     change       -0.3064051E-04 Eh
   gradient norm :     0.0026405 Eh/α   predicted    -0.2226505E-04 ( -27.33%)
   displ. norm   :     0.0908387 α      lambda       -0.2932438E-04
   maximum displ.:     0.0459686 α      in ANC's #4, #7, #5, ...

........................................................................
.............................. CYCLE   11 ..............................
........................................................................
   1    -87.8556153 -0.878556E+02  0.700E-03    0.19       0.0  T
   2    -87.8556158 -0.489672E-06  0.649E-03    0.19       2.3  T
   3    -87.8556194 -0.363786E-05  0.279E-03    0.19       5.3  T
   4    -87.8556200 -0.585860E-06  0.946E-04    0.19      15.6  T
   5    -87.8556200 -0.120245E-07  0.510E-04    0.19      28.9  T
   6    -87.8556200 -0.279105E-08  0.787E-05    0.19     187.4  T
   7    -87.8556200 -0.201126E-09  0.248E-05    0.19     594.4  T
     SCC iter.                  ...        0 min,  0.044 sec
     gradient                   ...        0 min,  0.042 sec
 * total energy  :   -87.0636688 Eh     change       -0.2032093E-04 Eh
   gradient norm :     0.0018132 Eh/α   predicted    -0.1478376E-04 ( -27.25%)
   displ. norm   :     0.1097317 α      lambda       -0.2001037E-04
   maximum displ.:     0.0524593 α      in ANC's #4, #7, #8, ...

........................................................................
.............................. CYCLE   12 ..............................
........................................................................
   1    -87.8558592 -0.878559E+02  0.792E-03    0.18       0.0  T
   2    -87.8558594 -0.167474E-06  0.782E-03    0.19       1.9  T
   3    -87.8558650 -0.553406E-05  0.354E-03    0.19       4.2  T
   4    -87.8558658 -0.893211E-06  0.117E-03    0.19      12.6  T
   5    -87.8558659 -0.735531E-08  0.583E-04    0.19      25.3  T
   6    -87.8558659 -0.613790E-08  0.998E-05    0.19     147.7  T
   7    -87.8558659 -0.195982E-09  0.317E-05    0.19     465.3  T
     SCC iter.                  ...        0 min,  0.026 sec
     gradient                   ...        0 min,  0.039 sec
 * total energy  :   -87.0636849 Eh     change       -0.1615632E-04 Eh
   gradient norm :     0.0023691 Eh/α   predicted    -0.1006283E-04 ( -37.72%)
   displ. norm   :     0.0277452 α      lambda       -0.9334288E-05
   maximum displ.:     0.0113626 α      in ANC's #8, #4, #10, ...

........................................................................
.............................. CYCLE   13 ..............................
........................................................................
   1    -87.8560513 -0.878561E+02  0.175E-03    0.19       0.0  T
   2    -87.8560510  0.261337E-06  0.218E-03    0.19       6.7  T
   3    -87.8560515 -0.463904E-06  0.734E-04    0.19      20.1  T
   4    -87.8560515 -0.417781E-07  0.300E-04    0.19      49.2  T
   5    -87.8560515 -0.110376E-09  0.129E-04    0.19     114.3  T
   6    -87.8560515 -0.123578E-08  0.230E-05    0.19     640.4  T
     SCC iter.                  ...        0 min,  0.021 sec
     gradient                   ...        0 min,  0.038 sec
 * total energy  :   -87.0636924 Eh     change       -0.7479017E-05 Eh
   gradient norm :     0.0017921 Eh/α   predicted    -0.4671289E-05 ( -37.54%)
   displ. norm   :     0.1088584 α      lambda       -0.1722373E-04
   maximum displ.:     0.0445763 α      in ANC's #4, #8, #1, ...

........................................................................
.............................. CYCLE   14 ..............................
........................................................................
   1    -87.8561628 -0.878562E+02  0.639E-03    0.19       0.0  T
   2    -87.8561636 -0.727389E-06  0.485E-03    0.18       3.0  T
   3    -87.8561649 -0.138712E-05  0.295E-03    0.19       5.0  T
   4    -87.8561657 -0.809434E-06  0.993E-04    0.19      14.9  T
   5    -87.8561658 -0.134616E-07  0.549E-04    0.19      26.9  T
   6    -87.8561658 -0.620896E-08  0.831E-05    0.19     177.4  T
   7    -87.8561658 -0.364480E-09  0.246E-05    0.19     599.0  T
     SCC iter.                  ...        0 min,  0.026 sec
     gradient                   ...        0 min,  0.062 sec
 * total energy  :   -87.0637032 Eh     change       -0.1080324E-04 Eh
   gradient norm :     0.0017123 Eh/α   predicted    -0.8660481E-05 ( -19.83%)
   displ. norm   :     0.0183096 α      lambda       -0.4218132E-05
   maximum displ.:     0.0071824 α      in ANC's #9, #1, #4, ...

........................................................................
.............................. CYCLE   15 ..............................
........................................................................
   1    -87.8562685 -0.878563E+02  0.156E-03    0.19       0.0  T
   2    -87.8562684  0.839083E-07  0.157E-03    0.19       9.4  T
   3    -87.8562686 -0.203425E-06  0.783E-04    0.19      18.8  T
   4    -87.8562687 -0.563936E-07  0.199E-04    0.19      74.3  T
   5    -87.8562687 -0.159304E-10  0.742E-05    0.19     198.7  T
     SCC iter.                  ...        0 min,  0.019 sec
     gradient                   ...        0 min,  0.045 sec
 * total energy  :   -87.0637081 Eh     change       -0.4894905E-05 Eh
   gradient norm :     0.0009010 Eh/α   predicted    -0.2109975E-05 ( -56.89%)
   displ. norm   :     0.0556757 α      lambda       -0.5312675E-05
   maximum displ.:     0.0240215 α      in ANC's #1, #4, #10, ...

   *** GEOMETRY OPTIMIZATION CONVERGED AFTER 15 ITERATIONS ***

------------------------------------------------------------------------
 total energy gain   :        -0.0159485 Eh      -10.0078 kcal/mol
 total RMSD          :         0.2392570 a0        0.1266 Å
 total power (kW/mol):        -2.7915152 (step)  -24.9447 (real)
------------------------------------------------------------------------

 ANCopt (total)                0 d,  0 h,  0 min,  1.679 sec
 optimizer setup                ...        0 min,  0.001 sec (  0.046%)
 model hessian                  ...        0 min,  0.027 sec (  1.635%)
 ANC generation                 ...        0 min,  0.003 sec (  0.162%)
 coordinate transformation      ...        0 min,  0.000 sec (  0.019%)
 single point calculation       ...        0 min,  1.643 sec ( 97.859%)
 optimization log               ...        0 min,  0.003 sec (  0.181%)
 hessian update                 ...        0 min,  0.000 sec (  0.016%)
 rational function              ...        0 min,  0.001 sec (  0.053%)

================
 final structure:
================
46
 xtb: 6.5.1 (579679a)
C           -5.93647763787613        2.62092338679279        1.81900329579349
O           -5.00784572477109        2.17053503672776        0.82545368302606
C           -4.05870160192953        1.31691417263764        1.25046735256675
O           -3.97918827160322        0.95695825825067        2.40266727045434
C           -3.14825854703771        0.86573073261869        0.16865374973485
N           -2.20402682262353       -0.02472585795823        0.59412420010039
C           -1.33749805991726       -0.54084519170556       -0.21843737874266
C           -0.37128937460269       -1.55921486337090        0.38640658053565
C           -0.76048856967930       -2.95688638239384       -0.12455972461015
C           -0.50639547968094       -1.52464558900146        1.91922161860083
N            0.98700437151669       -1.19419580601372       -0.00834926339729
C            2.09491668997233       -1.92298596626350        0.48971540548283
O            1.98113349705754       -3.08571179697737        0.92317272075517
C            3.30976199696647       -1.21584052080553        0.38127503489654
N            4.51951036550257       -1.63680248018818        0.73110372608804
N            5.41179579016833       -0.72258441183429        0.52156739595818
C            4.72831846443836        0.45532636490908       -0.03494869909902
C            4.91809377989960        1.65667366385645        0.90366855687525
C            5.28004426904642        0.75897370268283       -1.43683181998425
O            3.35283416446525        0.10176088784365       -0.11227307167097
N           -1.33453947413625       -0.21968835591667       -1.55146524514725
C           -0.42491109662018       -0.79497717653810       -2.54656734226709
C           -2.25524964431194        0.66757897984428       -2.10030400129660
O           -2.24535862234686        0.91104852504713       -3.30247976194454
C           -3.19858915225576        1.24443087930718       -1.15015477993479
O           -4.06923979337452        2.11287955580691       -1.69214919964335
H           -6.59763499694007        3.33192645355880        1.33005765402748
H           -5.40117088564359        3.10168534268786        2.64125661838503
H           -6.50926757940212        1.77396113721097        2.20415125238077
H           -0.56122393619509       -3.05858189851852       -1.18893288427261
H           -0.19655204488344       -3.72012744292773        0.40854213275200
H           -1.82347449780703       -3.11893083615585        0.04973113405582
H           -0.26419433121334       -0.53173084946706        2.29541717340006
H            0.17249469174649       -2.25203528300266        2.36155216461754
H           -1.52656747294997       -1.76957496360795        2.20959957220332
H            1.14578400528634       -0.19413553840465        0.01797286678277
H            4.39441806536468        2.52646436476163        0.51148345798750
H            5.97793674308756        1.88507622269688        0.99767002906138
H            4.51710711083973        1.41331247671619        1.88627209168013
H            4.76924372953420        1.61927572689245       -1.86549432010697
H            6.34623004484591        0.96742632696082       -1.37314753076545
H            5.12412066419161       -0.10519343442357       -2.08059477213425
H           -0.96535186918498       -1.53596459810258       -3.13668376356436
H           -0.09110789318711        0.00523470511948       -3.20767023279705
H            0.43386748703411       -1.24988739792697       -2.06249347543823
H           -4.69001155079700        2.47117173855694       -1.03666647138308
 
 Bond Distances (Angstroems)
 ---------------------------
C1-O2=1.4326         C1-H27=1.0871        C1-H28=1.0926        C1-H29=1.0926        O2-C1=1.4326         O2-C3=1.3454         
C3-O2=1.3454         C3-O4=1.2097         C3-C5=1.4842         O4-C3=1.2097         C5-C3=1.4842         C5-N6=1.3658         
C5-C25=1.3730        N6-C5=1.3658         N6-C7=1.2952         C7-N6=1.2952         C7-C8=1.5286         C7-N21=1.3712        
C8-C7=1.5286         C8-C9=1.5382         C8-C10=1.5391        C8-N11=1.4608        C9-C8=1.5382         C9-H30=1.0876        
C9-H31=1.0885        C9-H32=1.0893        C10-C8=1.5391        C10-H33=1.0891       C10-H34=1.0889       C10-H35=1.0886       
N11-C8=1.4608        N11-C12=1.4166       N11-H36=1.0129       C12-N11=1.4166       C12-O13=1.2461       C12-C14=1.4098       
O13-C12=1.2461       C14-C12=1.4098       C14-N15=1.3278       C14-O20=1.4077       N15-C14=1.3278       N15-N16=1.2946       
N16-N15=1.2946       N16-C17=1.4712       C17-N16=1.4712       C17-C18=1.5363       C17-C19=1.5368       C17-O20=1.4223       
C18-C17=1.5363       C18-H37=1.0884       C18-H38=1.0882       C18-H39=1.0888       C19-C17=1.5368       C19-H40=1.0885       
C19-H41=1.0882       C19-H42=1.0888       O20-C14=1.4077       O20-C17=1.4223       N21-C7=1.3712        N21-C22=1.4658       
N21-C23=1.3915       C22-N21=1.4658       C22-H43=1.0906       C22-H44=1.0903       C22-H45=1.0857       C23-N21=1.3915       
C23-O24=1.2266       C23-C25=1.4579       O24-C23=1.2266       C25-C5=1.3730        C25-C23=1.4579       C25-O26=1.3439       
O26-C25=1.3439       O26-H46=0.9713       H27-C1=1.0871        H28-C1=1.0926        H29-C1=1.0926        H30-C9=1.0876        
H31-C9=1.0885        H32-C9=1.0893        H33-C10=1.0891       H34-C10=1.0889       H35-C10=1.0886       H36-N11=1.0129       
H37-C18=1.0884       H38-C18=1.0882       H39-C18=1.0888       H40-C19=1.0885       H41-C19=1.0882       H42-C19=1.0888       
H43-C22=1.0906       H44-C22=1.0903       H45-C22=1.0857       H46-O26=0.9713       
 C  H  Rav=1.0890 sigma=0.0017  Rmin=1.0857  Rmax=1.0926    18
 C  C  Rav=1.4893 sigma=0.0594  Rmin=1.3730  Rmax=1.5391     9
 N  H  Rav=1.0129 sigma=0.0000  Rmin=1.0129  Rmax=1.0129     1
 N  C  Rav=1.3962 sigma=0.0592  Rmin=1.2952  Rmax=1.4712     9
 N  N  Rav=1.2946 sigma=0.0000  Rmin=1.2946  Rmax=1.2946     1
 O  H  Rav=0.9713 sigma=0.0000  Rmin=0.9713  Rmax=0.9713     1
 O  C  Rav=1.3293 sigma=0.0849  Rmin=1.2097  Rmax=1.4326     8
 
 selected bond angles (degree)
 --------------------
H27-C1-O2=106.73               H28-C1-O2=110.04               H28-C1-H27=110.41              H29-C1-O2=109.91               
H29-C1-H27=110.29              H29-C1-H28=109.43              C3-O2-C1=115.96                O4-C3-O2=122.41                
C5-C3-O2=113.29                C5-C3-O4=124.30                N6-C5-C3=113.28                C25-C5-C3=126.43               
C25-C5-N6=120.29               C7-N6-C5=121.80                C8-C7-N6=116.11                N21-C7-N6=121.20               
N21-C7-C8=122.64               C9-C8-C7=108.30                C10-C8-C7=108.88               C10-C8-C9=109.21               
N11-C8-C7=108.32               N11-C8-C9=111.87               N11-C8-C10=110.19              H30-C9-C8=111.33               
H31-C9-C8=110.08               H31-C9-H30=108.59              H32-C9-C8=109.20               H32-C9-H30=108.75              
H32-C9-H31=108.84              H33-C10-C8=110.18              H34-C10-C8=109.56              H34-C10-H33=109.27             
H35-C10-C8=110.05              H35-C10-H33=108.75             H35-C10-H34=109.00             
 
 selected dihedral angles (degree)
 ---------------------------------
C3-O2-C1-H27=177.29           C3-O2-C1-H28= 57.47           C3-O2-C1-H29=296.89           O4-C3-O2-C1=359.29            
C5-C3-O2-C1=178.73            N6-C5-C3-O2=181.43            N6-C5-C3-O4=  0.86            C25-C5-C3-O2=  0.54           
C25-C5-C3-O4=179.97           C7-N6-C5-C3=178.92            C7-N6-C5-C25=359.75           C8-C7-N6-C5=182.04            
N21-C7-N6-C5=359.63           C9-C8-C7-N6=107.97            C9-C8-C7-N21=290.42           C10-C8-C7-N6=349.33           
C10-C8-C7-N21=171.78          N11-C8-C7-N6=229.49           N11-C8-C7-N21= 51.94          H30-C9-C8-C7= 68.56           
H30-C9-C8-C10=186.99          H30-C9-C8-N11=309.25          H31-C9-C8-C7=189.03           H31-C9-C8-C10=307.47          
H31-C9-C8-N11= 69.72          H32-C9-C8-C7=308.46           H32-C9-C8-C10= 66.90          H32-C9-C8-N11=189.15          
H33-C10-C8-C7=299.83          H33-C10-C8-C9=181.76          H33-C10-C8-N11= 58.50         H34-C10-C8-C7=179.58          
H34-C10-C8-C9= 61.51          H34-C10-C8-N11=298.25         H35-C10-C8-C7= 59.74          H35-C10-C8-C9=301.67          
H35-C10-C8-N11=178.41         
           -------------------------------------------------
          |                Final Singlepoint                |
           -------------------------------------------------

          ...................................................
          :                      SETUP                      :
          :.................................................:
          :  # basis functions                 144          :
          :  # atomic orbitals                 144          :
          :  # shells                           92          :
          :  # electrons                       142          :
          :  # halogen bonds                     0          :
          :  max. iterations                   250          :
          :  Hamiltonian                  GFN1-xTB          :
          :  restarted?                      false          :
          :  GBSA solvation                   true          :
          :  PC potential                    false          :
          :  electronic temp.          300.0000000     K    :
          :  accuracy                    1.0000000          :
          :  -> integral cutoff          0.2500000E+02      :
          :  -> integral neglect         0.1000000E-07      :
          :  -> SCF convergence          0.1000000E-05 Eh   :
          :  -> wf. convergence          0.2000000E-04 e    :
          :  Broyden damping             0.4000000          :
          ...................................................

 iter      E             dE          RMSdq      gap      omega  full diag
   1    -87.8562687 -0.878563E+02  0.178E-05    0.19       0.0  T
   2    -87.8562687 -0.669331E-11  0.936E-06    0.19    1575.2  T
   3    -87.8562687 -0.403588E-11  0.562E-06    0.19    2624.3  T

   *** convergence criteria satisfied after 3 iterations ***

         #    Occupation            Energy/Eh            Energy/eV
      -------------------------------------------------------------
         1        2.0000           -0.8365270             -22.7631
       ...           ...                  ...                  ...
        65        2.0000           -0.4324869             -11.7686
        66        2.0000           -0.4189814             -11.4011
        67        2.0000           -0.4157229             -11.3124
        68        2.0000           -0.4110691             -11.1858
        69        2.0000           -0.3974623             -10.8155
        70        2.0000           -0.3738391             -10.1727
        71        1.9491           -0.3206890              -8.7264 (HOMO)
        72        0.0509           -0.3137633              -8.5379 (LUMO)
        73                         -0.2686040              -7.3091
        74                         -0.2428688              -6.6088
        75                         -0.2307907              -6.2801
        76                         -0.1465099              -3.9867
       ...                                ...                  ...
       144                          0.7326996              19.9378
      -------------------------------------------------------------
                  HL-Gap            0.0069258 Eh            0.1885 eV
             Fermi-level           -0.3172261 Eh           -8.6322 eV

 SCC (total)                   0 d,  0 h,  0 min,  0.107 sec
 SCC setup                      ...        0 min,  0.002 sec (  1.763%)
 Dispersion                     ...        0 min,  0.000 sec (  0.276%)
 classical contributions        ...        0 min,  0.000 sec (  0.101%)
 integral evaluation            ...        0 min,  0.028 sec ( 26.351%)
 iterations                     ...        0 min,  0.019 sec ( 17.500%)
 molecular gradient             ...        0 min,  0.056 sec ( 52.686%)
 printout                       ...        0 min,  0.001 sec (  1.305%)

         :::::::::::::::::::::::::::::::::::::::::::::::::::::
         ::                     SUMMARY                     ::
         :::::::::::::::::::::::::::::::::::::::::::::::::::::
         :: total energy             -87.063708096650 Eh    ::
         :: total w/o Gsasa/hb       -87.040990037692 Eh    ::
         :: gradient norm              0.000901257055 Eh/a0 ::
         :: HOMO-LUMO gap              0.188459389391 eV    ::
         ::.................................................::
         :: SCC energy               -87.856268682873 Eh    ::
         :: -> electrostatic           0.456217773563 Eh    ::
         :: -> Gsolv                  -0.114619068537 Eh    ::
         ::    -> Gelec               -0.091901009579 Eh    ::
         ::    -> Gsasa               -0.025362023566 Eh    ::
         ::    -> Ghb                 -0.004980314398 Eh    ::
         ::    -> Gshift               0.007624279005 Eh    ::
         :: repulsion energy           0.821561865650 Eh    ::
         :: dispersion energy         -0.029001279427 Eh    ::
         :: halogen bond corr.         0.000000000000 Eh    ::
         :: add. restraining           0.000000000000 Eh    ::
         :: total charge              -1.000000000000 e     ::
         :::::::::::::::::::::::::::::::::::::::::::::::::::::

           -------------------------------------------------
          |                Property Printout                |
           -------------------------------------------------

    * Orbital Energies and Occupations

         #    Occupation            Energy/Eh            Energy/eV
      -------------------------------------------------------------
         1        2.0000           -0.8365270             -22.7631
       ...           ...                  ...                  ...
        59        2.0000           -0.4755418             -12.9402
        60        2.0000           -0.4722274             -12.8500
        61        2.0000           -0.4608612             -12.5407
        62        2.0000           -0.4502605             -12.2522
        63        2.0000           -0.4458322             -12.1317
        64        2.0000           -0.4393484             -11.9553
        65        2.0000           -0.4324869             -11.7686
        66        2.0000           -0.4189814             -11.4011
        67        2.0000           -0.4157229             -11.3124
        68        2.0000           -0.4110691             -11.1858
        69        2.0000           -0.3974623             -10.8155
        70        2.0000           -0.3738391             -10.1727
        71        1.9491           -0.3206890              -8.7264 (HOMO)
        72        0.0509           -0.3137633              -8.5379 (LUMO)
        73                         -0.2686040              -7.3091
        74                         -0.2428688              -6.6088
        75                         -0.2307907              -6.2801
        76                         -0.1465099              -3.9867
        77                         -0.1338978              -3.6435
        78                         -0.1315727              -3.5803
        79                         -0.1267436              -3.4489
        80                         -0.1083221              -2.9476
        81                         -0.1051606              -2.8616
        82                         -0.0999224              -2.7190
       ...                                ...                  ...
       144                          0.7326996              19.9378
      -------------------------------------------------------------
                  HL-Gap            0.0069258 Eh            0.1885 eV
             Fermi-level           -0.3172261 Eh           -8.6322 eV

  Mulliken/CM5 charges         n(s)   n(p)   n(d)
     1C     0.16512  0.04393   0.981  2.854  0.000
     2O    -0.43313 -0.53160   1.693  4.740  0.000
     3C     0.57027  0.63576   0.972  2.457  0.000
     4O    -0.55897 -0.60366   1.725  4.834  0.000
     5C     0.06087  0.13791   1.044  2.895  0.000
     6N    -0.37504 -0.56374   1.522  3.853  0.000
     7C     0.26873  0.42032   1.028  2.703  0.000
     8C     0.16035  0.20036   1.062  2.778  0.000
     9C    -0.09649 -0.23680   1.016  3.080  0.000
    10C    -0.09496 -0.23279   1.016  3.079  0.000
    11N    -0.39972 -0.74905   1.456  3.943  0.000
    12C     0.40593  0.50114   0.986  2.608  0.000
    13O    -0.66410 -0.70901   1.742  4.922  0.000
    14C     0.22475  0.33969   0.986  2.790  0.000
    15N    -0.23605 -0.33371   1.557  3.679  0.000
    16N    -0.38035 -0.46948   1.597  3.783  0.000
    17C     0.35057  0.41419   1.030  2.619  0.000
    18C    -0.11023 -0.24869   1.017  3.093  0.000
    19C    -0.10995 -0.24838   1.017  3.093  0.000
    20O    -0.49189 -0.55075   1.717  4.775  0.000
    21N    -0.21106 -0.45895   1.456  3.755  0.000
    22C     0.05192 -0.03563   0.991  2.957  0.000
    23C     0.43772  0.54029   0.985  2.577  0.000
    24O    -0.59278 -0.63556   1.729  4.863  0.000
    25C     0.22022  0.25436   1.026  2.754  0.000
    26O    -0.51227 -0.70531   1.690  4.822  0.000
    27H     0.05477  0.11518   0.945  0.000  0.000
    28H     0.05411  0.11622   0.946  0.000  0.000
    29H     0.05300  0.11451   0.947  0.000  0.000
    30H     0.03244  0.09072   0.968  0.000  0.000
    31H     0.05617  0.11701   0.944  0.000  0.000
    32H     0.02715  0.08238   0.973  0.000  0.000
    33H     0.03213  0.09115   0.968  0.000  0.000
    34H     0.04634  0.10657   0.954  0.000  0.000
    35H     0.02997  0.08886   0.970  0.000  0.000
    36H     0.22439  0.43029   0.776  0.000  0.000
    37H     0.02761  0.08245   0.972  0.000  0.000
    38H     0.02406  0.07954   0.976  0.000  0.000
    39H     0.03184  0.08964   0.968  0.000  0.000
    40H     0.02743  0.08222   0.973  0.000  0.000
    41H     0.02394  0.07945   0.976  0.000  0.000
    42H     0.03139  0.08920   0.969  0.000  0.000
    43H     0.05427  0.11822   0.946  0.000  0.000
    44H     0.06623  0.13450   0.934  0.000  0.000
    45H     0.05618  0.13215   0.944  0.000  0.000
    46H     0.39712  0.58486   0.603  0.000  0.000

Wiberg/Mayer (AO) data.
largest (>0.10) Wiberg bond orders for each atom

 ---------------------------------------------------------------------------
     #   Z sym  total        # sym  WBO       # sym  WBO       # sym  WBO
 ---------------------------------------------------------------------------
     1   6 C    3.867 --    27 H    0.986    29 H    0.980    28 H    0.980
                             2 O    0.890
     2   8 O    2.192 --     3 C    1.075     1 C    0.890     4 O    0.126
     3   6 C    3.830 --     4 O    1.660     2 O    1.075     5 C    1.017
     4   8 O    1.915 --     3 C    1.660     2 O    0.126
     5   6 C    3.950 --    25 C    1.472     6 N    1.189     3 C    1.017
     6   7 N    3.027 --     7 C    1.564     5 C    1.189
     7   6 C    3.917 --     6 N    1.564    21 N    1.174     8 C    0.973
     8   6 C    3.956 --    10 C    0.989     9 C    0.981     7 C    0.973
                            11 N    0.954
     9   6 C    3.991 --    32 H    0.987    30 H    0.982     8 C    0.981
                            31 H    0.976
    10   6 C    3.993 --     8 C    0.989    33 H    0.986    35 H    0.985
                            34 H    0.982
    11   7 N    3.185 --    12 C    1.042     8 C    0.954    36 H    0.917
    12   6 C    3.916 --    13 O    1.461    14 C    1.234    11 N    1.042
    13   8 O    1.797 --    12 C    1.461
    14   6 C    3.820 --    15 N    1.382    12 C    1.234    20 O    0.929
                            16 N    0.141
    15   7 N    3.025 --    16 N    1.488    14 C    1.382
    16   7 N    2.863 --    15 N    1.488    17 C    0.981    14 C    0.141
    17   6 C    3.896 --    16 N    0.981    18 C    0.978    19 C    0.978
                            20 O    0.920
    18   6 C    3.991 --    38 H    0.988    37 H    0.986    39 H    0.985
                            17 C    0.978
    19   6 C    3.991 --    41 H    0.988    40 H    0.986    42 H    0.985
                            17 C    0.978
    20   8 O    2.052 --    14 C    0.929    17 C    0.920
    21   7 N    3.498 --     7 C    1.174    23 C    1.117    22 C    0.930
                            24 O    0.134
    22   6 C    3.922 --    43 H    0.977    44 H    0.976    45 H    0.971
                            21 N    0.930
    23   6 C    3.908 --    24 O    1.562    21 N    1.117    25 C    1.083
    24   8 O    1.872 --    23 C    1.562    21 N    0.134
    25   6 C    3.898 --     5 C    1.472    26 O    1.092    23 C    1.083
    26   8 O    2.069 --    25 C    1.092    46 H    0.807
    27   1 H    1.010 --     1 C    0.986
    28   1 H    1.008 --     1 C    0.980
    29   1 H    1.007 --     1 C    0.980
    30   1 H    1.005 --     9 C    0.982
    31   1 H    1.022 --     9 C    0.976
    32   1 H    1.005 --     9 C    0.987
    33   1 H    1.010 --    10 C    0.986
    34   1 H    1.014 --    10 C    0.982
    35   1 H    1.015 --    10 C    0.985
    36   1 H    0.965 --    11 N    0.917
    37   1 H    1.008 --    18 C    0.986
    38   1 H    1.009 --    18 C    0.988
    39   1 H    1.013 --    18 C    0.985
    40   1 H    1.007 --    19 C    0.986
    41   1 H    1.010 --    19 C    0.988
    42   1 H    1.013 --    19 C    0.985
    43   1 H    1.005 --    22 C    0.977
    44   1 H    1.009 --    22 C    0.976
    45   1 H    1.021 --    22 C    0.971
    46   1 H    0.858 --    26 O    0.807
 ---------------------------------------------------------------------------

Topologies differ in total number of bonds
Writing topology from bond orders to xtbtopo.mol

 dipole moment from electron density (au)
     X       Y       Z   
  -6.0457   3.9991  -0.6081  total (Debye):   18.489

           -------------------------------------------------
          |                Geometry Summary                 |
           -------------------------------------------------

      molecular mass/u    :      366.3497991
   center of mass at/Å    :       -0.1960994      -0.0330398      -0.0377336
  moments of inertia/u·Å² :        0.1430536E+04   0.5235108E+04   0.5394494E+04
rotational constants/cm⁻¹ :        0.1178414E-01   0.3220112E-02   0.3124970E-02

 * 42 selected distances

     #   Z          #   Z                                           value/Å
     1   6 C        2   8 O                                       1.4326019
     2   8 O        3   6 C                                       1.3454293
     3   6 C        4   8 O                                       1.2097337
     5   6 C        6   7 N                                       1.3658374
     6   7 N        7   6 C                                       1.2951864
     8   6 C        9   6 C                                       1.5381966
     8   6 C       10   6 C                                       1.5391462 (max)
     8   6 C       11   7 N                                       1.4608331
    11   7 N       12   6 C                                       1.4165711
    12   6 C       14   6 C                                       1.4098452
    14   6 C       15   7 N                                       1.3278104
    15   7 N       16   7 N                                       1.2945554
    17   6 C       18   6 C                                       1.5363114
    17   6 C       19   6 C                                       1.5368408
    14   6 C       20   8 O                                       1.4076643
    17   6 C       20   8 O                                       1.4223027
     7   6 C       21   7 N                                       1.3711725
    21   7 N       22   6 C                                       1.4658136
    21   7 N       23   6 C                                       1.3914650
    23   6 C       24   8 O                                       1.2266222
     5   6 C       25   6 C                                       1.3730270
    25   6 C       26   8 O                                       1.3438727
     1   6 C       27   1 H                                       1.0870706
     1   6 C       28   1 H                                       1.0926052
     1   6 C       29   1 H                                       1.0925990
     9   6 C       30   1 H                                       1.0876299
     9   6 C       31   1 H                                       1.0884664
     9   6 C       32   1 H                                       1.0893002
    10   6 C       33   1 H                                       1.0890658
    10   6 C       34   1 H                                       1.0888729
    10   6 C       35   1 H                                       1.0886050
    11   7 N       36   1 H                                       1.0129287
    18   6 C       37   1 H                                       1.0883848
    18   6 C       38   1 H                                       1.0882423
    18   6 C       39   1 H                                       1.0888181
    19   6 C       40   1 H                                       1.0884799
    19   6 C       41   1 H                                       1.0882373
    19   6 C       42   1 H                                       1.0888195
    22   6 C       43   1 H                                       1.0905853
    22   6 C       44   1 H                                       1.0903306
    22   6 C       45   1 H                                       1.0857125
    26   8 O       46   1 H                                       0.9712820 (min)

 * 7 distinct bonds (by element types)

   Z      Z             #   av. dist./Å        max./Å        min./Å
   1 H    6 C          18     1.0889903     1.0926052     1.0857125
   6 C    6 C           6     1.4888946     1.5391462     1.3730270
   1 H    7 N           1     1.0129287     1.0129287     1.0129287
   6 C    7 N           8     1.3868362     1.4658136     1.2951864
   7 N    7 N           1     1.2945554     1.2945554     1.2945554
   1 H    8 O           1     0.9712820     0.9712820     0.9712820
   6 C    8 O           7     1.3411753     1.4326019     1.2097337


optimized geometry written to: xtbopt.xyz


           -------------------------------------------------
          | TOTAL ENERGY              -87.063708096650 Eh   |
          | GRADIENT NORM               0.000901257055 Eh/α |
          | HOMO-LUMO GAP               0.188459389391 eV   |
           -------------------------------------------------

------------------------------------------------------------------------
 * finished run on 2023/06/20 at 15:32:24.979     
------------------------------------------------------------------------
 total:
 * wall-time:     0 d,  0 h,  0 min,  2.084 sec
 *  cpu-time:     0 d,  0 h,  0 min,  2.015 sec
 * ratio c/w:     0.967 speedup
 SCF:
 * wall-time:     0 d,  0 h,  0 min,  0.188 sec
 *  cpu-time:     0 d,  0 h,  0 min,  0.188 sec
 * ratio c/w:     1.000 speedup
 ANC optimizer:
 * wall-time:     0 d,  0 h,  0 min,  1.791 sec
 *  cpu-time:     0 d,  0 h,  0 min,  1.786 sec
 * ratio c/w:     0.997 speedup

