42
 energy: -83.624500626753 gnorm: 0.000358687661 xtb: 6.5.1 (579679a)
C           -4.81665045533165        3.01828394748827       -0.74110364476234
O           -4.08299676160703        2.15029904074624        0.10117515172192
C           -3.21195155504134        1.30342173771829       -0.53574710446232
O           -3.10866584043949        1.36143650243282       -1.76414785247641
C           -2.46439455353712        0.40152598188664        0.32990466654854
C           -2.58718501450881        0.42385624992609        1.75320106140393
O           -3.45410588499642        1.07498971891332        2.41706716375208
C           -1.54601725778232       -0.34755894270973        2.48871412790807
O           -1.38406792692716       -0.31361280780974        3.71815457476685
N           -0.63522538283713       -1.04821783367249        1.71911236499226
C           -0.97849703144420       -1.46346854108480        0.36036920797714
C           -1.92385539372139       -2.69165812894356        0.44372327704110
C            0.34965415342462       -1.79420250217410       -0.40362176688603
C            1.14130125609505       -2.95604763326132        0.21306516065370
C            0.04435986870853       -2.09907625370649       -1.87654920205687
N            1.13067336917340       -0.56070278032579       -0.31344270621742
C            2.39853796625285       -0.40020830084047       -0.78822276639235
O            2.97369612291602       -1.19505622127630       -1.55084090671245
C            2.98017036019027        0.85072313797298       -0.32863867443325
N            2.39900388471729        1.73958453639079        0.45935491154855
N            3.29518949181721        2.75919233065201        0.62621557163531
C            4.35278293748798        2.44863832597922       -0.04976784887349
C            5.59946722100431        3.24113793791531       -0.17612412080582
O            4.23791546002052        1.26217459740629       -0.68452982315399
N           -1.61117377015967       -0.40343045196934       -0.36296382396063
H           -4.14994770596579        3.67844739131959       -1.30794286646569
H           -5.42910353652155        2.45233535490063       -1.45215966822442
H           -5.46512032926472        3.61913923339190       -0.10317926580255
H           -0.08484577928658       -1.70859518515335        2.24565329034234
H           -1.45942530898200       -3.50852959722664        0.99138815766842
H           -2.83489570417767       -2.39804677449927        0.96511288341552
H           -2.19031560847435       -3.03135656921172       -0.55449368785330
H            0.56021047213809       -3.87514951550346        0.17470726912020
H            2.06230686244809       -3.11304690567035       -0.34788183649262
H            1.40296308256947       -2.74750903542525        1.24939015066117
H           -0.58405718694698       -1.30982014368287       -2.29329237616161
H            0.96768809616278       -2.16375253059486       -2.45003950338552
H           -0.47731252558265       -3.05070668862832       -1.96351258181290
H            0.83918665473942        0.07786189373779        0.42214796776485
H            5.52645766510292        4.13409034608070        0.43952980571826
H            6.45694208829857        2.65026300927189        0.14407412860304
H            5.76130250027323        3.53235606924260       -1.21385686585967
