42
 energy: -83.001694641904 gnorm: 0.000385430060 xtb: 6.5.1 (579679a)
C           -6.03074487657038        0.31688165344388       -0.99192539546596
O           -5.07404527702076        0.01459825803601        0.03690822344737
C           -3.80185292545863        0.13208339053081       -0.27431449795365
O           -3.37393238969005        0.48329200467094       -1.34145403084659
C           -2.87738361451788       -0.20466065149373        0.93335612062511
C           -3.55356504870941       -1.15186954519451        1.92365156428634
N           -1.71033190793666       -0.83653421264687        0.36261441365015
C           -0.73613462007698       -0.13671291477420       -0.04384092143420
C            0.40414283829562       -0.78452838611238       -0.79872370369743
C            0.40430228054079       -2.29816160851091       -0.57017002242001
C            0.21764911561375       -0.44559498956036       -2.28566784377778
N            1.65038997251583       -0.20152712210185       -0.29221185183533
C            2.86624124197994       -0.50342896277952       -0.80813513928353
O            3.06809982711876       -1.14512366660235       -1.82108632760272
C            3.94566600535893        0.07763264108453        0.03008686424096
N            3.78087078721493        0.74626232920059        1.13225504440982
N            5.02336175019207        1.07535049312583        1.58139391870532
C            5.86831213499952        0.58444620357275        0.72520470458328
C            7.34464088153403        0.66893824519838        0.76345022457118
O            5.24828341278297       -0.05714976796094       -0.27574164212867
N           -0.65061553212230        1.24261368967160        0.10884129987059
C           -1.48867770209164        1.97670696563209        0.89179454789287
O           -1.35284413885211        3.16680439633389        1.06153440907826
C           -2.60108281211835        1.15363425433462        1.55515840664067
O           -3.23619680427342        1.58889184234477        2.47881723513933
H           -5.95231838679467        1.36937349187075       -1.27042818148284
H           -7.01035241858127        0.10320603031242       -0.57104299183455
H           -5.84277743549333       -0.30948375511919       -1.86563474431624
H           -4.41220918850842       -0.66274656608992        2.37952994737869
H           -2.84131691399421       -1.42277266696624        2.70072209001482
H           -3.87940579854651       -2.05224736436160        1.40834101909699
H            1.21256301255378       -2.75773228983519       -1.13575069120533
H            0.53698848157998       -2.51564348703026        0.48817659593801
H           -0.54672757887664       -2.71337566731538       -0.89894530450942
H            0.35814566011525        0.62168392067167       -2.44645113914968
H            0.93579923841688       -0.99438853802941       -2.89104377681930
H           -0.79146217396582       -0.72125526720785       -2.58988754699063
H            1.63469952448901        0.21694557563197        0.62627126781064
H            7.77442471179635       -0.33259073834013        0.77519817124902
H            7.71126066735222        1.18278430307239       -0.12520354557999
H            7.65690009330276        1.21113406983739        1.65261193450134
H            0.12123590644929        1.73234840945640       -0.31826070480623
