      -----------------------------------------------------------      
     |                   =====================                   |     
     |                           x T B                           |     
     |                   =====================                   |     
     |                         S. Grimme                         |     
     |          Mulliken Center for Theoretical Chemistry        |     
     |                    University of Bonn                     |     
      -----------------------------------------------------------      

   * xtb version 6.5.1 (579679a) compiled by 'ehlert@majestix' on 2022-07-11

   xtb is free software: you can redistribute it and/or modify it under
   the terms of the GNU Lesser General Public License as published by
   the Free Software Foundation, either version 3 of the License, or
   (at your option) any later version.
   
   xtb is distributed in the hope that it will be useful,
   but WITHOUT ANY WARRANTY; without even the implied warranty of
   MERCHANTABILITY or FITNESS FOR A PARTICULAR PURPOSE.  See the
   GNU Lesser General Public License for more details.
   
   Cite this work as:
   * C. Bannwarth, E. Caldeweyher, S. Ehlert, A. Hansen, P. Pracht,
     J. Seibert, S. Spicher, S. Grimme, WIREs Comput. Mol. Sci., 2020, 11,
     e01493. DOI: 10.1002/wcms.1493
   
   for GFN2-xTB:
   * C. Bannwarth, S. Ehlert and S. Grimme., J. Chem. Theory Comput., 2019,
     15, 1652-1671. DOI: 10.1021/acs.jctc.8b01176
   for GFN1-xTB:
   * S. Grimme, C. Bannwarth, P. Shushkov, J. Chem. Theory Comput., 2017,
     13, 1989-2009. DOI: 10.1021/acs.jctc.7b00118
   for GFN0-xTB:
   * P. Pracht, E. Caldeweyher, S. Ehlert, S. Grimme, ChemRxiv, 2019, preprint.
     DOI: 10.26434/chemrxiv.8326202.v1
   for GFN-FF:
   * S. Spicher and S. Grimme, Angew. Chem. Int. Ed., 2020, 59, 15665-15673.
     DOI: 10.1002/anie.202004239
   
   for ALPB and GBSA implicit solvation:
   * S. Ehlert, M. Stahn, S. Spicher, S. Grimme, J. Chem. Theory Comput.,
     2021, 17, 4250-4261. DOI: 10.1021/acs.jctc.1c00471
   
   for DFT-D4:
   * E. Caldeweyher, C. Bannwarth and S. Grimme, J. Chem. Phys., 2017,
     147, 034112. DOI: 10.1063/1.4993215
   * E. Caldeweyher, S. Ehlert, A. Hansen, H. Neugebauer, S. Spicher,
     C. Bannwarth and S. Grimme, J. Chem. Phys., 2019, 150, 154122.
     DOI: 10.1063/1.5090222
   * E. Caldeweyher, J.-M. Mewes, S. Ehlert and S. Grimme, Phys. Chem. Chem. Phys.
     2020, 22, 8499-8512. DOI: 10.1039/D0CP00502A
   
   for sTDA-xTB:
   * S. Grimme and C. Bannwarth, J. Chem. Phys., 2016, 145, 054103.
     DOI: 10.1063/1.4959605
   
   in the mass-spec context:
   * V. Asgeirsson, C. Bauer and S. Grimme, Chem. Sci., 2017, 8, 4879.
     DOI: 10.1039/c7sc00601b
   * J. Koopman and S. Grimme, ACS Omega 2019, 4, 12, 15120-15133.
     DOI: 10.1021/acsomega.9b02011
   
   for metadynamics refer to:
   * S. Grimme, J. Chem. Theory Comput., 2019, 155, 2847-2862
     DOI: 10.1021/acs.jctc.9b00143
   
   for SPH calculations refer to:
   * S. Spicher and S. Grimme, J. Chem. Theory Comput., 2021, 17, 1701-1714
     DOI: 10.1021/acs.jctc.0c01306
   
   with help from (in alphabetical order)
   P. Atkinson, C. Bannwarth, F. Bohle, G. Brandenburg, E. Caldeweyher
   M. Checinski, S. Dohm, S. Ehlert, S. Ehrlich, I. Gerasimov, C. Hölzer
   A. Katbashev, J. Koopman, C. Lavigne, S. Lehtola, F. März, M. Müller,
   F. Musil, H. Neugebauer, J. Pisarek, C. Plett, P. Pracht, F. Pultar,
   J. Seibert, P. Shushkov, S. Spicher, M. Stahn, M. Steiner, T. Strunk,
   J. Stückrath, T. Rose, and J. Unsleber
   
 * started run on 2023/06/20 at 18:29:29.283     

           -------------------------------------------------
          |                Calculation Setup                |
           -------------------------------------------------

          program call               : /lustre/hpc/kemi/ree/PhD/git/ReactivityQM/dep/xtb-6.5.1/bin/xtb --gfn 1 /lustre/hpc/kemi/ree/PhD/git/ReactivityQM/calculations/R02deprot/reac01prodN18/conf04/R02deprot_reac01prodN18_conf04_gfn1.xyz --opt --vfukui --chrg 0 --uhf 0 --alpb DMSO
          hostname                   : node308
          coordinate file            : /lustre/hpc/kemi/ree/PhD/git/ReactivityQM/calculations/R02deprot/reac01prodN18/conf04/R02deprot_reac01prodN18_conf04_gfn1.xyz
          omp threads                :                     1

   ID    Z sym.   atoms
    1    6 C      1, 3, 5, 7-10, 12, 13, 15, 18, 19, 22, 24
    2    8 O      2, 4, 14, 20, 23, 25
    3    7 N      6, 11, 16, 17, 21
    4    1 H      26-42

           -------------------------------------------------
          |                 G F N 1 - x T B                 |
           -------------------------------------------------

        Reference                      10.1021/acs.jctc.7b00118
      * Hamiltonian:
        H0-scaling (s, p, d)           1.850000    2.250000    2.000000
        zeta-weighting                 0.000000
      * Dispersion:
        s8                             2.400000
        a1                             0.630000
        a2                             5.000000
        s9                             0.000000
      * Repulsion:
        kExp                           1.500000
        rExp                           1.000000
      * Coulomb:
        alpha                          2.000000
        third order                    atomic
        anisotropic                    false
      * Halogen bond correction:
        rad-scale                      1.300000
        damping                        0.440000

      * Solvation model:               ALPB
        Solvent                        DMSO
        Parameter file                 internal GFN1-xTB/ALPB
        Dielectric constant                4.6680E+01
        Reference state                gsolv [1 M gas/solution]
        Free energy shift                  7.6243E-03 Eh       4.7843E+00 kcal/mol
        Temperature                        2.9815E+02 K
        Density                            1.1000E+00 kg/L
        Solvent mass                       7.8130E+01 g/mol
        Interaction kernel             P16
        Born radius scaling (c1)           1.7672E+00
        Born radii integrator          GBOBC
        Born offset                        0.0000E+00 a0       0.0000E+00 AA
        H-bond correction              true
        Ion screening                  false
        Surface tension                    1.0000E-05 Eh       1.5569E+01 dyn/cm
        Grid points                               230 per atom

          ...................................................
          :                      SETUP                      :
          :.................................................:
          :  # basis functions                 134          :
          :  # atomic orbitals                 134          :
          :  # shells                           84          :
          :  # electrons                       134          :
          :  # halogen bonds                     0          :
          :  max. iterations                   250          :
          :  Hamiltonian                  GFN1-xTB          :
          :  restarted?                      false          :
          :  GBSA solvation                   true          :
          :  PC potential                    false          :
          :  electronic temp.          300.0000000     K    :
          :  accuracy                    1.0000000          :
          :  -> integral cutoff          0.2500000E+02      :
          :  -> integral neglect         0.1000000E-07      :
          :  -> SCF convergence          0.1000000E-05 Eh   :
          :  -> wf. convergence          0.2000000E-04 e    :
          :  Broyden damping             0.4000000          :
          ...................................................

 iter      E             dE          RMSdq      gap      omega  full diag
   1    -83.3384562 -0.833385E+02  0.846E+00    2.58       0.0  T
   2    -83.6744666 -0.336010E+00  0.507E+00    0.98       1.0  T
   3    -83.6608187  0.136479E-01  0.173E+00    0.52       1.0  T
   4    -83.4180048  0.242814E+00  0.145E+00    0.06       1.0  T
   5    -83.6960914 -0.278087E+00  0.184E-01    0.59       1.0  T
   6    -83.6965359 -0.444506E-03  0.114E-01    0.64       1.0  T
   7    -83.6967460 -0.210056E-03  0.102E-01    0.59       1.0  T
   8    -83.6968375 -0.915549E-04  0.899E-02    0.55       1.0  T
   9    -83.6969275 -0.899318E-04  0.790E-02    0.50       1.0  T
  10    -83.6970058 -0.783872E-04  0.678E-02    0.45       1.0  T
  11    -83.6971544 -0.148567E-03  0.420E-02    0.35       1.0  T
  12    -83.6972622 -0.107779E-03  0.147E-02    0.22       1.1  T
  13    -83.6972854 -0.232525E-04  0.188E-03    0.24       8.2  T
  14    -83.6972858 -0.316438E-06  0.532E-04    0.24      29.0  T
  15    -83.6972857  0.156383E-07  0.638E-04    0.24      24.2  T
  16    -83.6972858 -0.395088E-07  0.164E-04    0.24      94.4  T
  17    -83.6972858 -0.265122E-08  0.937E-06    0.24    1647.3  T

   *** convergence criteria satisfied after 17 iterations ***

         #    Occupation            Energy/Eh            Energy/eV
      -------------------------------------------------------------
         1        2.0000           -0.8936548             -24.3176
       ...           ...                  ...                  ...
        61        2.0000           -0.4749515             -12.9241
        62        2.0000           -0.4615837             -12.5603
        63        2.0000           -0.4556006             -12.3975
        64        2.0000           -0.4414822             -12.0133
        65        2.0000           -0.4206563             -11.4466
        66        2.0000           -0.3929925             -10.6939
        67        1.9802           -0.3829803             -10.4214 (HOMO)
        68        0.0198           -0.3742313             -10.1834 (LUMO)
        69                         -0.2909877              -7.9182
        70                         -0.2893586              -7.8738
        71                         -0.2548119              -6.9338
        72                         -0.2488273              -6.7709
       ...                                ...                  ...
       134                          0.7464019              20.3106
      -------------------------------------------------------------
                  HL-Gap            0.0087490 Eh            0.2381 eV
             Fermi-level           -0.3786058 Eh          -10.3024 eV

 SCC (total)                   0 d,  0 h,  0 min,  0.186 sec
 SCC setup                      ...        0 min,  0.002 sec (  1.222%)
 Dispersion                     ...        0 min,  0.000 sec (  0.219%)
 classical contributions        ...        0 min,  0.000 sec (  0.071%)
 integral evaluation            ...        0 min,  0.036 sec ( 19.309%)
 iterations                     ...        0 min,  0.063 sec ( 33.630%)
 molecular gradient             ...        0 min,  0.084 sec ( 44.982%)
 printout                       ...        0 min,  0.001 sec (  0.534%)

         :::::::::::::::::::::::::::::::::::::::::::::::::::::
         ::                     SUMMARY                     ::
         :::::::::::::::::::::::::::::::::::::::::::::::::::::
         :: total energy             -82.934259494851 Eh    ::
         :: total w/o Gsasa/hb       -82.910848319725 Eh    ::
         :: gradient norm              0.122702667287 Eh/a0 ::
         :: HOMO-LUMO gap              0.238072014881 eV    ::
         ::.................................................::
         :: SCC energy               -83.697285790165 Eh    ::
         :: -> electrostatic           0.390454355526 Eh    ::
         :: -> Gsolv                  -0.070082385764 Eh    ::
         ::    -> Gelec               -0.046671210639 Eh    ::
         ::    -> Gsasa               -0.024251395116 Eh    ::
         ::    -> Ghb                 -0.006784059015 Eh    ::
         ::    -> Gshift               0.007624279005 Eh    ::
         :: repulsion energy           0.789882577898 Eh    ::
         :: dispersion energy         -0.026856282584 Eh    ::
         :: halogen bond corr.         0.000000000000 Eh    ::
         :: add. restraining           0.000000000000 Eh    ::
         :: total charge              -0.000000000002 e     ::
         :::::::::::::::::::::::::::::::::::::::::::::::::::::

      ----------------------------------------------------------- 
     |                   =====================                   |
     |                        A N C O P T                        |
     |                   =====================                   |
     |               Approximate Normal Coordinate               |
     |                Rational Function Optimizer                |
      ----------------------------------------------------------- 

          ...................................................
          :                      SETUP                      :
          :.................................................:
          :   optimization level            normal          :
          :   max. optcycles                   200          :
          :   ANC micro-cycles                  20          :
          :   degrees of freedom               120          :
          :.................................................:
          :   RF solver                   davidson          :
          :   write xtbopt.log                true          :
          :   linear?                        false          :
          :   energy convergence         0.5000000E-05 Eh   :
          :   grad. convergence          0.1000000E-02 Eh/α :
          :   maximium RF displ.         1.0000000          :
          :   Hlow (freq-cutoff)         0.1000000E-01      :
          :   Hmax (freq-cutoff)         5.0000000          :
          :   S6 in model hess.         20.0000000          :
          ...................................................

generating ANC from model Hessian ...
Using Lindh-Hessian (1995)
 Shifting diagonal of input Hessian by   9.800345810624691E-003
 Lowest  eigenvalues of input Hessian
    0.000000    0.000000    0.000000    0.000000    0.000000    0.000000
    0.010000    0.010104    0.010507    0.010892    0.012137    0.012506
    0.013030    0.013882    0.014353    0.014448    0.016604    0.017085
 Highest eigenvalues
    2.022835    2.131033    2.195000    2.297978    2.321858    2.391650
 

........................................................................
.............................. CYCLE    1 ..............................
........................................................................
   1    -83.6972858 -0.836973E+02  0.423E-05    0.24       0.0  T
   2    -83.6972858 -0.777760E-10  0.321E-05    0.24     480.5  T
   3    -83.6972858 -0.102119E-09  0.340E-06    0.24    4544.4  T
     SCC iter.                  ...        0 min,  0.012 sec
     gradient                   ...        0 min,  0.082 sec
 * total energy  :   -82.9342595 Eh     change       -0.7588596E-11 Eh
   gradient norm :     0.1227031 Eh/α   predicted     0.0000000E+00 (-100.00%)
   displ. norm   :     0.3291469 α      lambda       -0.1799320E-01
   maximum displ.:     0.1359142 α      in ANC's #25, #12, #33, ...

........................................................................
.............................. CYCLE    2 ..............................
........................................................................
   1    -83.7079906 -0.837080E+02  0.705E-02    0.35       0.0  T
   2    -83.7082106 -0.220057E-03  0.317E-02    0.29       1.0  T
   3    -83.7082294 -0.187883E-04  0.146E-02    0.29       1.1  T
   4    -83.7082296 -0.197747E-06  0.502E-03    0.28       3.1  T
   5    -83.7082297 -0.145109E-06  0.126E-03    0.28      12.3  T
   6    -83.7082298 -0.428629E-07  0.324E-04    0.28      47.6  T
   7    -83.7082298 -0.386684E-08  0.993E-05    0.28     155.4  T
   8    -83.7082298 -0.130726E-09  0.330E-05    0.28     467.2  T
     SCC iter.                  ...        0 min,  0.029 sec
     gradient                   ...        0 min,  0.082 sec
 * total energy  :   -82.9468258 Eh     change       -0.1256634E-01 Eh
   gradient norm :     0.0577055 Eh/α   predicted    -0.9984386E-02 ( -20.55%)
   displ. norm   :     0.2997121 α      lambda       -0.6161477E-02
   maximum displ.:     0.1123899 α      in ANC's #25, #2, #26, ...

........................................................................
.............................. CYCLE    3 ..............................
........................................................................
   1    -83.7164503 -0.837165E+02  0.589E-02    0.36       0.0  T
   2    -83.7165981 -0.147829E-03  0.248E-02    0.33       1.0  T
   3    -83.7166108 -0.127024E-04  0.103E-02    0.33       1.5  T
   4    -83.7166108  0.227335E-07  0.396E-03    0.32       3.9  T
   5    -83.7166110 -0.173875E-06  0.827E-04    0.32      18.7  T
   6    -83.7166110 -0.151875E-07  0.206E-04    0.32      74.7  T
   7    -83.7166110 -0.119536E-08  0.659E-05    0.32     234.0  T
   8    -83.7166110 -0.456311E-10  0.187E-05    0.32     825.0  T
     SCC iter.                  ...        0 min,  0.029 sec
     gradient                   ...        0 min,  0.082 sec
 * total energy  :   -82.9505365 Eh     change       -0.3710642E-02 Eh
   gradient norm :     0.0175638 Eh/α   predicted    -0.3359352E-02 (  -9.47%)
   displ. norm   :     0.2131969 α      lambda       -0.1001498E-02
   maximum displ.:     0.1311077 α      in ANC's #2, #12, #26, ...

........................................................................
.............................. CYCLE    4 ..............................
........................................................................
   1    -83.7186603 -0.837187E+02  0.212E-02    0.34       0.0  T
   2    -83.7186795 -0.191691E-04  0.911E-03    0.33       1.7  T
   3    -83.7186810 -0.155547E-05  0.424E-03    0.33       3.6  T
   4    -83.7186810  0.788496E-08  0.158E-03    0.33       9.8  T
   5    -83.7186811 -0.374255E-07  0.286E-04    0.33      53.9  T
   6    -83.7186811 -0.132702E-08  0.793E-05    0.33     194.6  T
   7    -83.7186811 -0.109566E-09  0.305E-05    0.33     505.2  T
     SCC iter.                  ...        0 min,  0.025 sec
     gradient                   ...        0 min,  0.082 sec
 * total energy  :   -82.9512649 Eh     change       -0.7283849E-03 Eh
   gradient norm :     0.0096721 Eh/α   predicted    -0.5235180E-03 ( -28.13%)
   displ. norm   :     0.2735048 α      lambda       -0.6943559E-03
   maximum displ.:     0.2013682 α      in ANC's #2, #8, #7, ...

........................................................................
.............................. CYCLE    5 ..............................
........................................................................
   1    -83.7196696 -0.837197E+02  0.165E-02    0.34       0.0  T
   2    -83.7196808 -0.112278E-04  0.720E-03    0.33       2.1  T
   3    -83.7196817 -0.937518E-06  0.370E-03    0.33       4.2  T
   4    -83.7196818 -0.120427E-07  0.132E-03    0.33      11.7  T
   5    -83.7196818 -0.206666E-07  0.222E-04    0.33      69.4  T
   6    -83.7196818 -0.952866E-09  0.600E-05    0.33     257.3  T
   7    -83.7196818 -0.589182E-10  0.236E-05    0.33     652.8  T
     SCC iter.                  ...        0 min,  0.025 sec
     gradient                   ...        0 min,  0.082 sec
 * total energy  :   -82.9517652 Eh     change       -0.5003040E-03 Eh
   gradient norm :     0.0074492 Eh/α   predicted    -0.3732761E-03 ( -25.39%)
   displ. norm   :     0.2732882 α      lambda       -0.4208794E-03
   maximum displ.:     0.2184200 α      in ANC's #2, #8, #7, ...

........................................................................
.............................. CYCLE    6 ..............................
........................................................................
   1    -83.7200172 -0.837200E+02  0.899E-03    0.34       0.0  T
   2    -83.7200203 -0.306346E-05  0.394E-03    0.33       3.9  T
   3    -83.7200206 -0.267861E-06  0.217E-03    0.33       7.1  T
   4    -83.7200206 -0.173774E-07  0.768E-04    0.33      20.1  T
   5    -83.7200206 -0.286698E-08  0.980E-05    0.33     157.5  T
   6    -83.7200206 -0.225697E-09  0.295E-05    0.33     523.3  T
     SCC iter.                  ...        0 min,  0.022 sec
     gradient                   ...        0 min,  0.082 sec
 * total energy  :   -82.9521065 Eh     change       -0.3413160E-03 Eh
   gradient norm :     0.0077253 Eh/α   predicted    -0.2261828E-03 ( -33.73%)
   displ. norm   :     0.2883762 α      lambda       -0.3940803E-03
   maximum displ.:     0.2307381 α      in ANC's #2, #8, #16, ...

........................................................................
.............................. CYCLE    7 ..............................
........................................................................
   1    -83.7201811 -0.837202E+02  0.659E-03    0.33       0.0  T
   2    -83.7201830 -0.191382E-05  0.296E-03    0.33       5.2  T
   3    -83.7201831 -0.115730E-06  0.153E-03    0.33      10.1  T
   4    -83.7201831 -0.383719E-08  0.608E-04    0.33      25.4  T
   5    -83.7201831 -0.206380E-08  0.943E-05    0.33     163.6  T
   6    -83.7201831 -0.240078E-09  0.223E-05    0.33     692.3  T
     SCC iter.                  ...        0 min,  0.022 sec
     gradient                   ...        0 min,  0.083 sec
 * total energy  :   -82.9524511 Eh     change       -0.3446560E-03 Eh
   gradient norm :     0.0071711 Eh/α   predicted    -0.2134267E-03 ( -38.08%)
   displ. norm   :     0.3315510 α      lambda       -0.4395173E-03
   maximum displ.:     0.2616545 α      in ANC's #2, #8, #16, ...

........................................................................
.............................. CYCLE    8 ..............................
........................................................................
   1    -83.7202504 -0.837203E+02  0.732E-03    0.33       0.0  T
   2    -83.7202532 -0.277335E-05  0.344E-03    0.33       4.5  T
   3    -83.7202533 -0.155680E-06  0.160E-03    0.33       9.7  T
   4    -83.7202533 -0.745260E-09  0.634E-04    0.33      24.3  T
   5    -83.7202533 -0.215221E-08  0.107E-04    0.33     144.5  T
   6    -83.7202533 -0.351989E-09  0.270E-05    0.33     572.2  T
     SCC iter.                  ...        0 min,  0.022 sec
     gradient                   ...        0 min,  0.082 sec
 * total energy  :   -82.9528347 Eh     change       -0.3835412E-03 Eh
   gradient norm :     0.0065436 Eh/α   predicted    -0.2439176E-03 ( -36.40%)
   displ. norm   :     0.3606983 α      lambda       -0.4275505E-03
   maximum displ.:     0.2860554 α      in ANC's #2, #8, #1, ...

........................................................................
.............................. CYCLE    9 ..............................
........................................................................
   1    -83.7203727 -0.837204E+02  0.673E-03    0.33       0.0  T
   2    -83.7203749 -0.217239E-05  0.331E-03    0.33       4.7  T
   3    -83.7203751 -0.181765E-06  0.149E-03    0.33      10.4  T
   4    -83.7203751 -0.633349E-09  0.569E-04    0.33      27.1  T
   5    -83.7203751 -0.261116E-08  0.113E-04    0.33     136.5  T
   6    -83.7203751 -0.323084E-09  0.270E-05    0.33     572.0  T
     SCC iter.                  ...        0 min,  0.021 sec
     gradient                   ...        0 min,  0.083 sec
 * total energy  :   -82.9532024 Eh     change       -0.3676912E-03 Eh
   gradient norm :     0.0063083 Eh/α   predicted    -0.2415886E-03 ( -34.30%)
   displ. norm   :     0.3427230 α      lambda       -0.3494817E-03
   maximum displ.:     0.2764656 α      in ANC's #2, #1, #8, ...

........................................................................
.............................. CYCLE   10 ..............................
........................................................................
   1    -83.7208767 -0.837209E+02  0.499E-03    0.34       0.0  T
   2    -83.7208776 -0.881182E-06  0.266E-03    0.34       5.8  T
   3    -83.7208777 -0.133929E-06  0.123E-03    0.34      12.5  T
   4    -83.7208777 -0.759059E-09  0.337E-04    0.34      45.8  T
   5    -83.7208777 -0.110148E-08  0.723E-05    0.34     213.4  T
   6    -83.7208777 -0.113772E-09  0.209E-05    0.34     739.4  T
     SCC iter.                  ...        0 min,  0.022 sec
     gradient                   ...        0 min,  0.083 sec
 * total energy  :   -82.9535049 Eh     change       -0.3025594E-03 Eh
   gradient norm :     0.0055353 Eh/α   predicted    -0.1952667E-03 ( -35.46%)
   displ. norm   :     0.3007540 α      lambda       -0.2710945E-03
   maximum displ.:     0.2467216 α      in ANC's #2, #1, #8, ...

........................................................................
.............................. CYCLE   11 ..............................
........................................................................
   1    -83.7216139 -0.837216E+02  0.418E-03    0.34       0.0  T
   2    -83.7216145 -0.552393E-06  0.212E-03    0.34       7.3  T
   3    -83.7216145 -0.819863E-07  0.101E-03    0.34      15.3  T
   4    -83.7216145 -0.751328E-09  0.309E-04    0.34      50.0  T
   5    -83.7216145 -0.721613E-09  0.516E-05    0.34     299.0  T
   6    -83.7216145 -0.471090E-10  0.181E-05    0.34     851.4  T
     SCC iter.                  ...        0 min,  0.021 sec
     gradient                   ...        0 min,  0.083 sec
 * total energy  :   -82.9537458 Eh     change       -0.2408762E-03 Eh
   gradient norm :     0.0041502 Eh/α   predicted    -0.1478107E-03 ( -38.64%)
   displ. norm   :     0.2761610 α      lambda       -0.2303633E-03
   maximum displ.:     0.2280254 α      in ANC's #2, #1, #8, ...

........................................................................
.............................. CYCLE   12 ..............................
........................................................................
   1    -83.7223705 -0.837224E+02  0.435E-03    0.35       0.0  T
   2    -83.7223712 -0.727906E-06  0.192E-03    0.35       8.0  T
   3    -83.7223713 -0.660172E-07  0.920E-04    0.35      16.8  T
   4    -83.7223713 -0.116027E-08  0.350E-04    0.35      44.0  T
   5    -83.7223713 -0.858734E-09  0.649E-05    0.35     237.9  T
   6    -83.7223713 -0.937632E-10  0.188E-05    0.35     820.9  T
     SCC iter.                  ...        0 min,  0.022 sec
     gradient                   ...        0 min,  0.083 sec
 * total energy  :   -82.9539542 Eh     change       -0.2084304E-03 Eh
   gradient norm :     0.0029773 Eh/α   predicted    -0.1239678E-03 ( -40.52%)
   displ. norm   :     0.2769980 α      lambda       -0.2125610E-03
   maximum displ.:     0.2276347 α      in ANC's #2, #1, #3, ...

........................................................................
.............................. CYCLE   13 ..............................
........................................................................
   1    -83.7228520 -0.837229E+02  0.417E-03    0.35       0.0  T
   2    -83.7228526 -0.608764E-06  0.169E-03    0.35       9.1  T
   3    -83.7228526 -0.402186E-07  0.855E-04    0.35      18.1  T
   4    -83.7228526 -0.142674E-08  0.298E-04    0.35      51.8  T
   5    -83.7228526 -0.722324E-09  0.663E-05    0.35     232.6  T
   6    -83.7228526 -0.114582E-09  0.186E-05    0.35     831.2  T
     SCC iter.                  ...        0 min,  0.022 sec
     gradient                   ...        0 min,  0.083 sec
 * total energy  :   -82.9541474 Eh     change       -0.1932038E-03 Eh
   gradient norm :     0.0027086 Eh/α   predicted    -0.1144407E-03 ( -40.77%)
   displ. norm   :     0.2866031 α      lambda       -0.1988913E-03
   maximum displ.:     0.2331256 α      in ANC's #2, #1, #3, ...

........................................................................
.............................. CYCLE   14 ..............................
........................................................................
   1    -83.7231328 -0.837231E+02  0.369E-03    0.35       0.0  T
   2    -83.7231332 -0.428988E-06  0.146E-03    0.35      10.6  T
   3    -83.7231332 -0.261282E-07  0.789E-04    0.35      19.5  T
   4    -83.7231332 -0.174551E-08  0.245E-04    0.35      62.9  T
   5    -83.7231332 -0.497749E-09  0.613E-05    0.35     251.7  T
   6    -83.7231332 -0.110333E-09  0.181E-05    0.35     851.3  T
     SCC iter.                  ...        0 min,  0.022 sec
     gradient                   ...        0 min,  0.083 sec
 * total energy  :   -82.9543340 Eh     change       -0.1865847E-03 Eh
   gradient norm :     0.0028579 Eh/α   predicted    -0.1076207E-03 ( -42.32%)
   displ. norm   :     0.3216273 α      lambda       -0.2142250E-03
   maximum displ.:     0.2583245 α      in ANC's #2, #1, #3, ...

........................................................................
.............................. CYCLE   15 ..............................
........................................................................
   1    -83.7233372 -0.837233E+02  0.387E-03    0.36       0.0  T
   2    -83.7233377 -0.445157E-06  0.149E-03    0.36      10.3  T
   3    -83.7233377 -0.233717E-07  0.830E-04    0.36      18.6  T
   4    -83.7233377 -0.232903E-08  0.254E-04    0.36      60.7  T
   5    -83.7233377 -0.453170E-09  0.533E-05    0.36     289.2  T
   6    -83.7233377 -0.875104E-10  0.194E-05    0.36     795.7  T
     SCC iter.                  ...        0 min,  0.022 sec
     gradient                   ...        0 min,  0.083 sec
 * total energy  :   -82.9545327 Eh     change       -0.1986888E-03 Eh
   gradient norm :     0.0029925 Eh/α   predicted    -0.1181934E-03 ( -40.51%)
   displ. norm   :     0.3368563 α      lambda       -0.2060185E-03
   maximum displ.:     0.2675614 α      in ANC's #2, #1, #3, ...

........................................................................
.............................. CYCLE   16 ..............................
........................................................................
   1    -83.7231007 -0.837231E+02  0.399E-03    0.36       0.0  T
   2    -83.7231012 -0.487214E-06  0.149E-03    0.36      10.4  T
   3    -83.7231013 -0.316456E-07  0.829E-04    0.37      18.6  T
   4    -83.7231013 -0.381213E-08  0.299E-04    0.37      51.7  T
   5    -83.7231013 -0.708113E-09  0.632E-05    0.37     244.0  T
   6    -83.7231013 -0.103668E-09  0.233E-05    0.37     663.2  T
     SCC iter.                  ...        0 min,  0.022 sec
     gradient                   ...        0 min,  0.083 sec
 * total energy  :   -82.9547193 Eh     change       -0.1865888E-03 Eh
   gradient norm :     0.0028320 Eh/α   predicted    -0.1147020E-03 ( -38.53%)
   displ. norm   :     0.3240796 α      lambda       -0.1841405E-03
   maximum displ.:     0.2566920 α      in ANC's #2, #1, #4, ...

........................................................................
.............................. CYCLE   17 ..............................
........................................................................
   1    -83.7234729 -0.837235E+02  0.418E-03    0.37       0.0  T
   2    -83.7234734 -0.499612E-06  0.169E-03    0.37       9.1  T
   3    -83.7234734 -0.389619E-07  0.924E-04    0.37      16.7  T
   4    -83.7234734 -0.579756E-08  0.329E-04    0.37      46.9  T
   5    -83.7234734 -0.871211E-09  0.685E-05    0.37     225.2  T
   6    -83.7234734 -0.965485E-10  0.224E-05    0.37     689.3  T
     SCC iter.                  ...        0 min,  0.022 sec
     gradient                   ...        0 min,  0.083 sec
 * total energy  :   -82.9548838 Eh     change       -0.1645124E-03 Eh
   gradient norm :     0.0033813 Eh/α   predicted    -0.1017408E-03 ( -38.16%)
   displ. norm   :     0.3178863 α      lambda       -0.1712656E-03
   maximum displ.:     0.2493059 α      in ANC's #2, #1, #4, ...

........................................................................
.............................. CYCLE   18 ..............................
........................................................................
   1    -83.7225764 -0.837226E+02  0.466E-03    0.38       0.0  T
   2    -83.7225769 -0.502151E-06  0.195E-03    0.38       7.9  T
   3    -83.7225770 -0.571999E-07  0.108E-03    0.38      14.3  T
   4    -83.7225770 -0.824676E-08  0.319E-04    0.38      48.3  T
   5    -83.7225770 -0.861945E-09  0.688E-05    0.38     224.2  T
   6    -83.7225770 -0.992344E-10  0.223E-05    0.38     693.0  T
     SCC iter.                  ...        0 min,  0.022 sec
     gradient                   ...        0 min,  0.083 sec
 * total energy  :   -82.9550346 Eh     change       -0.1507692E-03 Eh
   gradient norm :     0.0025829 Eh/α   predicted    -0.9428752E-04 ( -37.46%)
   displ. norm   :     0.3502067 α      lambda       -0.1854456E-03
   maximum displ.:     0.2736046 α      in ANC's #2, #1, #4, ...

........................................................................
.............................. CYCLE   19 ..............................
........................................................................
   1    -83.7229995 -0.837230E+02  0.503E-03    0.38       0.0  T
   2    -83.7230001 -0.651081E-06  0.211E-03    0.39       7.3  T
   3    -83.7230002 -0.840867E-07  0.112E-03    0.39      13.8  T
   4    -83.7230002 -0.879548E-08  0.340E-04    0.39      45.4  T
   5    -83.7230002 -0.696929E-09  0.726E-05    0.39     212.5  T
   6    -83.7230002 -0.104933E-09  0.237E-05    0.39     651.6  T
     SCC iter.                  ...        0 min,  0.022 sec
     gradient                   ...        0 min,  0.083 sec
 * total energy  :   -82.9552022 Eh     change       -0.1676220E-03 Eh
   gradient norm :     0.0029808 Eh/α   predicted    -0.1040972E-03 ( -37.90%)
   displ. norm   :     0.4344508 α      lambda       -0.2144810E-03
   maximum displ.:     0.3391131 α      in ANC's #2, #1, #4, ...

........................................................................
.............................. CYCLE   20 ..............................
........................................................................
   1    -83.7226227 -0.837226E+02  0.568E-03    0.39       0.0  T
   2    -83.7226237 -0.912184E-06  0.218E-03    0.40       7.1  T
   3    -83.7226238 -0.125432E-06  0.108E-03    0.40      14.3  T
   4    -83.7226238 -0.102703E-07  0.379E-04    0.40      40.7  T
   5    -83.7226238 -0.467978E-09  0.792E-05    0.40     194.9  T
   6    -83.7226238 -0.136467E-09  0.262E-05    0.40     588.9  T
     SCC iter.                  ...        0 min,  0.022 sec
     gradient                   ...        0 min,  0.083 sec
 * total energy  :   -82.9553968 Eh     change       -0.1945720E-03 Eh
   gradient norm :     0.0030812 Eh/α   predicted    -0.1274830E-03 ( -34.48%)
   displ. norm   :     0.5385629 α      lambda       -0.2453131E-03
   maximum displ.:     0.4210197 α      in ANC's #2, #1, #4, ...
 * RMSD in coord.:     0.8668110 α      energy gain  -0.2113729E-01 Eh

generating ANC from model Hessian ...
Using Lindh-Hessian (1995)
 Shifting diagonal of input Hessian by   9.775261302092038E-003
 Lowest  eigenvalues of input Hessian
    0.000000    0.000000    0.000000    0.000000    0.000000    0.000000
    0.010000    0.010175    0.010382    0.011075    0.011829    0.012426
    0.012875    0.013754    0.014094    0.014793    0.016774    0.017098
 Highest eigenvalues
    2.022203    2.169000    2.169107    2.301390    2.374407    2.384956
 

........................................................................
.............................. CYCLE   21 ..............................
........................................................................
   1    -83.7221629 -0.837222E+02  0.655E-03    0.40       0.0  T
   2    -83.7221641 -0.122926E-05  0.247E-03    0.41       6.2  T
   3    -83.7221643 -0.150671E-06  0.125E-03    0.41      12.4  T
   4    -83.7221643 -0.151360E-07  0.468E-04    0.41      33.0  T
   5    -83.7221643 -0.644263E-09  0.867E-05    0.41     177.9  T
   6    -83.7221643 -0.159375E-09  0.309E-05    0.41     499.5  T
     SCC iter.                  ...        0 min,  0.022 sec
     gradient                   ...        0 min,  0.081 sec
 * total energy  :   -82.9556124 Eh     change       -0.2156116E-03 Eh
   gradient norm :     0.0034773 Eh/α   predicted     0.0000000E+00 (-100.00%)
   displ. norm   :     0.0589077 α      lambda       -0.6754599E-04
   maximum displ.:     0.0328001 α      in ANC's #2, #15, #7, ...

........................................................................
.............................. CYCLE   22 ..............................
........................................................................
   1    -83.7229573 -0.837230E+02  0.285E-03    0.41       0.0  T
   2    -83.7229575 -0.116749E-06  0.133E-03    0.41      11.6  T
   3    -83.7229575 -0.566638E-08  0.700E-04    0.41      22.1  T
   4    -83.7229575 -0.168527E-08  0.153E-04    0.41     100.7  T
   5    -83.7229575 -0.337849E-09  0.302E-05    0.41     510.5  T
     SCC iter.                  ...        0 min,  0.019 sec
     gradient                   ...        0 min,  0.084 sec
 * total energy  :   -82.9556732 Eh     change       -0.6077446E-04 Eh
   gradient norm :     0.0018074 Eh/α   predicted    -0.3410403E-04 ( -43.88%)
   displ. norm   :     0.4302531 α      lambda       -0.2565449E-03
   maximum displ.:     0.2253093 α      in ANC's #2, #15, #7, ...

........................................................................
.............................. CYCLE   23 ..............................
........................................................................
   1    -83.7238373 -0.837238E+02  0.149E-02    0.41       0.0  T
   2    -83.7238407 -0.333271E-05  0.705E-03    0.41       2.2  T
   3    -83.7238409 -0.277827E-06  0.376E-03    0.41       4.1  T
   4    -83.7238410 -0.764013E-07  0.874E-04    0.41      17.7  T
   5    -83.7238410 -0.961573E-08  0.187E-04    0.41      82.6  T
   6    -83.7238410 -0.587036E-09  0.450E-05    0.41     342.9  T
     SCC iter.                  ...        0 min,  0.022 sec
     gradient                   ...        0 min,  0.084 sec
 * total energy  :   -82.9558299 Eh     change       -0.1567205E-03 Eh
   gradient norm :     0.0102833 Eh/α   predicted    -0.1388265E-03 ( -11.42%)
   displ. norm   :     0.0380750 α      lambda       -0.1148202E-03
   maximum displ.:     0.0254716 α      in ANC's #2, #1, #5, ...

........................................................................
.............................. CYCLE   24 ..............................
........................................................................
   1    -83.7243892 -0.837244E+02  0.442E-03    0.41       0.0  T
   2    -83.7243892 -0.509451E-07  0.236E-03    0.41       6.5  T
   3    -83.7243892  0.295756E-09  0.588E-04    0.41      26.3  T
   4    -83.7243892 -0.416766E-08  0.152E-04    0.41     101.4  T
   5    -83.7243892 -0.192870E-09  0.249E-05    0.41     620.4  T
     SCC iter.                  ...        0 min,  0.019 sec
     gradient                   ...        0 min,  0.084 sec
 * total energy  :   -82.9559241 Eh     change       -0.9422780E-04 Eh
   gradient norm :     0.0065441 Eh/α   predicted    -0.5749357E-04 ( -38.98%)
   displ. norm   :     0.2150559 α      lambda       -0.2189346E-03
   maximum displ.:     0.1368388 α      in ANC's #2, #7, #5, ...

........................................................................
.............................. CYCLE   25 ..............................
........................................................................
   1    -83.7239377 -0.837239E+02  0.765E-03    0.40       0.0  T
   2    -83.7239381 -0.366408E-06  0.400E-03    0.40       3.9  T
   3    -83.7239381 -0.558921E-08  0.171E-03    0.40       9.0  T
   4    -83.7239381 -0.318722E-07  0.288E-04    0.40      53.5  T
   5    -83.7239381 -0.631942E-09  0.839E-05    0.40     183.9  T
   6    -83.7239381 -0.111029E-09  0.219E-05    0.40     704.3  T
     SCC iter.                  ...        0 min,  0.022 sec
     gradient                   ...        0 min,  0.084 sec
 * total energy  :   -82.9560737 Eh     change       -0.1495844E-03 Eh
   gradient norm :     0.0021433 Eh/α   predicted    -0.1145300E-03 ( -23.43%)
   displ. norm   :     0.2711427 α      lambda       -0.1254792E-03
   maximum displ.:     0.1636824 α      in ANC's #2, #15, #7, ...

........................................................................
.............................. CYCLE   26 ..............................
........................................................................
   1    -83.7223769 -0.837224E+02  0.386E-03    0.40       0.0  T
   2    -83.7223771 -0.220637E-06  0.182E-03    0.40       8.5  T
   3    -83.7223771 -0.164118E-07  0.990E-04    0.40      15.6  T
   4    -83.7223771 -0.609215E-08  0.207E-04    0.40      74.5  T
   5    -83.7223771 -0.201382E-09  0.512E-05    0.40     301.5  T
   6    -83.7223771 -0.520117E-10  0.163E-05    0.40     945.8  T
     SCC iter.                  ...        0 min,  0.022 sec
     gradient                   ...        0 min,  0.084 sec
 * total energy  :   -82.9561792 Eh     change       -0.1055350E-03 Eh
   gradient norm :     0.0035397 Eh/α   predicted    -0.6735314E-04 ( -36.18%)
   displ. norm   :     0.4561484 α      lambda       -0.1897937E-03
   maximum displ.:     0.2736516 α      in ANC's #2, #15, #5, ...

........................................................................
.............................. CYCLE   27 ..............................
........................................................................
   1    -83.7193137 -0.837193E+02  0.788E-03    0.40       0.0  T
   2    -83.7193141 -0.417949E-06  0.392E-03    0.40       3.9  T
   3    -83.7193141 -0.623868E-08  0.155E-03    0.40       9.9  T
   4    -83.7193141 -0.286849E-07  0.402E-04    0.40      38.4  T
   5    -83.7193141 -0.182072E-08  0.900E-05    0.40     171.4  T
   6    -83.7193141 -0.149385E-09  0.276E-05    0.40     559.9  T
     SCC iter.                  ...        0 min,  0.022 sec
     gradient                   ...        0 min,  0.084 sec
 * total energy  :   -82.9562955 Eh     change       -0.1163130E-03 Eh
   gradient norm :     0.0066259 Eh/α   predicted    -0.1146459E-03 (  -1.43%)
   displ. norm   :     0.1616206 α      lambda       -0.1163986E-03
   maximum displ.:     0.1074838 α      in ANC's #2, #1, #8, ...

........................................................................
.............................. CYCLE   28 ..............................
........................................................................
   1    -83.7212360 -0.837212E+02  0.536E-03    0.40       0.0  T
   2    -83.7212366 -0.606778E-06  0.224E-03    0.40       6.9  T
   3    -83.7212366 -0.824770E-07  0.128E-03    0.40      12.0  T
   4    -83.7212367 -0.837167E-08  0.279E-04    0.40      55.3  T
   5    -83.7212367 -0.823036E-09  0.782E-05    0.40     197.4  T
   6    -83.7212367 -0.118263E-09  0.198E-05    0.40     780.2  T
     SCC iter.                  ...        0 min,  0.022 sec
     gradient                   ...        0 min,  0.084 sec
 * total energy  :   -82.9563921 Eh     change       -0.9652760E-04 Eh
   gradient norm :     0.0039151 Eh/α   predicted    -0.5973349E-04 ( -38.12%)
   displ. norm   :     0.3476213 α      lambda       -0.1722112E-03
   maximum displ.:     0.2292649 α      in ANC's #2, #1, #8, ...

........................................................................
.............................. CYCLE   29 ..............................
........................................................................
   1    -83.7235589 -0.837236E+02  0.854E-03    0.41       0.0  T
   2    -83.7235609 -0.200688E-05  0.327E-03    0.42       4.7  T
   3    -83.7235611 -0.238282E-06  0.182E-03    0.42       8.5  T
   4    -83.7235611 -0.194838E-07  0.577E-04    0.42      26.7  T
   5    -83.7235611 -0.162525E-08  0.134E-04    0.42     115.2  T
   6    -83.7235611 -0.398558E-09  0.370E-05    0.42     417.0  T
     SCC iter.                  ...        0 min,  0.022 sec
     gradient                   ...        0 min,  0.084 sec
 * total energy  :   -82.9565178 Eh     change       -0.1257190E-03 Eh
   gradient norm :     0.0024557 Eh/α   predicted    -0.9651294E-04 ( -23.23%)
   displ. norm   :     0.3568826 α      lambda       -0.9521543E-04
   maximum displ.:     0.2380249 α      in ANC's #2, #1, #8, ...

........................................................................
.............................. CYCLE   30 ..............................
........................................................................
   1    -83.7230845 -0.837231E+02  0.665E-03    0.43       0.0  T
   2    -83.7230860 -0.142076E-05  0.237E-03    0.43       6.5  T
   3    -83.7230860 -0.814567E-07  0.135E-03    0.43      11.5  T
   4    -83.7230861 -0.140115E-07  0.569E-04    0.43      27.1  T
   5    -83.7230861 -0.180563E-08  0.104E-04    0.43     148.9  T
   6    -83.7230861 -0.216374E-09  0.361E-05    0.43     427.0  T
     SCC iter.                  ...        0 min,  0.022 sec
     gradient                   ...        0 min,  0.085 sec
 * total energy  :   -82.9565865 Eh     change       -0.6873411E-04 Eh
   gradient norm :     0.0028209 Eh/α   predicted    -0.5367599E-04 ( -21.91%)
   displ. norm   :     0.2333546 α      lambda       -0.8460018E-04
   maximum displ.:     0.1545990 α      in ANC's #2, #1, #8, ...

........................................................................
.............................. CYCLE   31 ..............................
........................................................................
   1    -83.7256392 -0.837256E+02  0.881E-03    0.44       0.0  T
   2    -83.7256412 -0.195039E-05  0.383E-03    0.45       4.0  T
   3    -83.7256412 -0.604318E-07  0.197E-03    0.45       7.8  T
   4    -83.7256413 -0.173956E-07  0.678E-04    0.45      22.8  T
   5    -83.7256413 -0.473113E-08  0.118E-04    0.45     130.4  T
   6    -83.7256413 -0.302947E-09  0.383E-05    0.45     403.3  T
     SCC iter.                  ...        0 min,  0.022 sec
     gradient                   ...        0 min,  0.084 sec
 * total energy  :   -82.9566192 Eh     change       -0.3271497E-04 Eh
   gradient norm :     0.0045547 Eh/α   predicted    -0.4461684E-04 (  36.38%)
   displ. norm   :     0.1846601 α      lambda       -0.5898501E-04
   maximum displ.:     0.1265856 α      in ANC's #2, #1, #15, ...

........................................................................
.............................. CYCLE   32 ..............................
........................................................................
   1    -83.7238716 -0.837239E+02  0.518E-03    0.45       0.0  T
   2    -83.7238720 -0.476157E-06  0.224E-03    0.45       6.9  T
   3    -83.7238721 -0.116815E-07  0.105E-03    0.46      14.8  T
   4    -83.7238721 -0.344228E-08  0.311E-04    0.46      49.6  T
   5    -83.7238721 -0.156793E-08  0.605E-05    0.46     255.1  T
   6    -83.7238721 -0.552518E-10  0.213E-05    0.46     725.7  T
     SCC iter.                  ...        0 min,  0.023 sec
     gradient                   ...        0 min,  0.084 sec
 * total energy  :   -82.9566615 Eh     change       -0.4222917E-04 Eh
   gradient norm :     0.0020630 Eh/α   predicted    -0.3049919E-04 ( -27.78%)
   displ. norm   :     0.1298969 α      lambda       -0.3599692E-04
   maximum displ.:     0.0905118 α      in ANC's #2, #1, #3, ...

........................................................................
.............................. CYCLE   33 ..............................
........................................................................
   1    -83.7230463 -0.837230E+02  0.364E-03    0.46       0.0  T
   2    -83.7230467 -0.400449E-06  0.127E-03    0.46      12.1  T
   3    -83.7230467 -0.179777E-07  0.701E-04    0.46      22.0  T
   4    -83.7230467 -0.308418E-08  0.285E-04    0.46      54.1  T
   5    -83.7230467 -0.314770E-09  0.500E-05    0.46     308.8  T
   6    -83.7230467 -0.548397E-10  0.184E-05    0.46     840.7  T
     SCC iter.                  ...        0 min,  0.022 sec
     gradient                   ...        0 min,  0.084 sec
 * total energy  :   -82.9566913 Eh     change       -0.2978394E-04 Eh
   gradient norm :     0.0015109 Eh/α   predicted    -0.1830403E-04 ( -38.54%)
   displ. norm   :     0.2385023 α      lambda       -0.5198201E-04
   maximum displ.:     0.1519058 α      in ANC's #2, #1, #3, ...

........................................................................
.............................. CYCLE   34 ..............................
........................................................................
   1    -83.7226549 -0.837227E+02  0.702E-03    0.47       0.0  T
   2    -83.7226567 -0.178683E-05  0.246E-03    0.47       6.3  T
   3    -83.7226568 -0.101893E-06  0.128E-03    0.48      12.0  T
   4    -83.7226568 -0.124400E-07  0.573E-04    0.48      26.9  T
   5    -83.7226568 -0.108810E-08  0.109E-04    0.48     141.0  T
   6    -83.7226568 -0.245066E-09  0.381E-05    0.48     404.9  T
     SCC iter.                  ...        0 min,  0.023 sec
     gradient                   ...        0 min,  0.084 sec
 * total energy  :   -82.9567450 Eh     change       -0.5377906E-04 Eh
   gradient norm :     0.0023384 Eh/α   predicted    -0.2665187E-04 ( -50.44%)
   displ. norm   :     0.1357812 α      lambda       -0.3141837E-04
   maximum displ.:     0.0893618 α      in ANC's #2, #1, #3, ...

........................................................................
.............................. CYCLE   35 ..............................
........................................................................
   1    -83.7224992 -0.837225E+02  0.316E-03    0.48       0.0  T
   2    -83.7224996 -0.440413E-06  0.111E-03    0.48      13.9  T
   3    -83.7224997 -0.150900E-07  0.565E-04    0.48      27.3  T
   4    -83.7224997 -0.214217E-08  0.312E-04    0.48      49.5  T
   5    -83.7224997 -0.731731E-09  0.516E-05    0.48     299.2  T
   6    -83.7224997 -0.498375E-10  0.206E-05    0.48     749.8  T
     SCC iter.                  ...        0 min,  0.024 sec
     gradient                   ...        0 min,  0.084 sec
 * total energy  :   -82.9567721 Eh     change       -0.2709478E-04 Eh
   gradient norm :     0.0022534 Eh/α   predicted    -0.1600068E-04 ( -40.95%)
   displ. norm   :     0.1894332 α      lambda       -0.4382449E-04
   maximum displ.:     0.1233132 α      in ANC's #2, #1, #3, ...

........................................................................
.............................. CYCLE   36 ..............................
........................................................................
   1    -83.7227122 -0.837227E+02  0.428E-03    0.49       0.0  T
   2    -83.7227130 -0.733130E-06  0.142E-03    0.49      10.9  T
   3    -83.7227130 -0.318318E-07  0.770E-04    0.49      20.0  T
   4    -83.7227130 -0.551546E-08  0.407E-04    0.49      37.9  T
   5    -83.7227130 -0.126434E-08  0.781E-05    0.49     197.5  T
   6    -83.7227130 -0.970886E-10  0.295E-05    0.49     523.3  T
     SCC iter.                  ...        0 min,  0.022 sec
     gradient                   ...        0 min,  0.084 sec
 * total energy  :   -82.9568096 Eh     change       -0.3749288E-04 Eh
   gradient norm :     0.0019361 Eh/α   predicted    -0.2270348E-04 ( -39.45%)
   displ. norm   :     0.3894435 α      lambda       -0.5254071E-04
   maximum displ.:     0.2601291 α      in ANC's #2, #1, #3, ...

........................................................................
.............................. CYCLE   37 ..............................
........................................................................
   1    -83.7222179 -0.837222E+02  0.854E-03    0.50       0.0  T
   2    -83.7222206 -0.274848E-05  0.259E-03    0.51       5.9  T
   3    -83.7222208 -0.149215E-06  0.141E-03    0.51      11.0  T
   4    -83.7222208 -0.278349E-07  0.745E-04    0.51      20.7  T
   5    -83.7222208 -0.350931E-08  0.150E-04    0.51     102.5  T
   6    -83.7222208 -0.290456E-09  0.546E-05    0.51     282.8  T
     SCC iter.                  ...        0 min,  0.024 sec
     gradient                   ...        0 min,  0.084 sec
 * total energy  :   -82.9568692 Eh     change       -0.5955246E-04 Eh
   gradient norm :     0.0026399 Eh/α   predicted    -0.2804284E-04 ( -52.91%)
   displ. norm   :     0.1891316 α      lambda       -0.3785451E-04
   maximum displ.:     0.1293596 α      in ANC's #2, #1, #3, ...

........................................................................
.............................. CYCLE   38 ..............................
........................................................................
   1    -83.7223106 -0.837223E+02  0.449E-03    0.51       0.0  T
   2    -83.7223113 -0.692713E-06  0.124E-03    0.52      12.4  T
   3    -83.7223113 -0.384191E-07  0.669E-04    0.52      23.1  T
   4    -83.7223113 -0.669840E-08  0.340E-04    0.52      45.4  T
   5    -83.7223113 -0.709818E-09  0.773E-05    0.52     199.7  T
   6    -83.7223113 -0.809166E-10  0.294E-05    0.52     524.4  T
     SCC iter.                  ...        0 min,  0.023 sec
     gradient                   ...        0 min,  0.084 sec
 * total energy  :   -82.9569044 Eh     change       -0.3521313E-04 Eh
   gradient norm :     0.0024207 Eh/α   predicted    -0.1960564E-04 ( -44.32%)
   displ. norm   :     0.2921147 α      lambda       -0.6802263E-04
   maximum displ.:     0.1985819 α      in ANC's #2, #1, #3, ...

........................................................................
.............................. CYCLE   39 ..............................
........................................................................
   1    -83.7221470 -0.837221E+02  0.713E-03    0.53       0.0  T
   2    -83.7221487 -0.165058E-05  0.193E-03    0.53       8.0  T
   3    -83.7221487 -0.835431E-07  0.104E-03    0.54      14.8  T
   4    -83.7221488 -0.148861E-07  0.515E-04    0.54      29.9  T
   5    -83.7221488 -0.190217E-08  0.114E-04    0.54     135.6  T
   6    -83.7221488 -0.156106E-09  0.428E-05    0.54     360.4  T
     SCC iter.                  ...        0 min,  0.023 sec
     gradient                   ...        0 min,  0.085 sec
 * total energy  :   -82.9569655 Eh     change       -0.6112187E-04 Eh
   gradient norm :     0.0022900 Eh/α   predicted    -0.3691555E-04 ( -39.60%)
   displ. norm   :     0.4228836 α      lambda       -0.9194845E-04
   maximum displ.:     0.2858127 α      in ANC's #2, #1, #3, ...

........................................................................
.............................. CYCLE   40 ..............................
........................................................................
   1    -83.7215456 -0.837215E+02  0.109E-02    0.55       0.0  T
   2    -83.7215497 -0.406391E-05  0.284E-03    0.56       5.4  T
   3    -83.7215498 -0.129257E-06  0.152E-03    0.56      10.1  T
   4    -83.7215498 -0.214046E-07  0.773E-04    0.56      19.9  T
   5    -83.7215498 -0.663876E-08  0.171E-04    0.56      90.2  T
   6    -83.7215498 -0.352458E-09  0.647E-05    0.56     238.5  T
     SCC iter.                  ...        0 min,  0.023 sec
     gradient                   ...        0 min,  0.085 sec
 * total energy  :   -82.9570457 Eh     change       -0.8023671E-04 Eh
   gradient norm :     0.0025873 Eh/α   predicted    -0.5419953E-04 ( -32.45%)
   displ. norm   :     0.5808125 α      lambda       -0.1102222E-03
   maximum displ.:     0.3914365 α      in ANC's #2, #1, #3, ...

........................................................................
.............................. CYCLE   41 ..............................
........................................................................
   1    -83.7196524 -0.837197E+02  0.177E-02    0.58       0.0  T
   2    -83.7196642 -0.118010E-04  0.453E-03    0.59       3.4  T
   3    -83.7196645 -0.325852E-06  0.235E-03    0.60       6.6  T
   4    -83.7196646 -0.455714E-07  0.121E-03    0.60      12.7  T
   5    -83.7196646 -0.180485E-07  0.277E-04    0.61      55.7  T
   6    -83.7196646 -0.105304E-08  0.107E-04    0.60     144.5  T
   7    -83.7196646 -0.195826E-09  0.289E-05    0.60     533.6  T
     SCC iter.                  ...        0 min,  0.026 sec
     gradient                   ...        0 min,  0.085 sec
 * total energy  :   -82.9571508 Eh     change       -0.1050815E-03 Eh
   gradient norm :     0.0038309 Eh/α   predicted    -0.7370449E-04 ( -29.86%)
   displ. norm   :     0.9054506 α      lambda       -0.1890317E-03
   maximum displ.:     0.6135076 α      in ANC's #2, #1, #3, ...

........................................................................
.............................. CYCLE   42 ..............................
........................................................................
   1    -83.7151789 -0.837152E+02  0.352E-02    0.63       0.0  T
   2    -83.7152278 -0.488534E-04  0.897E-03    0.66       1.7  T
   3    -83.7152290 -0.127730E-05  0.451E-03    0.67       3.4  T
   4    -83.7152292 -0.172133E-06  0.235E-03    0.68       6.6  T
   5    -83.7152293 -0.610921E-07  0.548E-04    0.68      28.1  T
   6    -83.7152293 -0.472873E-08  0.214E-04    0.68      72.2  T
   7    -83.7152293 -0.745416E-09  0.556E-05    0.68     277.6  T
   8    -83.7152293 -0.433573E-10  0.166E-05    0.68     929.1  T
     SCC iter.                  ...        0 min,  0.029 sec
     gradient                   ...        0 min,  0.085 sec
 * total energy  :   -82.9573397 Eh     change       -0.1888933E-03 Eh
   gradient norm :     0.0084514 Eh/α   predicted    -0.1720115E-03 (  -8.94%)
   displ. norm   :     0.8317341 α      lambda       -0.2561445E-03
   maximum displ.:     0.5660895 α      in ANC's #2, #1, #3, ...
 * RMSD in coord.:     0.9842477 α      energy gain  -0.1942941E-02 Eh

generating ANC from model Hessian ...
Using Lindh-Hessian (1995)
 Shifting diagonal of input Hessian by   9.748032593038157E-003
 Lowest  eigenvalues of input Hessian
    0.000000    0.000000    0.000000    0.000000    0.000000    0.000000
    0.010000    0.010191    0.010356    0.011425    0.011737    0.012584
    0.012876    0.013866    0.014097    0.015343    0.017126    0.017621
 Highest eigenvalues
    2.007187    2.151818    2.172744    2.311604    2.354548    2.386450
 

........................................................................
.............................. CYCLE   43 ..............................
........................................................................
   1    -83.7107070 -0.837107E+02  0.438E-02    0.71       0.0  T
   2    -83.7107877 -0.807121E-04  0.110E-02    0.75       1.4  T
   3    -83.7107898 -0.212601E-05  0.530E-03    0.76       2.9  T
   4    -83.7107901 -0.299754E-06  0.293E-03    0.77       5.3  T
   5    -83.7107902 -0.862111E-07  0.673E-04    0.78      22.9  T
   6    -83.7107902 -0.647465E-08  0.264E-04    0.77      58.4  T
   7    -83.7107902 -0.103292E-08  0.653E-05    0.77     236.4  T
   8    -83.7107902 -0.588614E-10  0.202E-05    0.77     762.9  T
     SCC iter.                  ...        0 min,  0.029 sec
     gradient                   ...        0 min,  0.083 sec
 * total energy  :   -82.9575787 Eh     change       -0.2389413E-03 Eh
   gradient norm :     0.0146829 Eh/α   predicted     0.0000000E+00 (-100.00%)
   displ. norm   :     0.0684101 α      lambda       -0.3913395E-03
   maximum displ.:     0.0203954 α      in ANC's #4, #8, #2, ...

........................................................................
.............................. CYCLE   44 ..............................
........................................................................
   1    -83.7178176 -0.837178E+02  0.148E-02    0.79       0.0  T
   2    -83.7178225 -0.490031E-05  0.664E-03    0.80       2.3  T
   3    -83.7178228 -0.320890E-06  0.384E-03    0.80       4.0  T
   4    -83.7178229 -0.700622E-07  0.112E-03    0.80      13.8  T
   5    -83.7178229 -0.130559E-07  0.207E-04    0.80      74.4  T
   6    -83.7178229 -0.113332E-08  0.767E-05    0.80     201.2  T
   7    -83.7178229 -0.132729E-09  0.216E-05    0.80     715.1  T
     SCC iter.                  ...        0 min,  0.026 sec
     gradient                   ...        0 min,  0.074 sec
 * total energy  :   -82.9578746 Eh     change       -0.2959852E-03 Eh
   gradient norm :     0.0082137 Eh/α   predicted    -0.1965860E-03 ( -33.58%)
   displ. norm   :     0.1447717 α      lambda       -0.4258252E-03
   maximum displ.:     0.0507585 α      in ANC's #2, #19, #4, ...

........................................................................
.............................. CYCLE   45 ..............................
........................................................................
   1    -83.7244351 -0.837244E+02  0.244E-02    0.82       0.0  T
   2    -83.7244565 -0.213868E-04  0.893E-03    0.85       1.7  T
   3    -83.7244574 -0.866747E-06  0.490E-03    0.85       3.2  T
   4    -83.7244575 -0.139070E-06  0.222E-03    0.86       6.9  T
   5    -83.7244576 -0.433150E-07  0.433E-04    0.86      35.6  T
   6    -83.7244576 -0.391081E-08  0.171E-04    0.86      90.0  T
   7    -83.7244576 -0.548212E-09  0.414E-05    0.86     372.3  T
     SCC iter.                  ...        0 min,  0.025 sec
     gradient                   ...        0 min,  0.064 sec
 * total energy  :   -82.9581980 Eh     change       -0.3233835E-03 Eh
   gradient norm :     0.0090541 Eh/α   predicted    -0.2173791E-03 ( -32.78%)
   displ. norm   :     0.2969003 α      lambda       -0.6639378E-03
   maximum displ.:     0.1175831 α      in ANC's #2, #19, #1, ...

........................................................................
.............................. CYCLE   46 ..............................
........................................................................
   1    -83.7299691 -0.837300E+02  0.579E-02    0.89       0.0  T
   2    -83.7301137 -0.144593E-03  0.161E-02    0.95       1.0  T
   3    -83.7301181 -0.445973E-05  0.784E-03    0.98       2.0  T
   4    -83.7301188 -0.637645E-06  0.422E-03    0.99       3.7  T
   5    -83.7301189 -0.172373E-06  0.103E-03    0.99      14.9  T
   6    -83.7301189 -0.175435E-07  0.407E-04    0.99      37.9  T
   7    -83.7301189 -0.236341E-08  0.940E-05    0.99     164.1  T
   8    -83.7301189 -0.162288E-09  0.321E-05    0.99     481.3  T
     SCC iter.                  ...        0 min,  0.021 sec
     gradient                   ...        0 min,  0.046 sec
 * total energy  :   -82.9588472 Eh     change       -0.6491553E-03 Eh
   gradient norm :     0.0164824 Eh/α   predicted    -0.3612334E-03 ( -44.35%)
   displ. norm   :     0.2534422 α      lambda       -0.7834408E-03
   maximum displ.:     0.1107872 α      in ANC's #2, #1, #19, ...

........................................................................
.............................. CYCLE   47 ..............................
........................................................................
   1    -83.7325142 -0.837325E+02  0.643E-02    1.02       0.0  T
   2    -83.7326940 -0.179823E-03  0.159E-02    1.09       1.0  T
   3    -83.7326992 -0.517542E-05  0.711E-03    1.11       2.2  T
   4    -83.7326999 -0.726617E-06  0.399E-03    1.12       3.9  T
   5    -83.7327001 -0.162938E-06  0.107E-03    1.13      14.4  T
   6    -83.7327001 -0.166911E-07  0.424E-04    1.13      36.4  T
   7    -83.7327001 -0.222246E-08  0.985E-05    1.13     156.7  T
   8    -83.7327001 -0.193253E-09  0.348E-05    1.13     443.1  T
     SCC iter.                  ...        0 min,  0.021 sec
     gradient                   ...        0 min,  0.045 sec
 * total energy  :   -82.9597671 Eh     change       -0.9199551E-03 Eh
   gradient norm :     0.0217262 Eh/α   predicted    -0.4169895E-03 ( -54.67%)
   displ. norm   :     0.2983827 α      lambda       -0.1386267E-02
   maximum displ.:     0.1324716 α      in ANC's #2, #1, #19, ...

........................................................................
.............................. CYCLE   48 ..............................
........................................................................
   1    -83.7358442 -0.837358E+02  0.924E-02    1.17       0.0  T
   2    -83.7362156 -0.371418E-03  0.226E-02    1.26       1.0  T
   3    -83.7362263 -0.107063E-04  0.981E-03    1.29       1.6  T
   4    -83.7362278 -0.147818E-05  0.556E-03    1.31       2.8  T
   5    -83.7362281 -0.319660E-06  0.151E-03    1.32      10.2  T
   6    -83.7362281 -0.312124E-07  0.591E-04    1.32      26.1  T
   7    -83.7362281 -0.434450E-08  0.140E-04    1.32     110.1  T
   8    -83.7362281 -0.420300E-09  0.506E-05    1.32     305.0  T
     SCC iter.                  ...        0 min,  0.021 sec
     gradient                   ...        0 min,  0.045 sec
 * total energy  :   -82.9613337 Eh     change       -0.1566508E-02 Eh
   gradient norm :     0.0273622 Eh/α   predicted    -0.7548720E-03 ( -51.81%)
   displ. norm   :     0.3079232 α      lambda       -0.2020218E-02
   maximum displ.:     0.1409554 α      in ANC's #2, #1, #6, ...

........................................................................
.............................. CYCLE   49 ..............................
........................................................................
   1    -83.7394405 -0.837394E+02  0.107E-01    1.36       0.0  T
   2    -83.7399355 -0.494952E-03  0.270E-02    1.47       1.0  T
   3    -83.7399502 -0.146763E-04  0.117E-02    1.51       1.3  T
   4    -83.7399522 -0.199819E-05  0.661E-03    1.53       2.3  T
   5    -83.7399526 -0.435085E-06  0.178E-03    1.54       8.7  T
   6    -83.7399526 -0.420049E-07  0.676E-04    1.54      22.8  T
   7    -83.7399527 -0.603895E-08  0.165E-04    1.54      93.4  T
   8    -83.7399527 -0.609660E-09  0.600E-05    1.54     257.2  T
     SCC iter.                  ...        0 min,  0.021 sec
     gradient                   ...        0 min,  0.051 sec
 * total energy  :   -82.9633922 Eh     change       -0.2058559E-02 Eh
   gradient norm :     0.0314237 Eh/α   predicted    -0.1105973E-02 ( -46.27%)
   displ. norm   :     0.8143009 α      lambda       -0.8611296E-02
   maximum displ.:     0.2878473 α      in ANC's #2, #65, #19, ...

........................................................................
.............................. CYCLE   50 ..............................
........................................................................
   1    -83.7556316 -0.837556E+02  0.265E-01    1.71       0.0  T
   2    -83.7583563 -0.272463E-02  0.901E-02    1.99       1.0  T
   3    -83.7584728 -0.116551E-03  0.444E-02    2.11       1.0  T
   4    -83.7584857 -0.128651E-04  0.208E-02    2.17       1.0  T
   5    -83.7584892 -0.353795E-05  0.508E-03    2.19       3.0  T
   6    -83.7584896 -0.421598E-06  0.167E-03    2.18       9.3  T
   7    -83.7584897 -0.419580E-07  0.439E-04    2.18      35.2  T
   8    -83.7584897 -0.416756E-08  0.162E-04    2.18      95.1  T
   9    -83.7584897 -0.180563E-09  0.585E-05    2.18     263.6  T
     SCC iter.                  ...        0 min,  0.035 sec
     gradient                   ...        0 min,  0.085 sec
 * total energy  :   -82.9515770 Eh     change        0.1181517E-01 Eh
   gradient norm :     0.2027684 Eh/α   predicted    -0.7160677E-02 (-160.61%)
   displ. norm   :     0.3773340 α      lambda       -0.4994845E-01
   maximum displ.:     0.1619482 α      in ANC's #65, #74, #62, ...

........................................................................
.............................. CYCLE   51 ..............................
........................................................................
   1    -83.7351454 -0.837351E+02  0.174E-01    2.06       0.0  T
   2    -83.7362941 -0.114867E-02  0.593E-02    1.90       1.0  T
   3    -83.7363302 -0.361683E-04  0.312E-02    1.83       1.0  T
   4    -83.7363347 -0.449147E-05  0.118E-02    1.78       1.3  T
   5    -83.7363362 -0.150003E-05  0.302E-03    1.77       5.1  T
   6    -83.7363364 -0.155283E-06  0.112E-03    1.77      13.8  T
   7    -83.7363364 -0.207142E-07  0.309E-04    1.77      50.0  T
   8    -83.7363364 -0.205831E-08  0.103E-04    1.77     150.0  T
   9    -83.7363364 -0.755591E-10  0.330E-05    1.77     467.0  T
     SCC iter.                  ...        0 min,  0.035 sec
     gradient                   ...        0 min,  0.085 sec
 * total energy  :   -82.9652367 Eh     change       -0.1365968E-01 Eh
   gradient norm :     0.0420892 Eh/α   predicted    -0.2852995E-01 ( 108.86%)
   displ. norm   :     0.6523217 α      lambda       -0.3522985E-02
   maximum displ.:     0.2714364 α      in ANC's #2, #1, #6, ...

........................................................................
.............................. CYCLE   52 ..............................
........................................................................
   1    -83.7375613 -0.837376E+02  0.539E-02    1.82       0.0  T
   2    -83.7376799 -0.118569E-03  0.209E-02    1.78       1.0  T
   3    -83.7376878 -0.792515E-05  0.102E-02    1.78       1.5  T
   4    -83.7376881 -0.291574E-06  0.391E-03    1.78       3.9  T
   5    -83.7376881 -0.547400E-07  0.734E-04    1.78      21.0  T
   6    -83.7376881 -0.121819E-07  0.257E-04    1.78      59.9  T
   7    -83.7376881 -0.921247E-09  0.667E-05    1.78     231.2  T
   8    -83.7376881 -0.656684E-10  0.196E-05    1.78     788.3  T
     SCC iter.                  ...        0 min,  0.031 sec
     gradient                   ...        0 min,  0.084 sec
 * total energy  :   -82.9663009 Eh     change       -0.1064134E-02 Eh
   gradient norm :     0.0357678 Eh/α   predicted    -0.2511074E-02 ( 135.97%)
   displ. norm   :     0.2606339 α      lambda       -0.1610376E-02
   maximum displ.:     0.1258889 α      in ANC's #2, #1, #6, ...

........................................................................
.............................. CYCLE   53 ..............................
........................................................................
   1    -83.7363030 -0.837363E+02  0.457E-02    1.79       0.0  T
   2    -83.7363880 -0.849603E-04  0.132E-02    1.84       1.2  T
   3    -83.7363912 -0.321684E-05  0.615E-03    1.85       2.5  T
   4    -83.7363916 -0.455104E-06  0.328E-03    1.86       4.7  T
   5    -83.7363917 -0.812248E-07  0.847E-04    1.87      18.2  T
   6    -83.7363917 -0.906113E-08  0.300E-04    1.87      51.4  T
   7    -83.7363917 -0.132437E-08  0.729E-05    1.87     211.8  T
   8    -83.7363917 -0.136353E-09  0.261E-05    1.87     591.5  T
     SCC iter.                  ...        0 min,  0.031 sec
     gradient                   ...        0 min,  0.084 sec
 * total energy  :   -82.9676385 Eh     change       -0.1337637E-02 Eh
   gradient norm :     0.0360495 Eh/α   predicted    -0.8598850E-03 ( -35.72%)
   displ. norm   :     0.2996926 α      lambda       -0.3407468E-02
   maximum displ.:     0.1108076 α      in ANC's #2, #1, #6, ...

........................................................................
.............................. CYCLE   54 ..............................
........................................................................
   1    -83.7353988 -0.837354E+02  0.879E-02    1.87       0.0  T
   2    -83.7357230 -0.324201E-03  0.286E-02    1.97       1.0  T
   3    -83.7357388 -0.157701E-04  0.138E-02    2.01       1.1  T
   4    -83.7357410 -0.226586E-05  0.740E-03    2.03       2.1  T
   5    -83.7357414 -0.385278E-06  0.189E-03    2.04       8.2  T
   6    -83.7357415 -0.413435E-07  0.697E-04    2.04      22.1  T
   7    -83.7357415 -0.811988E-08  0.185E-04    2.04      83.4  T
   8    -83.7357415 -0.786130E-09  0.553E-05    2.04     279.1  T
     SCC iter.                  ...        0 min,  0.030 sec
     gradient                   ...        0 min,  0.047 sec
 * total energy  :   -82.9696571 Eh     change       -0.2018595E-02 Eh
   gradient norm :     0.0606374 Eh/α   predicted    -0.1856750E-02 (  -8.02%)
   displ. norm   :     0.1696154 α      lambda       -0.1907436E-02
   maximum displ.:     0.0675052 α      in ANC's #7, #5, #10, ...

........................................................................
.............................. CYCLE   55 ..............................
........................................................................
   1    -83.7402390 -0.837402E+02  0.309E-02    2.06       0.0  T
   2    -83.7402786 -0.395778E-04  0.895E-03    2.09       1.7  T
   3    -83.7402808 -0.223648E-05  0.387E-03    2.10       4.0  T
   4    -83.7402811 -0.272308E-06  0.195E-03    2.10       7.9  T
   5    -83.7402811 -0.398259E-07  0.657E-04    2.11      23.5  T
   6    -83.7402811 -0.285738E-08  0.233E-04    2.11      66.3  T
   7    -83.7402811 -0.566573E-09  0.617E-05    2.11     249.9  T
   8    -83.7402811 -0.837019E-10  0.153E-05    2.11    1011.0  T
     SCC iter.                  ...        0 min,  0.021 sec
     gradient                   ...        0 min,  0.048 sec
 * total energy  :   -82.9714140 Eh     change       -0.1756879E-02 Eh
   gradient norm :     0.0620252 Eh/α   predicted    -0.9811567E-03 ( -44.15%)
   displ. norm   :     0.5515221 α      lambda       -0.9318584E-02
   maximum displ.:     0.1847895 α      in ANC's #10, #5, #7, ...

........................................................................
.............................. CYCLE   56 ..............................
........................................................................
   1    -83.7479280 -0.837479E+02  0.974E-02    2.13       0.0  T
   2    -83.7482758 -0.347808E-03  0.267E-02    2.19       1.0  T
   3    -83.7482995 -0.236421E-04  0.110E-02    2.20       1.4  T
   4    -83.7483022 -0.269300E-05  0.447E-03    2.21       3.4  T
   5    -83.7483024 -0.195765E-06  0.185E-03    2.21       8.4  T
   6    -83.7483024 -0.192954E-07  0.678E-04    2.21      22.8  T
   7    -83.7483024 -0.417310E-08  0.190E-04    2.21      81.2  T
   8    -83.7483024 -0.647361E-09  0.358E-05    2.21     431.5  T
     SCC iter.                  ...        0 min,  0.021 sec
     gradient                   ...        0 min,  0.046 sec
 * total energy  :   -82.9780336 Eh     change       -0.6619618E-02 Eh
   gradient norm :     0.0476217 Eh/α   predicted    -0.6076561E-02 (  -8.20%)
   displ. norm   :     0.4346210 α      lambda       -0.5876244E-02
   maximum displ.:     0.1333299 α      in ANC's #89, #10, #71, ...

........................................................................
.............................. CYCLE   57 ..............................
........................................................................
   1    -83.7523280 -0.837523E+02  0.521E-02    2.22       0.0  T
   2    -83.7523921 -0.641139E-04  0.164E-02    2.21       1.0  T
   3    -83.7523955 -0.345499E-05  0.919E-03    2.21       1.7  T
   4    -83.7523964 -0.848960E-06  0.384E-03    2.22       4.0  T
   5    -83.7523964 -0.622971E-07  0.112E-03    2.22      13.8  T
   6    -83.7523964 -0.101999E-07  0.334E-04    2.22      46.2  T
   7    -83.7523965 -0.231789E-08  0.734E-05    2.22     210.1  T
   8    -83.7523965 -0.140645E-09  0.213E-05    2.22     724.8  T
     SCC iter.                  ...        0 min,  0.021 sec
     gradient                   ...        0 min,  0.045 sec
 * total energy  :   -82.9820248 Eh     change       -0.3991226E-02 Eh
   gradient norm :     0.0373307 Eh/α   predicted    -0.3493124E-02 ( -12.48%)
   displ. norm   :     0.2969000 α      lambda       -0.3831845E-02
   maximum displ.:     0.1212225 α      in ANC's #12, #6, #18, ...

........................................................................
.............................. CYCLE   58 ..............................
........................................................................
   1    -83.7590322 -0.837590E+02  0.443E-02    2.22       0.0  T
   2    -83.7590741 -0.419115E-04  0.152E-02    2.20       1.0  T
   3    -83.7590757 -0.158577E-05  0.862E-03    2.20       1.8  T
   4    -83.7590760 -0.309796E-06  0.285E-03    2.20       5.4  T
   5    -83.7590761 -0.386589E-07  0.382E-04    2.20      40.4  T
   6    -83.7590761 -0.257228E-08  0.138E-04    2.20     111.5  T
   7    -83.7590761 -0.373106E-09  0.290E-05    2.20     531.8  T
     SCC iter.                  ...        0 min,  0.019 sec
     gradient                   ...        0 min,  0.046 sec
 * total energy  :   -82.9846420 Eh     change       -0.2617144E-02 Eh
   gradient norm :     0.0162772 Eh/α   predicted    -0.2084821E-02 ( -20.34%)
   displ. norm   :     0.4181767 α      lambda       -0.1873453E-02
   maximum displ.:     0.1784096 α      in ANC's #12, #6, #2, ...

........................................................................
.............................. CYCLE   59 ..............................
........................................................................
   1    -83.7580072 -0.837580E+02  0.189E-02    2.18       0.0  T
   2    -83.7580176 -0.104128E-04  0.820E-03    2.18       1.9  T
   3    -83.7580183 -0.675412E-06  0.411E-03    2.18       3.8  T
   4    -83.7580183 -0.269229E-07  0.125E-03    2.18      12.3  T
   5    -83.7580183 -0.843443E-08  0.205E-04    2.18      75.4  T
   6    -83.7580183 -0.684466E-09  0.747E-05    2.18     206.6  T
   7    -83.7580183 -0.102887E-09  0.264E-05    2.18     583.9  T
     SCC iter.                  ...        0 min,  0.019 sec
     gradient                   ...        0 min,  0.046 sec
 * total energy  :   -82.9859181 Eh     change       -0.1276131E-02 Eh
   gradient norm :     0.0098946 Eh/α   predicted    -0.1100538E-02 ( -13.76%)
   displ. norm   :     0.3360946 α      lambda       -0.1001531E-02
   maximum displ.:     0.1528233 α      in ANC's #6, #12, #3, ...

........................................................................
.............................. CYCLE   60 ..............................
........................................................................
   1    -83.7611488 -0.837611E+02  0.163E-02    2.17       0.0  T
   2    -83.7611552 -0.633863E-05  0.715E-03    2.18       2.2  T
   3    -83.7611559 -0.689973E-06  0.394E-03    2.18       3.9  T
   4    -83.7611559 -0.282256E-07  0.582E-04    2.18      26.5  T
   5    -83.7611559 -0.344005E-08  0.189E-04    2.18      81.6  T
   6    -83.7611559 -0.484562E-09  0.557E-05    2.18     277.2  T
     SCC iter.                  ...        0 min,  0.016 sec
     gradient                   ...        0 min,  0.045 sec
 * total energy  :   -82.9866404 Eh     change       -0.7222925E-03 Eh
   gradient norm :     0.0106843 Eh/α   predicted    -0.5573389E-03 ( -22.84%)
   displ. norm   :     0.3942199 α      lambda       -0.8367708E-03
   maximum displ.:     0.2007196 α      in ANC's #6, #12, #3, ...

........................................................................
.............................. CYCLE   61 ..............................
........................................................................
   1    -83.7615124 -0.837615E+02  0.129E-02    2.17       0.0  T
   2    -83.7615192 -0.675910E-05  0.430E-03    2.19       3.6  T
   3    -83.7615193 -0.126321E-06  0.230E-03    2.19       6.7  T
   4    -83.7615193 -0.135163E-07  0.899E-04    2.19      17.2  T
   5    -83.7615193 -0.567047E-08  0.171E-04    2.19      90.5  T
   6    -83.7615193 -0.297717E-09  0.654E-05    2.19     235.9  T
     SCC iter.                  ...        0 min,  0.016 sec
[...]
C24-C5-N6=120.51               C7-N6-C5=120.21                C8-C7-N6=120.04                N21-C7-N6=122.21               
N21-C7-C8=117.54               C9-C8-C7=105.34                C10-C8-C7=110.43               C10-C8-C9=111.18               
N11-C8-C7=108.60               N11-C8-C9=111.73               N11-C8-C10=109.48              H29-C9-C8=111.39               
H30-C9-C8=110.22               H30-C9-H29=109.26              H31-C9-C8=108.60               H31-C9-H29=108.44              
H31-C9-H30=108.87              H32-C10-C8=110.19              H33-C10-C8=109.52              H33-C10-H32=108.83             
H34-C10-C8=109.64              H34-C10-H32=109.28             H34-C10-H33=109.36             
 
 selected dihedral angles (degree)
 ---------------------------------
C3-O2-C1-H26= 59.45           C3-O2-C1-H27=179.13           C3-O2-C1-H28=298.84           O4-C3-O2-C1=  0.42            
C5-C3-O2-C1=180.88            N6-C5-C3-O2=178.70            N6-C5-C3-O4=359.17            C24-C5-C3-O2=359.49           
C24-C5-C3-O4=179.95           C7-N6-C5-C3=181.08            C7-N6-C5-C24=  0.34           C8-C7-N6-C5=175.26            
N21-C7-N6-C5=  0.73           C9-C8-C7-N6=254.26            C9-C8-C7-N21= 69.04           C10-C8-C7-N6= 14.39           
C10-C8-C7-N21=189.17          N11-C8-C7-N6=134.44           N11-C8-C7-N21=309.22          H29-C9-C8-C7=162.26           
H29-C9-C8-C10= 42.62          H29-C9-C8-N11=279.99          H30-C9-C8-C7=283.71           H30-C9-C8-C10=164.07          
H30-C9-C8-N11= 41.44          H31-C9-C8-C7= 42.90           H31-C9-C8-C10=283.26          H31-C9-C8-N11=160.63          
H32-C10-C8-C7= 60.62          H32-C10-C8-C9=177.18          H32-C10-C8-N11=301.10         H33-C10-C8-C7=300.94          
H33-C10-C8-C9= 57.49          H33-C10-C8-N11=181.42         H34-C10-C8-C7=180.94          H34-C10-C8-C9=297.49          
H34-C10-C8-N11= 61.42         
           -------------------------------------------------
          |                Final Singlepoint                |
           -------------------------------------------------

          ...................................................
          :                      SETUP                      :
          :.................................................:
          :  # basis functions                 134          :
          :  # atomic orbitals                 134          :
          :  # shells                           84          :
          :  # electrons                       134          :
          :  # halogen bonds                     0          :
          :  max. iterations                   250          :
          :  Hamiltonian                  GFN1-xTB          :
          :  restarted?                      false          :
          :  GBSA solvation                   true          :
          :  PC potential                    false          :
          :  electronic temp.          300.0000000     K    :
          :  accuracy                    1.0000000          :
          :  -> integral cutoff          0.2500000E+02      :
          :  -> integral neglect         0.1000000E-07      :
          :  -> SCF convergence          0.1000000E-05 Eh   :
          :  -> wf. convergence          0.2000000E-04 e    :
          :  Broyden damping             0.4000000          :
          ...................................................

 iter      E             dE          RMSdq      gap      omega  full diag
   1    -83.7885134 -0.837885E+02  0.102E-05    2.91       0.0  T
   2    -83.7885134 -0.112266E-11  0.459E-06    2.91    3365.4  T
   3    -83.7885134 -0.355271E-12  0.202E-06    2.91    7635.6  T

   *** convergence criteria satisfied after 3 iterations ***

         #    Occupation            Energy/Eh            Energy/eV
      -------------------------------------------------------------
         1        2.0000           -0.8652235             -23.5439
       ...           ...                  ...                  ...
        61        2.0000           -0.4665596             -12.6957
        62        2.0000           -0.4610464             -12.5457
        63        2.0000           -0.4558319             -12.4038
        64        2.0000           -0.4527111             -12.3189
        65        2.0000           -0.4503667             -12.2551
        66        2.0000           -0.4388064             -11.9405
        67        2.0000           -0.4326832             -11.7739 (HOMO)
        68                         -0.3257951              -8.8653 (LUMO)
        69                         -0.3106967              -8.4545
        70                         -0.2860505              -7.7838
        71                         -0.2562400              -6.9726
        72                         -0.2417303              -6.5778
       ...                                ...                  ...
       134                          0.7308504              19.8875
      -------------------------------------------------------------
                  HL-Gap            0.1068881 Eh            2.9086 eV
             Fermi-level           -0.3792391 Eh          -10.3196 eV

 SCC (total)                   0 d,  0 h,  0 min,  0.077 sec
 SCC setup                      ...        0 min,  0.001 sec (  1.702%)
 Dispersion                     ...        0 min,  0.000 sec (  0.304%)
 classical contributions        ...        0 min,  0.000 sec (  0.112%)
 integral evaluation            ...        0 min,  0.020 sec ( 26.600%)
 iterations                     ...        0 min,  0.009 sec ( 11.263%)
 molecular gradient             ...        0 min,  0.045 sec ( 59.212%)
 printout                       ...        0 min,  0.001 sec (  0.737%)

         :::::::::::::::::::::::::::::::::::::::::::::::::::::
         ::                     SUMMARY                     ::
         :::::::::::::::::::::::::::::::::::::::::::::::::::::
         :: total energy             -83.006735143682 Eh    ::
         :: total w/o Gsasa/hb       -82.982626321397 Eh    ::
         :: gradient norm              0.000392542586 Eh/a0 ::
         :: HOMO-LUMO gap              2.908572179711 eV    ::
         ::.................................................::
         :: SCC energy               -83.788513395195 Eh    ::
         :: -> electrostatic           0.353686304369 Eh    ::
         :: -> Gsolv                  -0.057835993811 Eh    ::
         ::    -> Gelec               -0.033727171526 Eh    ::
         ::    -> Gsasa               -0.024260459819 Eh    ::
         ::    -> Ghb                 -0.007472641470 Eh    ::
         ::    -> Gshift               0.007624279005 Eh    ::
         :: repulsion energy           0.808519884313 Eh    ::
         :: dispersion energy         -0.026741632800 Eh    ::
         :: halogen bond corr.         0.000000000000 Eh    ::
         :: add. restraining           0.000000000000 Eh    ::
         :: total charge               0.000000000000 e     ::
         :::::::::::::::::::::::::::::::::::::::::::::::::::::

           -------------------------------------------------
          |                Property Printout                |
           -------------------------------------------------

    * Orbital Energies and Occupations

         #    Occupation            Energy/Eh            Energy/eV
      -------------------------------------------------------------
         1        2.0000           -0.8652235             -23.5439
       ...           ...                  ...                  ...
        55        2.0000           -0.5037271             -13.7071
        56        2.0000           -0.4990811             -13.5807
        57        2.0000           -0.4971443             -13.5280
        58        2.0000           -0.4895617             -13.3217
        59        2.0000           -0.4868236             -13.2471
        60        2.0000           -0.4785493             -13.0220
        61        2.0000           -0.4665596             -12.6957
        62        2.0000           -0.4610464             -12.5457
        63        2.0000           -0.4558319             -12.4038
        64        2.0000           -0.4527111             -12.3189
        65        2.0000           -0.4503667             -12.2551
        66        2.0000           -0.4388064             -11.9405
        67        2.0000           -0.4326832             -11.7739 (HOMO)
        68                         -0.3257951              -8.8653 (LUMO)
        69                         -0.3106967              -8.4545
        70                         -0.2860505              -7.7838
        71                         -0.2562400              -6.9726
        72                         -0.2417303              -6.5778
        73                         -0.2041761              -5.5559
        74                         -0.1602210              -4.3598
        75                         -0.1422760              -3.8715
        76                         -0.1380968              -3.7578
        77                         -0.1373252              -3.7368
        78                         -0.1305809              -3.5533
       ...                                ...                  ...
       134                          0.7308504              19.8875
      -------------------------------------------------------------
                  HL-Gap            0.1068881 Eh            2.9086 eV
             Fermi-level           -0.3792391 Eh          -10.3196 eV

  Mulliken/CM5 charges         n(s)   n(p)   n(d)
     1C     0.16377  0.04312   0.980  2.856  0.000
     2O    -0.40992 -0.49402   1.684  4.726  0.000
     3C     0.57680  0.64405   0.968  2.455  0.000
     4O    -0.56216 -0.60624   1.725  4.837  0.000
     5C     0.08030  0.15701   1.044  2.876  0.000
     6N    -0.36481 -0.55213   1.524  3.840  0.000
     7C     0.27991  0.42907   1.023  2.697  0.000
     8C     0.14737  0.18746   1.069  2.783  0.000
     9C    -0.10031 -0.23959   1.021  3.079  0.000
    10C    -0.09817 -0.23654   1.016  3.082  0.000
    11N    -0.28013 -0.53459   1.456  3.825  0.000
    12C     0.04211 -0.04553   0.994  2.964  0.000
    13C     0.46158  0.57126   0.981  2.557  0.000
    14O    -0.57627 -0.62274   1.727  4.849  0.000
    15C     0.33120  0.45564   1.007  2.662  0.000
    16N    -0.22105 -0.32546   1.566  3.656  0.000
    17N    -0.26822 -0.37601   1.563  3.705  0.000
    18C     0.39001  0.49869   1.007  2.603  0.000
    19C    -0.11182 -0.24924   1.012  3.100  0.000
    20O    -0.35455 -0.41416   1.697  4.658  0.000
    21N    -0.28826 -0.63843   1.436  3.852  0.000
    22C     0.44595  0.54753   0.983  2.571  0.000
    23O    -0.57753 -0.62375   1.726  4.851  0.000
    24C     0.22918  0.26333   1.027  2.743  0.000
    25O    -0.50295 -0.69519   1.694  4.809  0.000
    26H     0.05196  0.11371   0.948  0.000  0.000
    27H     0.05460  0.11498   0.945  0.000  0.000
    28H     0.05213  0.11372   0.948  0.000  0.000
    29H     0.06850  0.12957   0.932  0.000  0.000
    30H     0.04923  0.10890   0.951  0.000  0.000
    31H     0.04392  0.10029   0.956  0.000  0.000
    32H     0.04530  0.10357   0.955  0.000  0.000
    33H     0.04873  0.10657   0.951  0.000  0.000
    34H     0.05664  0.11548   0.943  0.000  0.000
    35H     0.28384  0.48747   0.716  0.000  0.000
    36H     0.05304  0.12242   0.947  0.000  0.000
    37H     0.05798  0.12566   0.942  0.000  0.000
    38H     0.06165  0.12998   0.938  0.000  0.000
    39H     0.07942  0.13385   0.921  0.000  0.000
    40H     0.06981  0.12561   0.930  0.000  0.000
    41H     0.07938  0.13401   0.921  0.000  0.000
    42H     0.41183  0.59070   0.588  0.000  0.000

Wiberg/Mayer (AO) data.
largest (>0.10) Wiberg bond orders for each atom

 ---------------------------------------------------------------------------
     #   Z sym  total        # sym  WBO       # sym  WBO       # sym  WBO
 ---------------------------------------------------------------------------
     1   6 C    3.871 --    27 H    0.986    26 H    0.980    28 H    0.979
                             2 O    0.896
     2   8 O    2.205 --     3 C    1.117     1 C    0.896     4 O    0.135
     3   6 C    3.852 --     4 O    1.657     2 O    1.117     5 C    0.997
     4   8 O    1.919 --     3 C    1.657     2 O    0.135
     5   6 C    3.963 --    24 C    1.508     6 N    1.172     3 C    0.997
     6   7 N    3.028 --     7 C    1.597     5 C    1.172
     7   6 C    3.928 --     6 N    1.597    21 N    1.154     8 C    0.978
     8   6 C    3.937 --    10 C    0.992     9 C    0.978     7 C    0.978
                            11 N    0.914
     9   6 C    3.987 --    31 H    0.984    30 H    0.984     8 C    0.978
                            29 H    0.976
    10   6 C    3.989 --     8 C    0.992    32 H    0.984    33 H    0.983
                            34 H    0.983
    11   7 N    3.361 --    13 C    1.244    12 C    0.935     8 C    0.914
                            14 O    0.171
    12   6 C    3.939 --    38 H    0.982    37 H    0.980    36 H    0.980
                            11 N    0.935
    13   6 C    3.918 --    14 O    1.577    11 N    1.244    15 C    0.994
    14   8 O    1.903 --    13 C    1.577    11 N    0.171
    15   6 C    3.873 --    16 N    1.618    20 O    1.047    13 C    0.994
    16   7 N    2.999 --    15 C    1.618    17 N    1.202
    17   7 N    2.983 --    18 C    1.609    16 N    1.202
    18   6 C    3.869 --    17 N    1.609    20 O    1.072    19 C    1.031
    19   6 C    3.986 --    18 C    1.031    40 H    0.982    41 H    0.964
                            39 H    0.962
    20   8 O    2.320 --    18 C    1.072    15 C    1.047
    21   7 N    3.465 --     7 C    1.154    22 C    1.141    35 H    0.883
                            23 O    0.135
    22   6 C    3.910 --    23 O    1.578    21 N    1.141    24 C    1.060
    23   8 O    1.902 --    22 C    1.578    21 N    0.135
    24   6 C    3.920 --     5 C    1.508    25 O    1.109    22 C    1.060
    25   8 O    2.087 --    24 C    1.109    42 H    0.806
    26   1 H    1.007 --     1 C    0.980
    27   1 H    1.011 --     1 C    0.986
    28   1 H    1.007 --     1 C    0.979
    29   1 H    1.013 --     9 C    0.976
    30   1 H    1.000 --     9 C    0.984
    31   1 H    1.002 --     9 C    0.984
    32   1 H    1.003 --    10 C    0.984
    33   1 H    1.008 --    10 C    0.983
    34   1 H    1.006 --    10 C    0.983
    35   1 H    0.927 --    21 N    0.883
    36   1 H    1.003 --    12 C    0.980
    37   1 H    1.011 --    12 C    0.980
    38   1 H    1.004 --    12 C    0.982
    39   1 H    0.997 --    19 C    0.962
    40   1 H    0.998 --    19 C    0.982
    41   1 H    0.996 --    19 C    0.964
    42   1 H    0.845 --    25 O    0.806
 ---------------------------------------------------------------------------

Topologies differ in total number of bonds
Writing topology from bond orders to xtbtopo.mol

 dipole moment from electron density (au)
     X       Y       Z   
   0.4986   2.7019   2.2506  total (Debye):    9.027

           -------------------------------------------------
          |                Geometry Summary                 |
           -------------------------------------------------

      molecular mass/u    :      351.3152409
   center of mass at/Å    :       -0.0149033       0.0793662      -0.2256196
  moments of inertia/u·Å² :        0.1043760E+04   0.4970402E+04   0.5472260E+04
rotational constants/cm⁻¹ :        0.1615087E-01   0.3391603E-02   0.3080561E-02

 * 37 selected distances

     #   Z          #   Z                                           value/Å
     1   6 C        2   8 O                                       1.4304317
     2   8 O        3   6 C                                       1.3305943
     3   6 C        4   8 O                                       1.2100041
     5   6 C        6   7 N                                       1.3749268
     6   7 N        7   6 C                                       1.2874338
     8   6 C        9   6 C                                       1.5390972 (max)
     8   6 C       10   6 C                                       1.5310276
    11   7 N       12   6 C                                       1.4662425
    11   7 N       13   6 C                                       1.3582964
    13   6 C       14   8 O                                       1.2230948
    15   6 C       16   7 N                                       1.2990098
    17   7 N       18   6 C                                       1.2963485
    18   6 C       19   6 C                                       1.4789986
    15   6 C       20   8 O                                       1.3512646
    18   6 C       20   8 O                                       1.3431612
     7   6 C       21   7 N                                       1.3692057
    21   7 N       22   6 C                                       1.3724562
    22   6 C       23   8 O                                       1.2219092
     5   6 C       24   6 C                                       1.3682618
    24   6 C       25   8 O                                       1.3372477
     1   6 C       26   1 H                                       1.0927144
     1   6 C       27   1 H                                       1.0880610
     1   6 C       28   1 H                                       1.0926700
     9   6 C       29   1 H                                       1.0870834
     9   6 C       30   1 H                                       1.0878934
     9   6 C       31   1 H                                       1.0895501
    10   6 C       32   1 H                                       1.0889683
    10   6 C       33   1 H                                       1.0889724
    10   6 C       34   1 H                                       1.0885990
    21   7 N       35   1 H                                       1.0090681
    12   6 C       36   1 H                                       1.0882499
    12   6 C       37   1 H                                       1.0893162
    12   6 C       38   1 H                                       1.0883228
    19   6 C       39   1 H                                       1.0899084
    19   6 C       40   1 H                                       1.0874126
    19   6 C       41   1 H                                       1.0896114
    25   8 O       42   1 H                                       0.9747041 (min)

 * 6 distinct bonds (by element types)

   Z      Z             #   av. dist./Å        max./Å        min./Å
   1 H    6 C          15     1.0891556     1.0927144     1.0870834
   6 C    6 C           4     1.4793463     1.5390972     1.3682618
   1 H    7 N           1     1.0090681     1.0090681     1.0090681
   6 C    7 N           8     1.3529899     1.4662425     1.2874338
   1 H    8 O           1     0.9747041     0.9747041     0.9747041
   6 C    8 O           8     1.3059635     1.4304317     1.2100041


optimized geometry written to: xtbopt.xyz


           -------------------------------------------------
          | TOTAL ENERGY              -83.006735143682 Eh   |
          | GRADIENT NORM               0.000392542586 Eh/α |
          | HOMO-LUMO GAP               2.908572179711 eV   |
           -------------------------------------------------

------------------------------------------------------------------------
 * finished run on 2023/06/20 at 18:29:44.169     
------------------------------------------------------------------------
 total:
 * wall-time:     0 d,  0 h,  0 min, 14.886 sec
 *  cpu-time:     0 d,  0 h,  0 min, 14.826 sec
 * ratio c/w:     0.996 speedup
 SCF:
 * wall-time:     0 d,  0 h,  0 min,  0.187 sec
 *  cpu-time:     0 d,  0 h,  0 min,  0.186 sec
 * ratio c/w:     0.994 speedup
 ANC optimizer:
 * wall-time:     0 d,  0 h,  0 min, 14.629 sec
 *  cpu-time:     0 d,  0 h,  0 min, 14.607 sec
 * ratio c/w:     0.998 speedup

