      -----------------------------------------------------------      
     |                   =====================                   |     
     |                           x T B                           |     
     |                   =====================                   |     
     |                         S. Grimme                         |     
     |          Mulliken Center for Theoretical Chemistry        |     
     |                    University of Bonn                     |     
      -----------------------------------------------------------      

   * xtb version 6.5.1 (579679a) compiled by 'ehlert@majestix' on 2022-07-11

   xtb is free software: you can redistribute it and/or modify it under
   the terms of the GNU Lesser General Public License as published by
   the Free Software Foundation, either version 3 of the License, or
   (at your option) any later version.
   
   xtb is distributed in the hope that it will be useful,
   but WITHOUT ANY WARRANTY; without even the implied warranty of
   MERCHANTABILITY or FITNESS FOR A PARTICULAR PURPOSE.  See the
   GNU Lesser General Public License for more details.
   
   Cite this work as:
   * C. Bannwarth, E. Caldeweyher, S. Ehlert, A. Hansen, P. Pracht,
     J. Seibert, S. Spicher, S. Grimme, WIREs Comput. Mol. Sci., 2020, 11,
     e01493. DOI: 10.1002/wcms.1493
   
   for GFN2-xTB:
   * C. Bannwarth, S. Ehlert and S. Grimme., J. Chem. Theory Comput., 2019,
     15, 1652-1671. DOI: 10.1021/acs.jctc.8b01176
   for GFN1-xTB:
   * S. Grimme, C. Bannwarth, P. Shushkov, J. Chem. Theory Comput., 2017,
     13, 1989-2009. DOI: 10.1021/acs.jctc.7b00118
   for GFN0-xTB:
   * P. Pracht, E. Caldeweyher, S. Ehlert, S. Grimme, ChemRxiv, 2019, preprint.
     DOI: 10.26434/chemrxiv.8326202.v1
   for GFN-FF:
   * S. Spicher and S. Grimme, Angew. Chem. Int. Ed., 2020, 59, 15665-15673.
     DOI: 10.1002/anie.202004239
   
   for ALPB and GBSA implicit solvation:
   * S. Ehlert, M. Stahn, S. Spicher, S. Grimme, J. Chem. Theory Comput.,
     2021, 17, 4250-4261. DOI: 10.1021/acs.jctc.1c00471
   
   for DFT-D4:
   * E. Caldeweyher, C. Bannwarth and S. Grimme, J. Chem. Phys., 2017,
     147, 034112. DOI: 10.1063/1.4993215
   * E. Caldeweyher, S. Ehlert, A. Hansen, H. Neugebauer, S. Spicher,
     C. Bannwarth and S. Grimme, J. Chem. Phys., 2019, 150, 154122.
     DOI: 10.1063/1.5090222
   * E. Caldeweyher, J.-M. Mewes, S. Ehlert and S. Grimme, Phys. Chem. Chem. Phys.
     2020, 22, 8499-8512. DOI: 10.1039/D0CP00502A
   
   for sTDA-xTB:
   * S. Grimme and C. Bannwarth, J. Chem. Phys., 2016, 145, 054103.
     DOI: 10.1063/1.4959605
   
   in the mass-spec context:
   * V. Asgeirsson, C. Bauer and S. Grimme, Chem. Sci., 2017, 8, 4879.
     DOI: 10.1039/c7sc00601b
   * J. Koopman and S. Grimme, ACS Omega 2019, 4, 12, 15120-15133.
     DOI: 10.1021/acsomega.9b02011
   
   for metadynamics refer to:
   * S. Grimme, J. Chem. Theory Comput., 2019, 155, 2847-2862
     DOI: 10.1021/acs.jctc.9b00143
   
   for SPH calculations refer to:
   * S. Spicher and S. Grimme, J. Chem. Theory Comput., 2021, 17, 1701-1714
     DOI: 10.1021/acs.jctc.0c01306
   
   with help from (in alphabetical order)
   P. Atkinson, C. Bannwarth, F. Bohle, G. Brandenburg, E. Caldeweyher
   M. Checinski, S. Dohm, S. Ehlert, S. Ehrlich, I. Gerasimov, C. Hölzer
   A. Katbashev, J. Koopman, C. Lavigne, S. Lehtola, F. März, M. Müller,
   F. Musil, H. Neugebauer, J. Pisarek, C. Plett, P. Pracht, F. Pultar,
   J. Seibert, P. Shushkov, S. Spicher, M. Stahn, M. Steiner, T. Strunk,
   J. Stückrath, T. Rose, and J. Unsleber
   
 * started run on 2023/06/21 at 17:16:07.207     

           -------------------------------------------------
          |                Calculation Setup                |
           -------------------------------------------------

          program call               : /lustre/hpc/kemi/ree/PhD/git/ReactivityQM/dep/xtb-6.5.1/bin/xtb --gfn 1 /lustre/hpc/kemi/ree/PhD/git/ReactivityQM/calculations/R02oxygendeprot/reac01prodE14/conf05/R02oxygendeprot_reac01prodE14_conf05_gfn1.xyz --opt --vfukui --chrg -2 --uhf 0 --alpb DMSO
          hostname                   : node070
          coordinate file            : /lustre/hpc/kemi/ree/PhD/git/ReactivityQM/calculations/R02oxygendeprot/reac01prodE14/conf05/R02oxygendeprot_reac01prodE14_conf05_gfn1.xyz
          omp threads                :                     1

   ID    Z sym.   atoms
    1    6 C      1, 3, 5, 7-10, 12, 14, 17, 18, 21, 23, 24
    2    8 O      2, 4, 13, 19, 22, 25
    3    7 N      6, 11, 15, 16, 20
    4    1 H      26-42

           -------------------------------------------------
          |                 G F N 1 - x T B                 |
           -------------------------------------------------

        Reference                      10.1021/acs.jctc.7b00118
      * Hamiltonian:
        H0-scaling (s, p, d)           1.850000    2.250000    2.000000
        zeta-weighting                 0.000000
      * Dispersion:
        s8                             2.400000
        a1                             0.630000
        a2                             5.000000
        s9                             0.000000
      * Repulsion:
        kExp                           1.500000
        rExp                           1.000000
      * Coulomb:
        alpha                          2.000000
        third order                    atomic
        anisotropic                    false
      * Halogen bond correction:
        rad-scale                      1.300000
        damping                        0.440000

      * Solvation model:               ALPB
        Solvent                        DMSO
        Parameter file                 internal GFN1-xTB/ALPB
        Dielectric constant                4.6680E+01
        Reference state                gsolv [1 M gas/solution]
        Free energy shift                  7.6243E-03 Eh       4.7843E+00 kcal/mol
        Temperature                        2.9815E+02 K
        Density                            1.1000E+00 kg/L
        Solvent mass                       7.8130E+01 g/mol
        Interaction kernel             P16
        Born radius scaling (c1)           1.7672E+00
        Born radii integrator          GBOBC
        Born offset                        0.0000E+00 a0       0.0000E+00 AA
        H-bond correction              true
        Ion screening                  false
        Surface tension                    1.0000E-05 Eh       1.5569E+01 dyn/cm
        Grid points                               230 per atom

          ...................................................
          :                      SETUP                      :
          :.................................................:
          :  # basis functions                 134          :
          :  # atomic orbitals                 134          :
          :  # shells                           84          :
          :  # electrons                       136          :
          :  # halogen bonds                     0          :
          :  max. iterations                   250          :
          :  Hamiltonian                  GFN1-xTB          :
          :  restarted?                      false          :
          :  GBSA solvation                   true          :
          :  PC potential                    false          :
          :  electronic temp.          300.0000000     K    :
          :  accuracy                    1.0000000          :
          :  -> integral cutoff          0.2500000E+02      :
          :  -> integral neglect         0.1000000E-07      :
          :  -> SCF convergence          0.1000000E-05 Eh   :
          :  -> wf. convergence          0.2000000E-04 e    :
          :  Broyden damping             0.4000000          :
          ...................................................

 iter      E             dE          RMSdq      gap      omega  full diag
   1    -83.9713479 -0.839713E+02  0.872E+00    1.82       0.0  T
   2    -84.2783132 -0.306965E+00  0.522E+00    0.42       1.0  T
   3    -83.6808430  0.597470E+00  0.307E+00    0.14       1.0  T
   4    -84.2392889 -0.558446E+00  0.133E+00    1.95       1.0  T
   5    -84.2932968 -0.540079E-01  0.630E-01    0.92       1.0  T
   6    -84.3000492 -0.675239E-02  0.438E-01    0.53       1.0  T
   7    -84.2928365  0.721274E-02  0.455E-01    0.04       1.0  T
   8    -84.3078321 -0.149956E-01  0.266E-01    0.08       1.0  T
   9    -83.9915512  0.316281E+00  0.158E+00    0.20       1.0  T
  10    -84.3112263 -0.319675E+00  0.154E-01    0.11       1.0  T
  11    -84.3104574  0.768850E-03  0.149E-01    0.14       1.0  T
  12    -84.3117104 -0.125295E-02  0.915E-02    0.12       1.0  T
  13    -84.3112326  0.477754E-03  0.101E-01    0.08       1.0  T
  14    -84.3118002 -0.567575E-03  0.711E-02    0.09       1.0  T
  15    -84.3122060 -0.405763E-03  0.395E-02    0.09       1.0  T
  16    -84.3123632 -0.157284E-03  0.152E-02    0.10       1.0  T
  17    -84.3123909 -0.276249E-04  0.299E-03    0.10       5.2  T
  18    -84.3123912 -0.366230E-06  0.217E-03    0.10       7.1  T
  19    -84.3123918 -0.589085E-06  0.116E-04    0.10     132.6  T
  20    -84.3123918  0.334097E-10  0.868E-05    0.10     177.9  T

   *** convergence criteria satisfied after 20 iterations ***

         #    Occupation            Energy/Eh            Energy/eV
      -------------------------------------------------------------
         1        2.0000           -0.8317088             -22.6319
       ...           ...                  ...                  ...
        62        2.0000           -0.4052532             -11.0275
        63        2.0000           -0.3977432             -10.8231
        64        2.0000           -0.3861073             -10.5065
        65        2.0000           -0.3757774             -10.2254
        66        2.0000           -0.3031032              -8.2479
        67        2.0000           -0.3008569              -8.1867
        68        1.7617           -0.2904302              -7.9030 (HOMO)
        69        0.2383           -0.2866291              -7.7996 (LUMO)
        70                         -0.2369475              -6.4477
        71                         -0.2183062              -5.9404
        72                         -0.1723492              -4.6899
        73                         -0.1691333              -4.6024
       ...                                ...                  ...
       134                          0.7443584              20.2550
      -------------------------------------------------------------
                  HL-Gap            0.0038011 Eh            0.1034 eV
             Fermi-level           -0.2885296 Eh           -7.8513 eV

 SCC (total)                   0 d,  0 h,  0 min,  0.247 sec
 SCC setup                      ...        0 min,  0.002 sec (  0.759%)
 Dispersion                     ...        0 min,  0.000 sec (  0.125%)
 classical contributions        ...        0 min,  0.000 sec (  0.042%)
 integral evaluation            ...        0 min,  0.079 sec ( 32.164%)
 iterations                     ...        0 min,  0.107 sec ( 43.304%)
 molecular gradient             ...        0 min,  0.057 sec ( 23.054%)
 printout                       ...        0 min,  0.001 sec (  0.539%)

         :::::::::::::::::::::::::::::::::::::::::::::::::::::
         ::                     SUMMARY                     ::
         :::::::::::::::::::::::::::::::::::::::::::::::::::::
         :: total energy             -83.586641196089 Eh    ::
         :: total w/o Gsasa/hb       -83.567632145903 Eh    ::
         :: gradient norm              0.149983930439 Eh/a0 ::
         :: HOMO-LUMO gap              0.103431957379 eV    ::
         ::.................................................::
         :: SCC energy               -84.312391827418 Eh    ::
         :: -> electrostatic           0.735350878131 Eh    ::
         :: -> Gsolv                  -0.292633956432 Eh    ::
         ::    -> Gelec               -0.273624906246 Eh    ::
         ::    -> Gsasa               -0.023994458075 Eh    ::
         ::    -> Ghb                 -0.002638871115 Eh    ::
         ::    -> Gshift               0.007624279005 Eh    ::
         :: repulsion energy           0.751412514015 Eh    ::
         :: dispersion energy         -0.025661882686 Eh    ::
         :: halogen bond corr.         0.000000000000 Eh    ::
         :: add. restraining           0.000000000000 Eh    ::
         :: total charge              -2.000000000000 e     ::
         :::::::::::::::::::::::::::::::::::::::::::::::::::::

      ----------------------------------------------------------- 
     |                   =====================                   |
     |                        A N C O P T                        |
     |                   =====================                   |
     |               Approximate Normal Coordinate               |
     |                Rational Function Optimizer                |
      ----------------------------------------------------------- 

          ...................................................
          :                      SETUP                      :
          :.................................................:
          :   optimization level            normal          :
          :   max. optcycles                   200          :
          :   ANC micro-cycles                  20          :
          :   degrees of freedom               120          :
          :.................................................:
          :   RF solver                   davidson          :
          :   write xtbopt.log                true          :
          :   linear?                        false          :
          :   energy convergence         0.5000000E-05 Eh   :
          :   grad. convergence          0.1000000E-02 Eh/α :
          :   maximium RF displ.         1.0000000          :
          :   Hlow (freq-cutoff)         0.1000000E-01      :
          :   Hmax (freq-cutoff)         5.0000000          :
          :   S6 in model hess.         20.0000000          :
          ...................................................

generating ANC from model Hessian ...
Using Lindh-Hessian (1995)
 Shifting diagonal of input Hessian by   9.762146554407401E-003
 Lowest  eigenvalues of input Hessian
    0.000000    0.000000    0.000000    0.000000    0.000000    0.000000
    0.010000    0.010049    0.010527    0.011007    0.011776    0.011917
    0.012731    0.013940    0.014603    0.015041    0.015656    0.017679
 Highest eigenvalues
    1.978586    2.052153    2.113254    2.214423    2.311822    2.348513
 

........................................................................
.............................. CYCLE    1 ..............................
........................................................................
   1    -84.3123918 -0.843124E+02  0.279E-05    0.10       0.0  T
   2    -84.3123918  0.650530E-08  0.228E-04    0.10      67.6  T
   3    -84.3123918 -0.658872E-08  0.842E-06    0.10    1833.4  T
   4    -84.3123918 -0.700595E-11  0.206E-06    0.10    7474.8  T
     SCC iter.                  ...        0 min,  0.023 sec
     gradient                   ...        0 min,  0.058 sec
 * total energy  :   -83.5866412 Eh     change       -0.8025864E-09 Eh
   gradient norm :     0.1499781 Eh/α   predicted     0.0000000E+00 (-100.00%)
   displ. norm   :     0.3477006 α      lambda       -0.2148079E-01
   maximum displ.:     0.1529957 α      in ANC's #18, #27, #19, ...

........................................................................
.............................. CYCLE    2 ..............................
........................................................................
   1    -84.3172800 -0.843173E+02  0.229E-01    0.32       0.0  T
   2    -83.9531842  0.364096E+00  0.172E+00    0.20       1.0  T
   3    -84.3189050 -0.365721E+00  0.181E-01    0.24       1.0  T
   4    -84.3200478 -0.114280E-02  0.142E-01    0.20       1.0  T
   5    -84.3214688 -0.142100E-02  0.910E-02    0.16       1.0  T
   6    -84.3222081 -0.739275E-03  0.451E-02    0.13       1.0  T
   7    -84.3222470 -0.389763E-04  0.418E-02    0.11       1.0  T
   8    -84.3224573 -0.210299E-03  0.504E-03    0.12       3.1  T
   9    -84.3224586 -0.120423E-05  0.353E-03    0.12       4.4  T
  10    -84.3224600 -0.148023E-05  0.537E-04    0.12      28.7  T
  11    -84.3224600  0.372369E-07  0.735E-04    0.12      21.0  T
  12    -84.3224601 -0.634626E-07  0.933E-05    0.12     165.4  T
  13    -84.3224601 -0.246416E-10  0.870E-05    0.12     177.3  T
     SCC iter.                  ...        0 min,  0.072 sec
     gradient                   ...        0 min,  0.057 sec
 * total energy  :   -83.6024431 Eh     change       -0.1580193E-01 Eh
   gradient norm :     0.0785299 Eh/α   predicted    -0.1207428E-01 ( -23.59%)
   displ. norm   :     0.3820037 α      lambda       -0.1143101E-01
   maximum displ.:     0.2010229 α      in ANC's #18, #27, #19, ...

........................................................................
.............................. CYCLE    3 ..............................
........................................................................
   1    -84.3334486 -0.843334E+02  0.200E-01    0.36       0.0  T
   2    -84.0970861  0.236363E+00  0.140E+00    0.06       1.0  T
   3    -84.3346065 -0.237520E+00  0.156E-01    0.30       1.0  T
   4    -84.3349565 -0.350061E-03  0.134E-01    0.27       1.0  T
   5    -84.3353831 -0.426570E-03  0.116E-01    0.23       1.0  T
   6    -84.3359686 -0.585507E-03  0.867E-02    0.19       1.0  T
   7    -84.3366044 -0.635780E-03  0.399E-02    0.16       1.0  T
   8    -84.3367806 -0.176212E-03  0.353E-03    0.14       4.4  T
   9    -84.3367810 -0.338581E-06  0.372E-03    0.14       4.1  T
  10    -84.3367787  0.229957E-05  0.559E-03    0.14       2.8  T
  11    -84.3367821 -0.339282E-05  0.961E-04    0.14      16.1  T
  12    -84.3367822 -0.106978E-06  0.639E-05    0.14     241.4  T
  13    -84.3367822  0.270404E-09  0.644E-05    0.14     239.6  T
     SCC iter.                  ...        0 min,  0.071 sec
     gradient                   ...        0 min,  0.058 sec
 * total energy  :   -83.6093310 Eh     change       -0.6887919E-02 Eh
   gradient norm :     0.0242899 Eh/α   predicted    -0.6549555E-02 (  -4.91%)
   displ. norm   :     0.2785751 α      lambda       -0.1961283E-02
   maximum displ.:     0.1789250 α      in ANC's #18, #19, #2, ...

........................................................................
.............................. CYCLE    4 ..............................
........................................................................
   1    -84.3410515 -0.843411E+02  0.943E-02    0.23       0.0  T
   2    -84.2344712  0.106580E+00  0.932E-01    0.01       1.0  T
   3    -84.3415041 -0.107033E+00  0.703E-02    0.20       1.0  T
   4    -84.3416296 -0.125582E-03  0.584E-02    0.19       1.0  T
   5    -84.3417891 -0.159505E-03  0.444E-02    0.18       1.0  T
   6    -84.3419644 -0.175226E-03  0.194E-02    0.16       1.0  T
   7    -84.3420040 -0.396694E-04  0.476E-03    0.16       3.2  T
   8    -84.3420059 -0.185022E-05  0.250E-03    0.15       6.2  T
   9    -84.3420066 -0.671210E-06  0.438E-04    0.15      35.2  T
  10    -84.3420066 -0.206277E-07  0.808E-05    0.15     191.0  T
  11    -84.3420066 -0.440963E-09  0.515E-05    0.15     299.7  T
     SCC iter.                  ...        0 min,  0.060 sec
     gradient                   ...        0 min,  0.058 sec
 * total energy  :   -83.6107289 Eh     change       -0.1397903E-02 Eh
   gradient norm :     0.0150109 Eh/α   predicted    -0.1056925E-02 ( -24.39%)
   displ. norm   :     0.3113476 α      lambda       -0.1180915E-02
   maximum displ.:     0.1700676 α      in ANC's #18, #1, #2, ...

........................................................................
.............................. CYCLE    5 ..............................
........................................................................
   1    -84.3448134 -0.843448E+02  0.669E-02    0.22       0.0  T
   2    -84.3197119  0.251015E-01  0.455E-01    0.05       1.0  T
   3    -84.3450887 -0.253768E-01  0.455E-02    0.20       1.0  T
   4    -84.3451615 -0.728371E-04  0.351E-02    0.19       1.0  T
   5    -84.3452531 -0.915782E-04  0.197E-02    0.18       1.0  T
   6    -84.3452937 -0.406388E-04  0.271E-03    0.16       5.7  T
   7    -84.3452944 -0.697202E-06  0.602E-04    0.16      25.6  T
   8    -84.3452945 -0.362178E-07  0.124E-04    0.16     124.8  T
   9    -84.3452945  0.137224E-08  0.116E-04    0.16     133.0  T
     SCC iter.                  ...        0 min,  0.050 sec
     gradient                   ...        0 min,  0.058 sec
 * total energy  :   -83.6115166 Eh     change       -0.7876691E-03 Eh
   gradient norm :     0.0098098 Eh/α   predicted    -0.6477085E-03 ( -17.77%)
   displ. norm   :     0.2392133 α      lambda       -0.4960460E-03
   maximum displ.:     0.0995741 α      in ANC's #1, #18, #2, ...

........................................................................
.............................. CYCLE    6 ..............................
........................................................................
   1    -84.3466319 -0.843466E+02  0.278E-02    0.19       0.0  T
   2    -84.3451612  0.147061E-02  0.114E-01    0.12       1.0  T
   3    -84.3467048 -0.154356E-02  0.109E-02    0.18       1.4  T
   4    -84.3467129 -0.810435E-05  0.552E-03    0.17       2.8  T
   5    -84.3467157 -0.283218E-05  0.843E-04    0.17      18.3  T
   6    -84.3467157  0.309292E-08  0.585E-04    0.17      26.4  T
   7    -84.3467158 -0.392652E-07  0.551E-05    0.17     279.8  T
   8    -84.3467158  0.500364E-10  0.458E-05    0.17     336.6  T
     SCC iter.                  ...        0 min,  0.044 sec
     gradient                   ...        0 min,  0.057 sec
 * total energy  :   -83.6118682 Eh     change       -0.3515470E-03 Eh
   gradient norm :     0.0081781 Eh/α   predicted    -0.2622175E-03 ( -25.41%)
   displ. norm   :     0.2479066 α      lambda       -0.3630603E-03
   maximum displ.:     0.1212422 α      in ANC's #1, #2, #11, ...

........................................................................
.............................. CYCLE    7 ..............................
........................................................................
   1    -84.3473534 -0.843474E+02  0.176E-02    0.18       0.0  T
   2    -84.3470275  0.325885E-03  0.551E-02    0.14       1.0  T
   3    -84.3473816 -0.354098E-03  0.606E-03    0.18       2.5  T
   4    -84.3473841 -0.251220E-05  0.269E-03    0.17       5.7  T
   5    -84.3473846 -0.421636E-06  0.534E-04    0.17      28.9  T
   6    -84.3473846  0.144114E-08  0.301E-04    0.17      51.3  T
   7    -84.3473846 -0.102727E-07  0.415E-05    0.17     371.9  T
   8    -84.3473846  0.110305E-09  0.396E-05    0.17     390.0  T
     SCC iter.                  ...        0 min,  0.043 sec
     gradient                   ...        0 min,  0.058 sec
 * total energy  :   -83.6121301 Eh     change       -0.2619425E-03 Eh
   gradient norm :     0.0069566 Eh/α   predicted    -0.1927000E-03 ( -26.43%)
   displ. norm   :     0.2419933 α      lambda       -0.2699537E-03
   maximum displ.:     0.1355364 α      in ANC's #1, #2, #11, ...

........................................................................
.............................. CYCLE    8 ..............................
........................................................................
   1    -84.3473518 -0.843474E+02  0.890E-03    0.18       0.0  T
   2    -84.3473475  0.434413E-05  0.102E-02    0.17       1.5  T
   3    -84.3473523 -0.480534E-05  0.695E-03    0.18       2.2  T
   4    -84.3473565 -0.417902E-05  0.219E-03    0.17       7.0  T
   5    -84.3473565 -0.360004E-07  0.718E-04    0.17      21.5  T
   6    -84.3473565 -0.140849E-07  0.175E-04    0.17      88.3  T
   7    -84.3473565 -0.199829E-08  0.378E-05    0.17     408.5  T
     SCC iter.                  ...        0 min,  0.039 sec
     gradient                   ...        0 min,  0.058 sec
 * total energy  :   -83.6123255 Eh     change       -0.1954285E-03 Eh
   gradient norm :     0.0061191 Eh/α   predicted    -0.1428851E-03 ( -26.89%)
   displ. norm   :     0.2306769 α      lambda       -0.2021632E-03
   maximum displ.:     0.1386632 α      in ANC's #1, #11, #2, ...

........................................................................
.............................. CYCLE    9 ..............................
........................................................................
   1    -84.3470563 -0.843471E+02  0.849E-03    0.18       0.0  T
   2    -84.3470558  0.498067E-06  0.798E-03    0.17       1.9  T
   3    -84.3470567 -0.958784E-06  0.622E-03    0.18       2.5  T
   4    -84.3470600 -0.324418E-05  0.248E-03    0.17       6.2  T
   5    -84.3470602 -0.220989E-06  0.760E-04    0.18      20.3  T
   6    -84.3470602 -0.135970E-07  0.147E-04    0.18     104.9  T
   7    -84.3470602 -0.109638E-08  0.420E-05    0.18     367.6  T
     SCC iter.                  ...        0 min,  0.039 sec
     gradient                   ...        0 min,  0.058 sec
 * total energy  :   -83.6124797 Eh     change       -0.1541808E-03 Eh
   gradient norm :     0.0057431 Eh/α   predicted    -0.1064616E-03 ( -30.95%)
   displ. norm   :     0.2617846 α      lambda       -0.2022842E-03
   maximum displ.:     0.1630354 α      in ANC's #1, #11, #2, ...

........................................................................
.............................. CYCLE   10 ..............................
........................................................................
   1    -84.3465830 -0.843466E+02  0.901E-03    0.18       0.0  T
   2    -84.3465814  0.157684E-05  0.846E-03    0.17       1.8  T
   3    -84.3465826 -0.119079E-05  0.653E-03    0.18       2.4  T
   4    -84.3465867 -0.409005E-05  0.244E-03    0.18       6.3  T
   5    -84.3465869 -0.265848E-06  0.601E-04    0.18      25.7  T
   6    -84.3465869 -0.332494E-08  0.118E-04    0.18     130.9  T
   7    -84.3465869 -0.829502E-09  0.530E-05    0.18     291.0  T
     SCC iter.                  ...        0 min,  0.038 sec
     gradient                   ...        0 min,  0.058 sec
 * total energy  :   -83.6126366 Eh     change       -0.1569150E-03 Eh
   gradient norm :     0.0057172 Eh/α   predicted    -0.1080759E-03 ( -31.12%)
   displ. norm   :     0.2888438 α      lambda       -0.1988527E-03
   maximum displ.:     0.1828437 α      in ANC's #1, #11, #10, ...

........................................................................
.............................. CYCLE   11 ..............................
........................................................................
   1    -84.3461688 -0.843462E+02  0.101E-02    0.18       0.0  T
   2    -84.3461408  0.279909E-04  0.183E-02    0.17       1.0  T
   3    -84.3461742 -0.333921E-04  0.419E-03    0.18       3.7  T
   4    -84.3461759 -0.167322E-05  0.190E-03    0.18       8.1  T
   5    -84.3461760 -0.608065E-07  0.870E-04    0.18      17.7  T
   6    -84.3461760 -0.545274E-07  0.228E-04    0.18      67.8  T
   7    -84.3461760 -0.225899E-08  0.396E-05    0.18     389.2  T
   8    -84.3461760 -0.306954E-10  0.154E-05    0.18    1000.5  T
     SCC iter.                  ...        0 min,  0.044 sec
     gradient                   ...        0 min,  0.058 sec
 * total energy  :   -83.6127884 Eh     change       -0.1518108E-03 Eh
   gradient norm :     0.0056281 Eh/α   predicted    -0.1077292E-03 ( -29.04%)
   displ. norm   :     0.2722366 α      lambda       -0.1639055E-03
   maximum displ.:     0.1766153 α      in ANC's #1, #10, #4, ...

........................................................................
.............................. CYCLE   12 ..............................
........................................................................
   1    -84.3462416 -0.843462E+02  0.105E-02    0.18       0.0  T
   2    -84.3461968  0.447605E-04  0.224E-02    0.16       1.0  T
   3    -84.3462503 -0.535467E-04  0.339E-03    0.18       4.5  T
   4    -84.3462514 -0.103868E-05  0.146E-03    0.18      10.6  T
   5    -84.3462514  0.128893E-07  0.102E-03    0.18      15.1  T
   6    -84.3462514 -0.663615E-07  0.251E-04    0.18      61.4  T
   7    -84.3462514 -0.426006E-08  0.317E-05    0.18     486.7  T
   8    -84.3462514 -0.158593E-10  0.108E-05    0.18    1424.6  T
     SCC iter.                  ...        0 min,  0.045 sec
     gradient                   ...        0 min,  0.058 sec
 * total energy  :   -83.6129140 Eh     change       -0.1255326E-03 Eh
   gradient norm :     0.0048932 Eh/α   predicted    -0.8802951E-04 ( -29.88%)
   displ. norm   :     0.2473416 α      lambda       -0.1337368E-03
   maximum displ.:     0.1651519 α      in ANC's #1, #10, #4, ...

........................................................................
.............................. CYCLE   13 ..............................
........................................................................
   1    -84.3467965 -0.843468E+02  0.107E-02    0.19       0.0  T
   2    -84.3467526  0.438349E-04  0.222E-02    0.17       1.0  T
   3    -84.3468058 -0.532194E-04  0.414E-03    0.18       3.7  T
   4    -84.3468072 -0.138137E-05  0.116E-03    0.18      13.3  T
   5    -84.3468072  0.370095E-07  0.842E-04    0.18      18.3  T
   6    -84.3468072 -0.398087E-07  0.195E-04    0.18      79.1  T
   7    -84.3468072 -0.281426E-08  0.277E-05    0.18     556.2  T
     SCC iter.                  ...        0 min,  0.039 sec
     gradient                   ...        0 min,  0.057 sec
 * total energy  :   -83.6130185 Eh     change       -0.1045208E-03 Eh
   gradient norm :     0.0037843 Eh/α   predicted    -0.7096129E-04 ( -32.11%)
   displ. norm   :     0.2412000 α      lambda       -0.1189066E-03
   maximum displ.:     0.1633570 α      in ANC's #1, #4, #2, ...

........................................................................
.............................. CYCLE   14 ..............................
........................................................................
   1    -84.3474915 -0.843475E+02  0.943E-03    0.19       0.0  T
   2    -84.3474675  0.240893E-04  0.171E-02    0.17       1.0  T
   3    -84.3474980 -0.305269E-04  0.437E-03    0.18       3.5  T
   4    -84.3474995 -0.152629E-05  0.110E-03    0.18      14.1  T
   5    -84.3474995  0.120346E-07  0.677E-04    0.18      22.8  T
   6    -84.3474995 -0.162141E-07  0.135E-04    0.18     114.3  T
   7    -84.3474995 -0.133771E-08  0.264E-05    0.18     583.6  T
     SCC iter.                  ...        0 min,  0.038 sec
     gradient                   ...        0 min,  0.057 sec
 * total energy  :   -83.6131137 Eh     change       -0.9524622E-04 Eh
   gradient norm :     0.0033967 Eh/α   predicted    -0.6291517E-04 ( -33.94%)
   displ. norm   :     0.2618077 α      lambda       -0.1175364E-03
   maximum displ.:     0.1761890 α      in ANC's #1, #4, #2, ...

........................................................................
.............................. CYCLE   15 ..............................
........................................................................
   1    -84.3479862 -0.843480E+02  0.753E-03    0.19       0.0  T
   2    -84.3479781  0.800145E-05  0.108E-02    0.18       1.4  T
   3    -84.3479893 -0.111014E-04  0.415E-03    0.19       3.7  T
   4    -84.3479908 -0.150662E-05  0.903E-04    0.18      17.1  T
   5    -84.3479908  0.179156E-08  0.559E-04    0.18      27.6  T
   6    -84.3479908 -0.534988E-08  0.100E-04    0.18     153.8  T
   7    -84.3479908 -0.652790E-09  0.260E-05    0.18     594.4  T
     SCC iter.                  ...        0 min,  0.038 sec
     gradient                   ...        0 min,  0.058 sec
 * total energy  :   -83.6132115 Eh     change       -0.9772928E-04 Eh
   gradient norm :     0.0038749 Eh/α   predicted    -0.6279998E-04 ( -35.74%)
   displ. norm   :     0.3300235 α      lambda       -0.1373640E-03
   maximum displ.:     0.2191359 α      in ANC's #1, #4, #6, ...

........................................................................
.............................. CYCLE   16 ..............................
........................................................................
   1    -84.3478934 -0.843479E+02  0.737E-03    0.19       0.0  T
   2    -84.3478876  0.580299E-05  0.980E-03    0.18       1.6  T
   3    -84.3478963 -0.866074E-05  0.393E-03    0.19       3.9  T
   4    -84.3478977 -0.142722E-05  0.924E-04    0.18      16.7  T
   5    -84.3478977 -0.220601E-08  0.594E-04    0.18      26.0  T
   6    -84.3478977 -0.908034E-08  0.134E-04    0.18     115.2  T
   7    -84.3478977 -0.883702E-09  0.310E-05    0.18     498.6  T
     SCC iter.                  ...        0 min,  0.038 sec
     gradient                   ...        0 min,  0.057 sec
 * total energy  :   -83.6133254 Eh     change       -0.1139348E-03 Eh
   gradient norm :     0.0043268 Eh/α   predicted    -0.7616295E-04 ( -33.15%)
   displ. norm   :     0.3695068 α      lambda       -0.1446916E-03
   maximum displ.:     0.2455869 α      in ANC's #1, #4, #6, ...

........................................................................
.............................. CYCLE   17 ..............................
........................................................................
   1    -84.3475684 -0.843476E+02  0.775E-03    0.19       0.0  T
   2    -84.3475604  0.797050E-05  0.112E-02    0.18       1.4  T
   3    -84.3475721 -0.117351E-04  0.341E-03    0.19       4.5  T
   4    -84.3475732 -0.103987E-05  0.107E-03    0.19      14.4  T
   5    -84.3475732 -0.113424E-07  0.585E-04    0.19      26.4  T
   6    -84.3475732 -0.140471E-07  0.111E-04    0.19     138.6  T
   7    -84.3475732 -0.445098E-09  0.359E-05    0.19     429.4  T
     SCC iter.                  ...        0 min,  0.038 sec
     gradient                   ...        0 min,  0.057 sec
 * total energy  :   -83.6134452 Eh     change       -0.1197925E-03 Eh
   gradient norm :     0.0043159 Eh/α   predicted    -0.8222557E-04 ( -31.36%)
   displ. norm   :     0.3915364 α      lambda       -0.1497897E-03
   maximum displ.:     0.2638840 α      in ANC's #1, #4, #6, ...

........................................................................
.............................. CYCLE   18 ..............................
........................................................................
   1    -84.3470772 -0.843471E+02  0.970E-03    0.19       0.0  T
   2    -84.3470588  0.184153E-04  0.163E-02    0.18       1.0  T
   3    -84.3470845 -0.256946E-04  0.319E-03    0.19       4.8  T
   4    -84.3470853 -0.802813E-06  0.135E-03    0.19      11.4  T
   5    -84.3470853 -0.360002E-07  0.676E-04    0.19      22.8  T
   6    -84.3470854 -0.174360E-07  0.195E-04    0.19      79.1  T
   7    -84.3470854 -0.220183E-08  0.340E-05    0.19     454.4  T
     SCC iter.                  ...        0 min,  0.037 sec
     gradient                   ...        0 min,  0.056 sec
 * total energy  :   -83.6135666 Eh     change       -0.1214373E-03 Eh
   gradient norm :     0.0040514 Eh/α   predicted    -0.8637845E-04 ( -28.87%)
   displ. norm   :     0.3767791 α      lambda       -0.1425263E-03
   maximum displ.:     0.2601095 α      in ANC's #1, #4, #6, ...

........................................................................
.............................. CYCLE   19 ..............................
........................................................................
   1    -84.3469913 -0.843470E+02  0.116E-02    0.20       0.0  T
   2    -84.3469622  0.290688E-04  0.202E-02    0.18       1.0  T
   3    -84.3470022 -0.399978E-04  0.326E-03    0.19       4.7  T
   4    -84.3470031 -0.886091E-06  0.123E-03    0.19      12.6  T
   5    -84.3470031  0.705569E-10  0.747E-04    0.19      20.6  T
   6    -84.3470031 -0.258961E-07  0.196E-04    0.19      78.8  T
   7    -84.3470031 -0.228185E-08  0.655E-05    0.19     235.6  T
     SCC iter.                  ...        0 min,  0.037 sec
     gradient                   ...        0 min,  0.056 sec
 * total energy  :   -83.6136814 Eh     change       -0.1148050E-03 Eh
   gradient norm :     0.0040615 Eh/α   predicted    -0.8138336E-04 ( -29.11%)
   displ. norm   :     0.3621475 α      lambda       -0.1300894E-03
   maximum displ.:     0.2556101 α      in ANC's #1, #4, #14, ...

........................................................................
.............................. CYCLE   20 ..............................
........................................................................
   1    -84.3468917 -0.843469E+02  0.123E-02    0.21       0.0  T
   2    -84.3468620  0.297316E-04  0.206E-02    0.18       1.0  T
   3    -84.3469042 -0.422031E-04  0.297E-03    0.20       5.2  T
   4    -84.3469050 -0.800343E-06  0.886E-04    0.20      17.4  T
   5    -84.3469049  0.161725E-07  0.644E-04    0.20      24.0  T
   6    -84.3469050 -0.193495E-07  0.171E-04    0.20      90.0  T
   7    -84.3469050 -0.199435E-08  0.673E-05    0.20     229.2  T
     SCC iter.                  ...        0 min,  0.037 sec
     gradient                   ...        0 min,  0.058 sec
 * total energy  :   -83.6137847 Eh     change       -0.1032445E-03 Eh
   gradient norm :     0.0044278 Eh/α   predicted    -0.7357858E-04 ( -28.73%)
   displ. norm   :     0.3574414 α      lambda       -0.1204337E-03
   maximum displ.:     0.2560230 α      in ANC's #1, #4, #14, ...
 * RMSD in coord.:     0.6989972 α      energy gain  -0.2714349E-01 Eh

generating ANC from model Hessian ...
Using Lindh-Hessian (1995)
 Shifting diagonal of input Hessian by   9.776344778203465E-003
 Lowest  eigenvalues of input Hessian
    0.000000    0.000000    0.000000    0.000000    0.000000    0.000000
    0.010000    0.010193    0.010593    0.010928    0.011704    0.012076
    0.012567    0.013600    0.015055    0.015138    0.015820    0.017798
 Highest eigenvalues
    2.041496    2.131279    2.140547    2.172501    2.225379    2.419336
 

........................................................................
.............................. CYCLE   21 ..............................
........................................................................
   1    -84.3475370 -0.843475E+02  0.127E-02    0.21       0.0  T
   2    -84.3475100  0.269774E-04  0.198E-02    0.18       1.0  T
   3    -84.3475503 -0.402166E-04  0.280E-03    0.20       5.5  T
   4    -84.3475510 -0.695014E-06  0.796E-04    0.20      19.4  T
   5    -84.3475509  0.613318E-08  0.486E-04    0.20      31.7  T
   6    -84.3475510 -0.132059E-07  0.117E-04    0.20     132.3  T
   7    -84.3475510 -0.100506E-08  0.533E-05    0.20     289.5  T
     SCC iter.                  ...        0 min,  0.037 sec
     gradient                   ...        0 min,  0.056 sec
 * total energy  :   -83.6138781 Eh     change       -0.9344100E-04 Eh
   gradient norm :     0.0043021 Eh/α   predicted     0.0000000E+00 (-100.00%)
   displ. norm   :     0.0419341 α      lambda       -0.3539817E-04
   maximum displ.:     0.0233103 α      in ANC's #1, #7, #6, ...

........................................................................
.............................. CYCLE   22 ..............................
........................................................................
   1    -84.3483114 -0.843483E+02  0.368E-03    0.20       0.0  T
   2    -84.3483109  0.522645E-06  0.459E-03    0.20       3.4  T
   3    -84.3483124 -0.152397E-05  0.120E-03    0.20      12.9  T
   4    -84.3483124  0.325694E-07  0.115E-03    0.20      13.4  T
   5    -84.3483125 -0.627474E-07  0.231E-04    0.20      66.8  T
   6    -84.3483125 -0.271550E-08  0.481E-05    0.20     321.1  T
   7    -84.3483125 -0.600267E-10  0.158E-05    0.20     974.5  T
     SCC iter.                  ...        0 min,  0.036 sec
     gradient                   ...        0 min,  0.056 sec
 * total energy  :   -83.6139136 Eh     change       -0.3551671E-04 Eh
   gradient norm :     0.0022057 Eh/α   predicted    -0.2151562E-04 ( -39.42%)
   displ. norm   :     0.1218197 α      lambda       -0.7641155E-04
   maximum displ.:     0.0695542 α      in ANC's #1, #6, #7, ...

........................................................................
.............................. CYCLE   23 ..............................
........................................................................
   1    -84.3491998 -0.843492E+02  0.684E-03    0.20       0.0  T
   2    -84.3492014 -0.156801E-05  0.543E-03    0.20       2.8  T
   3    -84.3492024 -0.104548E-05  0.206E-03    0.20       7.5  T
   4    -84.3492023  0.910693E-07  0.229E-03    0.20       6.7  T
   5    -84.3492026 -0.305416E-06  0.471E-04    0.20      32.8  T
   6    -84.3492026 -0.857366E-08  0.946E-05    0.20     163.1  T
   7    -84.3492026 -0.265430E-09  0.233E-05    0.20     661.7  T
     SCC iter.                  ...        0 min,  0.037 sec
     gradient                   ...        0 min,  0.058 sec
 * total energy  :   -83.6139638 Eh     change       -0.5011653E-04 Eh
   gradient norm :     0.0022122 Eh/α   predicted    -0.3877330E-04 ( -22.63%)
   displ. norm   :     0.0997241 α      lambda       -0.3289479E-04
   maximum displ.:     0.0626194 α      in ANC's #1, #6, #2, ...

........................................................................
.............................. CYCLE   24 ..............................
........................................................................
   1    -84.3492213 -0.843492E+02  0.347E-03    0.20       0.0  T
   2    -84.3492217 -0.333819E-06  0.283E-03    0.20       5.4  T
   3    -84.3492222 -0.476804E-06  0.129E-03    0.20      12.0  T
   4    -84.3492222 -0.907533E-07  0.617E-04    0.20      25.0  T
   5    -84.3492223 -0.107047E-07  0.211E-04    0.20      73.3  T
   6    -84.3492223 -0.332975E-09  0.444E-05    0.20     347.6  T
   7    -84.3492223 -0.470379E-10  0.118E-05    0.20    1308.4  T
     SCC iter.                  ...        0 min,  0.037 sec
     gradient                   ...        0 min,  0.056 sec
 * total energy  :   -83.6139908 Eh     change       -0.2703629E-04 Eh
   gradient norm :     0.0030334 Eh/α   predicted    -0.1668969E-04 ( -38.27%)
   displ. norm   :     0.1436643 α      lambda       -0.4731139E-04
   maximum displ.:     0.0905332 α      in ANC's #1, #6, #2, ...

........................................................................
.............................. CYCLE   25 ..............................
........................................................................
   1    -84.3488851 -0.843489E+02  0.394E-03    0.20       0.0  T
   2    -84.3488839  0.123218E-05  0.547E-03    0.20       2.8  T
   3    -84.3488867 -0.281330E-05  0.119E-03    0.20      13.0  T
   4    -84.3488867 -0.334241E-07  0.781E-04    0.20      19.8  T
   5    -84.3488867 -0.215603E-07  0.243E-04    0.20      63.6  T
   6    -84.3488867 -0.127127E-08  0.443E-05    0.20     348.4  T
   7    -84.3488867 -0.389377E-10  0.151E-05    0.20    1020.7  T
     SCC iter.                  ...        0 min,  0.037 sec
     gradient                   ...        0 min,  0.056 sec
 * total energy  :   -83.6140318 Eh     change       -0.4097666E-04 Eh
   gradient norm :     0.0029373 Eh/α   predicted    -0.2414566E-04 ( -41.07%)
   displ. norm   :     0.2264685 α      lambda       -0.7242517E-04
   maximum displ.:     0.1447022 α      in ANC's #1, #6, #2, ...

........................................................................
.............................. CYCLE   26 ..............................
........................................................................
   1    -84.3481118 -0.843481E+02  0.448E-03    0.20       0.0  T
   2    -84.3481105  0.124553E-05  0.593E-03    0.20       2.6  T
   3    -84.3481135 -0.300763E-05  0.145E-03    0.20      10.6  T
   4    -84.3481135  0.145018E-07  0.122E-03    0.20      12.6  T
   5    -84.3481136 -0.588678E-07  0.322E-04    0.20      47.9  T
   6    -84.3481136 -0.231320E-08  0.733E-05    0.20     210.5  T
   7    -84.3481136 -0.978986E-10  0.236E-05    0.20     652.7  T
     SCC iter.                  ...        0 min,  0.038 sec
     gradient                   ...        0 min,  0.057 sec
 * total energy  :   -83.6140905 Eh     change       -0.5871741E-04 Eh
   gradient norm :     0.0030440 Eh/α   predicted    -0.3808936E-04 ( -35.13%)
   displ. norm   :     0.2283215 α      lambda       -0.6677313E-04
   maximum displ.:     0.1518105 α      in ANC's #1, #2, #6, ...

........................................................................
.............................. CYCLE   27 ..............................
........................................................................
   1    -84.3475670 -0.843476E+02  0.314E-03    0.20       0.0  T
   2    -84.3475669  0.107268E-06  0.303E-03    0.20       5.1  T
   3    -84.3475674 -0.505044E-06  0.122E-03    0.20      12.6  T
   4    -84.3475674 -0.486349E-07  0.918E-04    0.20      16.8  T
   5    -84.3475675 -0.369872E-07  0.160E-04    0.20      96.3  T
   6    -84.3475675 -0.589225E-09  0.600E-05    0.20     257.1  T
     SCC iter.                  ...        0 min,  0.034 sec
     gradient                   ...        0 min,  0.058 sec
 * total energy  :   -83.6141438 Eh     change       -0.5335849E-04 Eh
   gradient norm :     0.0037877 Eh/α   predicted    -0.3514953E-04 ( -34.13%)
   displ. norm   :     0.1894062 α      lambda       -0.6626502E-04
   maximum displ.:     0.1343645 α      in ANC's #1, #2, #6, ...

........................................................................
.............................. CYCLE   28 ..............................
........................................................................
   1    -84.3478799 -0.843479E+02  0.304E-03    0.20       0.0  T
   2    -84.3478800 -0.111059E-06  0.204E-03    0.20       7.6  T
   3    -84.3478802 -0.151670E-06  0.149E-03    0.20      10.4  T
   4    -84.3478803 -0.111509E-06  0.587E-04    0.20      26.3  T
   5    -84.3478803 -0.958246E-08  0.195E-04    0.20      79.0  T
   6    -84.3478803 -0.807120E-09  0.434E-05    0.20     355.9  T
     SCC iter.                  ...        0 min,  0.032 sec
     gradient                   ...        0 min,  0.056 sec
 * total energy  :   -83.6141999 Eh     change       -0.5606159E-04 Eh
   gradient norm :     0.0035630 Eh/α   predicted    -0.3432178E-04 ( -38.78%)
   displ. norm   :     0.2253273 α      lambda       -0.7861964E-04
   maximum displ.:     0.1632312 α      in ANC's #1, #2, #4, ...

........................................................................
.............................. CYCLE   29 ..............................
........................................................................
   1    -84.3483827 -0.843484E+02  0.471E-03    0.20       0.0  T
   2    -84.3483804  0.237737E-05  0.679E-03    0.21       2.3  T
   3    -84.3483850 -0.465144E-05  0.119E-03    0.20      12.9  T
   4    -84.3483850 -0.187089E-07  0.633E-04    0.20      24.4  T
   5    -84.3483850 -0.376181E-08  0.257E-04    0.20      60.0  T
   6    -84.3483850 -0.105487E-08  0.437E-05    0.20     353.2  T
   7    -84.3483850 -0.626130E-10  0.155E-05    0.20     994.2  T
     SCC iter.                  ...        0 min,  0.038 sec
     gradient                   ...        0 min,  0.058 sec
 * total energy  :   -83.6142667 Eh     change       -0.6681710E-04 Eh
   gradient norm :     0.0029119 Eh/α   predicted    -0.4130665E-04 ( -38.18%)
   displ. norm   :     0.2814072 α      lambda       -0.8269226E-04
   maximum displ.:     0.2055152 α      in ANC's #1, #2, #4, ...

........................................................................
.............................. CYCLE   30 ..............................
........................................................................
   1    -84.3483885 -0.843484E+02  0.544E-03    0.19       0.0  T
   2    -84.3483841  0.443553E-05  0.877E-03    0.21       1.8  T
   3    -84.3483918 -0.773654E-05  0.982E-04    0.20      15.7  T
   4    -84.3483918 -0.819585E-08  0.594E-04    0.20      26.0  T
   5    -84.3483918 -0.601267E-08  0.238E-04    0.20      65.0  T
   6    -84.3483918 -0.759343E-09  0.575E-05    0.20     268.4  T
   7    -84.3483918 -0.224361E-09  0.149E-05    0.20    1032.3  T
     SCC iter.                  ...        0 min,  0.038 sec
     gradient                   ...        0 min,  0.057 sec
 * total energy  :   -83.6143352 Eh     change       -0.6843010E-04 Eh
   gradient norm :     0.0027245 Eh/α   predicted    -0.4462160E-04 ( -34.79%)
   displ. norm   :     0.2568260 α      lambda       -0.7204145E-04
   maximum displ.:     0.1975734 α      in ANC's #1, #2, #4, ...

........................................................................
.............................. CYCLE   31 ..............................
........................................................................
   1    -84.3490159 -0.843490E+02  0.398E-03    0.19       0.0  T
   2    -84.3490150  0.887680E-06  0.470E-03    0.20       3.3  T
   3    -84.3490169 -0.191408E-05  0.132E-03    0.20      11.7  T
   4    -84.3490170 -0.903320E-07  0.671E-04    0.20      23.0  T
   5    -84.3490170 -0.100549E-07  0.189E-04    0.20      81.6  T
   6    -84.3490170 -0.152441E-08  0.415E-05    0.20     371.7  T
     SCC iter.                  ...        0 min,  0.033 sec
     gradient                   ...        0 min,  0.058 sec
 * total energy  :   -83.6143945 Eh     change       -0.5931982E-04 Eh
   gradient norm :     0.0020537 Eh/α   predicted    -0.3839784E-04 ( -35.27%)
   displ. norm   :     0.2845526 α      lambda       -0.6380428E-04
   maximum displ.:     0.2157391 α      in ANC's #1, #2, #4, ...

........................................................................
.............................. CYCLE   32 ..............................
........................................................................
   1    -84.3483614 -0.843484E+02  0.431E-03    0.19       0.0  T
   2    -84.3483616 -0.278681E-06  0.317E-03    0.20       4.9  T
   3    -84.3483620 -0.319204E-06  0.184E-03    0.19       8.4  T
   4    -84.3483621 -0.162613E-06  0.109E-03    0.20      14.1  T
   5    -84.3483622 -0.766696E-07  0.302E-04    0.20      51.1  T
   6    -84.3483622 -0.336500E-08  0.650E-05    0.20     237.3  T
   7    -84.3483622 -0.194916E-09  0.121E-05    0.20    1271.0  T
     SCC iter.                  ...        0 min,  0.037 sec
     gradient                   ...        0 min,  0.056 sec
 * total energy  :   -83.6144481 Eh     change       -0.5361466E-04 Eh
   gradient norm :     0.0025925 Eh/α   predicted    -0.3448624E-04 ( -35.68%)
   displ. norm   :     0.2742340 α      lambda       -0.7219682E-04
   maximum displ.:     0.2201775 α      in ANC's #1, #2, #4, ...

........................................................................
.............................. CYCLE   33 ..............................
........................................................................
   1    -84.3488126 -0.843488E+02  0.468E-03    0.20       0.0  T
   2    -84.3488133 -0.775845E-06  0.304E-03    0.19       5.1  T
   3    -84.3488137 -0.357775E-06  0.143E-03    0.20      10.8  T
   4    -84.3488137 -0.199315E-07  0.122E-03    0.19      12.7  T
   5    -84.3488138 -0.112776E-06  0.299E-04    0.20      51.6  T
   6    -84.3488138 -0.698023E-09  0.728E-05    0.19     212.1  T
   7    -84.3488138 -0.212523E-09  0.156E-05    0.20     990.8  T
     SCC iter.                  ...        0 min,  0.038 sec
     gradient                   ...        0 min,  0.057 sec
 * total energy  :   -83.6145106 Eh     change       -0.6249700E-04 Eh
   gradient norm :     0.0018086 Eh/α   predicted    -0.3881832E-04 ( -37.89%)
   displ. norm   :     0.4141856 α      lambda       -0.6341439E-04
   maximum displ.:     0.3358448 α      in ANC's #1, #2, #4, ...

........................................................................
.............................. CYCLE   34 ..............................
........................................................................
   1    -84.3484770 -0.843485E+02  0.618E-03    0.20       0.0  T
   2    -84.3484781 -0.105424E-05  0.491E-03    0.19       3.1  T
   3    -84.3484793 -0.122676E-05  0.231E-03    0.20       6.7  T
   4    -84.3484796 -0.326487E-06  0.152E-03    0.19      10.1  T
   5    -84.3484798 -0.135342E-06  0.441E-04    0.19      35.0  T
   6    -84.3484798 -0.280615E-08  0.824E-05    0.19     187.3  T
   7    -84.3484798 -0.285922E-09  0.194E-05    0.19     796.9  T
     SCC iter.                  ...        0 min,  0.037 sec
     gradient                   ...        0 min,  0.055 sec
 * total energy  :   -83.6145850 Eh     change       -0.7445035E-04 Eh
   gradient norm :     0.0026470 Eh/α   predicted    -0.3412685E-04 ( -54.16%)
   displ. norm   :     0.1473047 α      lambda       -0.4139868E-04
   maximum displ.:     0.1274302 α      in ANC's #1, #2, #4, ...

........................................................................
.............................. CYCLE   35 ..............................
........................................................................
   1    -84.3494821 -0.843495E+02  0.310E-03    0.19       0.0  T
   2    -84.3494823 -0.154301E-06  0.181E-03    0.19       8.5  T
   3    -84.3494822  0.117003E-07  0.136E-03    0.19      11.3  T
   4    -84.3494822 -0.437225E-09  0.102E-03    0.20      15.1  T
   5    -84.3494823 -0.946414E-07  0.203E-04    0.19      76.1  T
   6    -84.3494823 -0.261016E-08  0.393E-05    0.19     393.0  T
   7    -84.3494823 -0.363656E-10  0.103E-05    0.19    1494.6  T
     SCC iter.                  ...        0 min,  0.037 sec
     gradient                   ...        0 min,  0.056 sec
 * total energy  :   -83.6146166 Eh     change       -0.3155738E-04 Eh
   gradient norm :     0.0021141 Eh/α   predicted    -0.2115031E-04 ( -32.98%)
   displ. norm   :     0.1573254 α      lambda       -0.3624764E-04
   maximum displ.:     0.1325847 α      in ANC's #1, #4, #8, ...

........................................................................
.............................. CYCLE   36 ..............................
........................................................................
   1    -84.3495071 -0.843495E+02  0.226E-03    0.19       0.0  T
   2    -84.3495068  0.373275E-06  0.256E-03    0.20       6.0  T
   3    -84.3495074 -0.607442E-06  0.103E-03    0.19      14.9  T
   4    -84.3495074 -0.679727E-07  0.361E-04    0.19      42.8  T
   5    -84.3495074 -0.154486E-09  0.157E-04    0.19      98.6  T
   6    -84.3495074 -0.134528E-08  0.250E-05    0.19     616.3  T
     SCC iter.                  ...        0 min,  0.019 sec
     gradient                   ...        0 min,  0.036 sec
 * total energy  :   -83.6146493 Eh     change       -0.3271168E-04 Eh
   gradient norm :     0.0014873 Eh/α   predicted    -0.1857329E-04 ( -43.22%)
   displ. norm   :     0.3165007 α      lambda       -0.4576654E-04
   maximum displ.:     0.2665869 α      in ANC's #1, #4, #8, ...

........................................................................
.............................. CYCLE   37 ..............................
........................................................................
   1    -84.3488289 -0.843488E+02  0.527E-03    0.19       0.0  T
   2    -84.3488260  0.286341E-05  0.670E-03    0.20       2.3  T
   3    -84.3488305 -0.450236E-05  0.195E-03    0.19       7.9  T
   4    -84.3488308 -0.219125E-06  0.704E-04    0.19      21.9  T
   5    -84.3488308  0.134744E-08  0.312E-04    0.19      49.5  T
   6    -84.3488308 -0.552564E-08  0.620E-05    0.19     249.1  T
   7    -84.3488308 -0.709974E-10  0.151E-05    0.19    1022.8  T
     SCC iter.                  ...        0 min,  0.029 sec
     gradient                   ...        0 min,  0.057 sec
 * total energy  :   -83.6147001 Eh     change       -0.5075299E-04 Eh
   gradient norm :     0.0015843 Eh/α   predicted    -0.2390318E-04 ( -52.90%)
   displ. norm   :     0.1984543 α      lambda       -0.2325179E-04
   maximum displ.:     0.1707434 α      in ANC's #1, #4, #8, ...

........................................................................
.............................. CYCLE   38 ..............................
........................................................................
   1    -84.3491536 -0.843492E+02  0.218E-03    0.19       0.0  T
   2    -84.3491536  0.149900E-07  0.181E-03    0.19       8.5  T
   3    -84.3491537 -0.128172E-06  0.115E-03    0.19      13.4  T
   4    -84.3491538 -0.943765E-07  0.529E-04    0.19      29.2  T
   5    -84.3491538 -0.108389E-07  0.131E-04    0.19     117.5  T
   6    -84.3491538 -0.760153E-09  0.412E-05    0.19     374.8  T
     SCC iter.                  ...        0 min,  0.034 sec
     gradient                   ...        0 min,  0.062 sec
 * total energy  :   -83.6147277 Eh     change       -0.2761729E-04 Eh
   gradient norm :     0.0015188 Eh/α   predicted    -0.1183195E-04 ( -57.16%)
   displ. norm   :     0.1838269 α      lambda       -0.1925087E-04
   maximum displ.:     0.1561818 α      in ANC's #1, #4, #8, ...

........................................................................
.............................. CYCLE   39 ..............................
........................................................................
   1    -84.3492557 -0.843493E+02  0.318E-03    0.20       0.0  T
   2    -84.3492547  0.104768E-05  0.416E-03    0.19       3.7  T
   3    -84.3492564 -0.174423E-05  0.126E-03    0.20      12.3  T
   4    -84.3492565 -0.105835E-06  0.412E-04    0.19      37.5  T
   5    -84.3492565 -0.661544E-09  0.160E-04    0.19      96.5  T
   6    -84.3492565 -0.591626E-09  0.457E-05    0.19     337.8  T
     SCC iter.                  ...        0 min,  0.035 sec
     gradient                   ...        0 min,  0.063 sec
 * total energy  :   -83.6147513 Eh     change       -0.2361835E-04 Eh
   gradient norm :     0.0013590 Eh/α   predicted    -0.9770711E-05 ( -58.63%)
   displ. norm   :     0.2124557 α      lambda       -0.2076365E-04
   maximum displ.:     0.1787341 α      in ANC's #1, #4, #8, ...

........................................................................
.............................. CYCLE   40 ..............................
........................................................................
   1    -84.3492974 -0.843493E+02  0.508E-03    0.20       0.0  T
   2    -84.3492933  0.406986E-05  0.734E-03    0.19       2.1  T
   3    -84.3492993 -0.600211E-05  0.169E-03    0.20       9.1  T
   4    -84.3492995 -0.175291E-06  0.662E-04    0.20      23.3  T
   5    -84.3492995 -0.214893E-07  0.209E-04    0.20      73.8  T
   6    -84.3492995 -0.925695E-09  0.450E-05    0.20     343.2  T
   7    -84.3492995 -0.213589E-10  0.211E-05    0.20     729.8  T
     SCC iter.                  ...        0 min,  0.041 sec
     gradient                   ...        0 min,  0.070 sec
 * total energy  :   -83.6147749 Eh     change       -0.2357177E-04 Eh
   gradient norm :     0.0013860 Eh/α   predicted    -0.1059150E-04 ( -55.07%)
   displ. norm   :     0.2022574 α      lambda       -0.1837296E-04
   maximum displ.:     0.1688757 α      in ANC's #1, #4, #7, ...

........................................................................
.............................. CYCLE   41 ..............................
........................................................................
   1    -84.3496599 -0.843497E+02  0.634E-03    0.20       0.0  T
   2    -84.3496528  0.711507E-05  0.996E-03    0.19       1.5  T
   3    -84.3496633 -0.105128E-04  0.142E-03    0.20      10.8  T
   4    -84.3496634 -0.127235E-06  0.472E-04    0.20      32.7  T
   5    -84.3496634  0.180904E-09  0.149E-04    0.20     103.6  T
   6    -84.3496634 -0.119056E-08  0.321E-05    0.20     480.5  T
     SCC iter.                  ...        0 min,  0.035 sec
     gradient                   ...        0 min,  0.063 sec
 * total energy  :   -83.6147943 Eh     change       -0.1944133E-04 Eh
   gradient norm :     0.0014448 Eh/α   predicted    -0.9355312E-05 ( -51.88%)
   displ. norm   :     0.1832571 α      lambda       -0.1328519E-04
   maximum displ.:     0.1522043 α      in ANC's #1, #4, #7, ...

........................................................................
.............................. CYCLE   42 ..............................
........................................................................
   1    -84.3493466 -0.843493E+02  0.464E-03    0.20       0.0  T
   2    -84.3493432  0.343137E-05  0.719E-03    0.19       2.1  T
   3    -84.3493487 -0.546431E-05  0.104E-03    0.20      14.9  T
   4    -84.3493487 -0.392103E-07  0.495E-04    0.20      31.2  T
   5    -84.3493487 -0.122786E-08  0.203E-04    0.20      76.1  T
   6    -84.3493487 -0.132518E-08  0.429E-05    0.20     359.4  T
   7    -84.3493487 -0.642615E-10  0.116E-05    0.20    1334.9  T
     SCC iter.                  ...        0 min,  0.040 sec
     gradient                   ...        0 min,  0.061 sec
 * total energy  :   -83.6148088 Eh     change       -0.1453885E-04 Eh
   gradient norm :     0.0014763 Eh/α   predicted    -0.6745183E-05 ( -53.61%)
   displ. norm   :     0.1872717 α      lambda       -0.1323223E-04
   maximum displ.:     0.1553900 α      in ANC's #1, #7, #2, ...
 * RMSD in coord.:     0.6453093 α      energy gain  -0.1024163E-02 Eh

generating ANC from model Hessian ...
Using Lindh-Hessian (1995)
 Shifting diagonal of input Hessian by   9.774099353471608E-003
 Lowest  eigenvalues of input Hessian
    0.000000    0.000000    0.000000    0.000000    0.000000    0.000000
    0.010000    0.010192    0.010589    0.010939    0.011776    0.012120
    0.012530    0.013620    0.015006    0.015282    0.015881    0.017856
 Highest eigenvalues
    2.037032    2.130991    2.140219    2.175716    2.230815    2.419810
 

........................................................................
.............................. CYCLE   43 ..............................
........................................................................
   1    -84.3495749 -0.843496E+02  0.280E-03    0.20       0.0  T
   2    -84.3495751 -0.190434E-06  0.170E-03    0.20       9.1  T
   3    -84.3495752 -0.981144E-07  0.122E-03    0.20      12.6  T
   4    -84.3495753 -0.119255E-06  0.379E-04    0.20      40.7  T
   5    -84.3495753 -0.852850E-09  0.221E-04    0.20      69.8  T
   6    -84.3495753 -0.137706E-08  0.322E-05    0.20     478.8  T
   7    -84.3495753 -0.266880E-10  0.138E-05    0.20    1118.1  T
     SCC iter.                  ...        0 min,  0.041 sec
     gradient                   ...        0 min,  0.063 sec
 * total energy  :   -83.6148229 Eh     change       -0.1404786E-04 Eh
   gradient norm :     0.0013309 Eh/α   predicted     0.0000000E+00 (-100.00%)
   displ. norm   :     0.0208172 α      lambda       -0.4644605E-05
   maximum displ.:     0.0103063 α      in ANC's #1, #8, #2, ...

........................................................................
.............................. CYCLE   44 ..............................
........................................................................
   1    -84.3497063 -0.843497E+02  0.342E-03    0.20       0.0  T
   2    -84.3497044  0.189830E-05  0.532E-03    0.20       2.9  T
   3    -84.3497074 -0.298870E-05  0.465E-04    0.20      33.2  T
   4    -84.3497074 -0.314806E-08  0.220E-04    0.20      70.3  T
   5    -84.3497074 -0.191221E-09  0.583E-05    0.20     264.5  T
   6    -84.3497074 -0.127130E-09  0.177E-05    0.20     870.2  T
     SCC iter.                  ...        0 min,  0.035 sec
     gradient                   ...        0 min,  0.063 sec
 * total energy  :   -83.6148283 Eh     change       -0.5410912E-05 Eh
   gradient norm :     0.0006775 Eh/α   predicted    -0.2689796E-05 ( -50.29%)
   displ. norm   :     0.0462537 α      lambda       -0.6637481E-05
   maximum displ.:     0.0225342 α      in ANC's #1, #8, #2, ...

........................................................................
.............................. CYCLE   45 ..............................
........................................................................
   1    -84.3497330 -0.843497E+02  0.524E-03    0.19       0.0  T
   2    -84.3497280  0.501280E-05  0.852E-03    0.21       1.8  T
   3    -84.3497357 -0.775497E-05  0.522E-04    0.20      29.5  T
   4    -84.3497357 -0.464368E-09  0.304E-04    0.20      50.7  T
   5    -84.3497357 -0.108645E-08  0.996E-05    0.20     154.9  T
   6    -84.3497357 -0.379302E-09  0.254E-05    0.20     606.3  T
     SCC iter.                  ...        0 min,  0.035 sec
     gradient                   ...        0 min,  0.063 sec
 * total energy  :   -83.6148343 Eh     change       -0.6030143E-05 Eh
   gradient norm :     0.0009707 Eh/α   predicted    -0.3331316E-05 ( -44.76%)
   displ. norm   :     0.0469639 α      lambda       -0.4219981E-05
   maximum displ.:     0.0255068 α      in ANC's #1, #8, #2, ...

........................................................................
.............................. CYCLE   46 ..............................
........................................................................
   1    -84.3495758 -0.843496E+02  0.293E-03    0.19       0.0  T
   2    -84.3495742  0.162188E-05  0.474E-03    0.20       3.3  T
   3    -84.3495767 -0.244912E-05  0.449E-04    0.20      34.4  T
   4    -84.3495767 -0.318749E-08  0.236E-04    0.20      65.4  T
   5    -84.3495767 -0.100046E-08  0.748E-05    0.20     206.2  T
   6    -84.3495767 -0.196835E-09  0.235E-05    0.20     655.8  T
     SCC iter.                  ...        0 min,  0.035 sec
     gradient                   ...        0 min,  0.063 sec
 * total energy  :   -83.6148387 Eh     change       -0.4375154E-05 Eh
   gradient norm :     0.0009168 Eh/α   predicted    -0.2113194E-05 ( -51.70%)
   displ. norm   :     0.0512427 α      lambda       -0.3556331E-05
   maximum displ.:     0.0293071 α      in ANC's #1, #8, #2, ...

   *** GEOMETRY OPTIMIZATION CONVERGED AFTER 46 ITERATIONS ***

------------------------------------------------------------------------
 total energy gain   :        -0.0281975 Eh      -17.6942 kcal/mol
 total RMSD          :         1.1200272 a0        0.5927 Å
 total power (kW/mol):        -1.6094036 (step)  -12.6931 (real)
------------------------------------------------------------------------

 ANCopt (total)                0 d,  0 h,  0 min,  5.833 sec
 optimizer setup                ...        0 min,  0.001 sec (  0.011%)
 model hessian                  ...        0 min,  0.063 sec (  1.085%)
 ANC generation                 ...        0 min,  0.008 sec (  0.137%)
 coordinate transformation      ...        0 min,  0.001 sec (  0.018%)
 single point calculation       ...        0 min,  5.742 sec ( 98.455%)
 optimization log               ...        0 min,  0.009 sec (  0.155%)
 hessian update                 ...        0 min,  0.001 sec (  0.017%)
 rational function              ...        0 min,  0.004 sec (  0.072%)

================
 final structure:
================
42
 xtb: 6.5.1 (579679a)
C           -3.27304617624731        2.58483867523750        2.79069623625331
O           -3.36663261506935        1.61290309731201        1.77418037337428
C           -2.13173549881575        1.14048417587487        1.28787873994746
O           -1.09151842878685        1.61748964495525        1.79710025633744
C           -2.20530908128414        0.14976792187566        0.29922565185902
N           -0.96769449929972       -0.20636559664721       -0.19543993483355
C           -0.81128259782481       -1.12589612250011       -1.07432386255028
C            0.56922668466791       -1.43295212318214       -1.62917531650318
C            0.60139875268166       -1.22197111830624       -3.15123298119231
C            1.00786703345327       -2.86393667451101       -1.27726246666598
N            1.46448283212577       -0.47793329253253       -0.97679935787964
C            2.78172620876515       -0.38839615068245       -1.17584189492663
O            3.44168981338462       -1.06795560903611       -1.95741778675567
C            3.38807547796724        0.66975831638633       -0.32307442299785
N            2.75959419534790        1.44434896471996        0.51054184146941
N            3.69703765328380        2.25939148670762        1.07613278802601
C            4.83550426285189        1.93153605449388        0.55316846844593
C            6.16166162342643        2.52353893731989        0.83783885569370
O            4.71313039152722        0.93518046889852       -0.33907749201850
N           -1.88182264518392       -1.90893545247280       -1.54407008776964
C           -3.13445585695184       -1.77495135951656       -1.00142845055777
O           -3.93599588405842       -2.70909268521693       -1.12953650399608
C           -3.48547128673555       -0.35047950424427       -0.44388876832419
C           -4.65869642597781       -0.57531153110598        0.57472195897591
O           -3.83570378572036        0.40590476550337       -1.49616702396664
H           -4.28963171588624        2.86742087758990        3.07136635038056
H           -2.75456111103590        2.19385968519824        3.67633828167999
H           -2.73576197294878        3.47936567166554        2.44725280326049
H           -0.12796045549986       -1.87739086717180       -3.62418783802371
H            1.58789468763984       -1.45393928457194       -3.54865250922228
H            0.35690334878536       -0.18703827744827       -3.39093686699709
H            2.01376179715171       -3.05455933850114       -1.64733441595286
H            0.33061338814127       -3.58237291012079       -1.73492136982840
H            0.99480385653776       -3.00328144626317       -0.19684655977367
H            1.00861175882174        0.12095259082043       -0.27902731943726
H            6.06566652877414        3.27694654996261        1.61564603792626
H            6.56897259943041        2.98202430853514       -0.06248416568017
H            6.85510432037358        1.74947273212677        1.16437233313412
H           -1.67042299051268       -2.79702860168727       -1.96638239288574
H           -4.29919632352484       -1.00473244800970        1.51079705131243
H           -5.15579542444604        0.37185295431824        0.77539947450239
H           -5.39103143932275       -1.25251748577466        0.13198128615235
 
 Bond Distances (Angstroems)
 ---------------------------
C1-O2=1.4095         C1-H26=1.0918        C1-H27=1.0982        C1-H28=1.0985        O2-C1=1.4095         O2-C3=1.4088         
C3-O2=1.4088         C3-O4=1.2526         C3-C5=1.4016         O4-C3=1.2526         C5-C3=1.4016         C5-N6=1.3796         
C5-C23=1.5625        N6-C5=1.3796         N6-C7=1.2816         C7-N6=1.2816         C7-C8=1.5192         C7-N20=1.4071        
C8-C7=1.5192         C8-C9=1.5369         C8-C10=1.5375        C8-N11=1.4626        C9-C8=1.5369         C9-H29=1.0887        
C9-H30=1.0885        C9-H31=1.0901        C10-C8=1.5375        C10-H32=1.0886       C10-H33=1.0882       C10-H34=1.0894       
N11-C8=1.4626        N11-C12=1.3352       N11-H35=1.0263       C12-N11=1.3352       C12-O13=1.2281       C12-C14=1.4881       
O13-C12=1.2281       C14-C12=1.4881       C14-N15=1.3000       C14-O19=1.3515       N15-C14=1.3000       N15-N16=1.3649       
N16-N15=1.3649       N16-C17=1.2950       C17-N16=1.2950       C17-C18=1.4799       C17-O19=1.3431       C18-C17=1.4799       
C18-H36=1.0871       C18-H37=1.0894       C18-H38=1.0893       O19-C14=1.3515       O19-C17=1.3431       N20-C7=1.4071        
N20-C21=1.3717       N20-H39=1.0059       C21-N20=1.3717       C21-O22=1.2375       C21-C23=1.5695       O22-C21=1.2375       
C23-C5=1.5625        C23-C21=1.5695       C23-C24=1.5699       C23-O25=1.3424       C24-C23=1.5699       C24-H40=1.0908       
C24-H41=1.0883       C24-H42=1.0913       O25-C23=1.3424       H26-C1=1.0918        H27-C1=1.0982        H28-C1=1.0985        
H29-C9=1.0887        H30-C9=1.0885        H31-C9=1.0901        H32-C10=1.0886       H33-C10=1.0882       H34-C10=1.0894       
H35-N11=1.0263       H36-C18=1.0871       H37-C18=1.0894       H38-C18=1.0893       H39-N20=1.0059       H40-C24=1.0908       
H41-C24=1.0883       H42-C24=1.0913       
 C  H  Rav=1.0906 sigma=0.0033  Rmin=1.0871  Rmax=1.0985    15
 C  C  Rav=1.5183 sigma=0.0516  Rmin=1.4016  Rmax=1.5699     9
 N  H  Rav=1.0161 sigma=0.0102  Rmin=1.0059  Rmax=1.0263     2
 N  C  Rav=1.3541 sigma=0.0587  Rmin=1.2816  Rmax=1.4626     8
 N  N  Rav=1.3649 sigma=0.0000  Rmin=1.3649  Rmax=1.3649     1
 O  C  Rav=1.3217 sigma=0.0686  Rmin=1.2281  Rmax=1.4095     8
 
 selected bond angles (degree)
 --------------------
H26-C1-O2=107.58               H27-C1-O2=111.56               H27-C1-H26=108.93              H28-C1-O2=111.62               
H28-C1-H26=108.97              H28-C1-H27=108.13              C3-O2-C1=114.96                O4-C3-O2=117.38                
C5-C3-O2=115.76                C5-C3-O4=126.84                N6-C5-C3=112.85                C23-C5-C3=127.22               
C23-C5-N6=118.81               C7-N6-C5=122.72                C8-C7-N6=120.42                N20-C7-N6=122.37               
N20-C7-C8=117.19               C9-C8-C7=110.67                C10-C8-C7=111.33               C10-C8-C9=110.39               
N11-C8-C7=105.15               N11-C8-C9=109.83               N11-C8-C10=109.33              H29-C9-C8=109.48               
H30-C9-C8=110.57               H30-C9-H29=108.68              H31-C9-C8=110.08               H31-C9-H29=109.01              
H31-C9-H30=108.98              H32-C10-C8=110.41              H33-C10-C8=109.92              H33-C10-H32=108.45             
H34-C10-C8=110.04              H34-C10-H32=109.01             H34-C10-H33=108.98             
 
 selected dihedral angles (degree)
 ---------------------------------
C3-O2-C1-H26=179.68           C3-O2-C1-H27=299.09           C3-O2-C1-H28= 60.18           O4-C3-O2-C1=  0.15            
C5-C3-O2-C1=178.51            N6-C5-C3-O2=176.03            N6-C5-C3-O4=354.21            C23-C5-C3-O2=  8.45           
C23-C5-C3-O4=186.63           C7-N6-C5-C3=177.63            C7-N6-C5-C23=346.35           C8-C7-N6-C5=177.22            
N20-C7-N6-C5=355.75           C9-C8-C7-N6=239.91            C9-C8-C7-N20= 61.31           C10-C8-C7-N6=116.74           
C10-C8-C7-N20=298.13          N11-C8-C7-N6=358.46           N11-C8-C7-N20=179.85          H29-C9-C8-C7=300.39           
H29-C9-C8-C10= 64.10          H29-C9-C8-N11=184.73          H30-C9-C8-C7=180.68           H30-C9-C8-C10=304.39          
H30-C9-C8-N11= 65.02          H31-C9-C8-C7= 60.21           H31-C9-C8-C10=183.92          H31-C9-C8-N11=304.55          
H32-C10-C8-C7=182.25          H32-C10-C8-C9= 58.92          H32-C10-C8-N11=297.99         H33-C10-C8-C7= 62.65          
H33-C10-C8-C9=299.32          H33-C10-C8-N11=178.39         H34-C10-C8-C7=302.63          H34-C10-C8-C9=179.30          
H34-C10-C8-N11= 58.37         
           -------------------------------------------------
          |                Final Singlepoint                |
           -------------------------------------------------

          ...................................................
          :                      SETUP                      :
          :.................................................:
          :  # basis functions                 134          :
          :  # atomic orbitals                 134          :
          :  # shells                           84          :
          :  # electrons                       136          :
          :  # halogen bonds                     0          :
          :  max. iterations                   250          :
          :  Hamiltonian                  GFN1-xTB          :
          :  restarted?                      false          :
          :  GBSA solvation                   true          :
          :  PC potential                    false          :
          :  electronic temp.          300.0000000     K    :
          :  accuracy                    1.0000000          :
          :  -> integral cutoff          0.2500000E+02      :
          :  -> integral neglect         0.1000000E-07      :
          :  -> SCF convergence          0.1000000E-05 Eh   :
          :  -> wf. convergence          0.2000000E-04 e    :
          :  Broyden damping             0.4000000          :
          ...................................................

 iter      E             dE          RMSdq      gap      omega  full diag
   1    -84.3495767 -0.843496E+02  0.675E-06    0.20       0.0  T
   2    -84.3495767 -0.710543E-13  0.349E-06    0.20    4415.0  T
   3    -84.3495767  0.753175E-12  0.408E-06    0.20    3781.8  T

   *** convergence criteria satisfied after 3 iterations ***

         #    Occupation            Energy/Eh            Energy/eV
      -------------------------------------------------------------
         1        2.0000           -0.8479561             -23.0741
       ...           ...                  ...                  ...
        62        2.0000           -0.3996085             -10.8739
        63        2.0000           -0.3926158             -10.6836
        64        2.0000           -0.3832336             -10.4283
        65        2.0000           -0.3724934             -10.1361
        66        2.0000           -0.3067011              -8.3458
        67        1.9962           -0.2993401              -8.1455
        68        1.9580           -0.2970459              -8.0830 (HOMO)
        69        0.0458           -0.2898299              -7.8867 (LUMO)
        70                         -0.2434519              -6.6247
        71                         -0.2125854              -5.7847
        72                         -0.1774130              -4.8277
        73                         -0.1718376              -4.6759
       ...                                ...                  ...
       134                          0.7262147              19.7613
      -------------------------------------------------------------
                  HL-Gap            0.0072160 Eh            0.1964 eV
             Fermi-level           -0.2933955 Eh           -7.9837 eV

 SCC (total)                   0 d,  0 h,  0 min,  0.111 sec
 SCC setup                      ...        0 min,  0.002 sec (  1.681%)
 Dispersion                     ...        0 min,  0.000 sec (  0.218%)
 classical contributions        ...        0 min,  0.000 sec (  0.078%)
 integral evaluation            ...        0 min,  0.027 sec ( 24.367%)
 iterations                     ...        0 min,  0.018 sec ( 16.106%)
 molecular gradient             ...        0 min,  0.062 sec ( 56.267%)
 printout                       ...        0 min,  0.001 sec (  1.257%)

         :::::::::::::::::::::::::::::::::::::::::::::::::::::
         ::                     SUMMARY                     ::
         :::::::::::::::::::::::::::::::::::::::::::::::::::::
         :: total energy             -83.614838710797 Eh    ::
         :: total w/o Gsasa/hb       -83.596029861043 Eh    ::
         :: gradient norm              0.000917313538 Eh/a0 ::
         :: HOMO-LUMO gap              0.196356651862 eV    ::
         ::.................................................::
         :: SCC energy               -84.349576671770 Eh    ::
         :: -> electrostatic           0.761503425339 Eh    ::
         :: -> Gsolv                  -0.303015104104 Eh    ::
         ::    -> Gelec               -0.284206254350 Eh    ::
         ::    -> Gsasa               -0.023887106706 Eh    ::
         ::    -> Ghb                 -0.002546022053 Eh    ::
         ::    -> Gshift               0.007624279005 Eh    ::
         :: repulsion energy           0.760624559421 Eh    ::
         :: dispersion energy         -0.025886598449 Eh    ::
         :: halogen bond corr.         0.000000000000 Eh    ::
         :: add. restraining           0.000000000000 Eh    ::
         :: total charge              -2.000000000000 e     ::
         :::::::::::::::::::::::::::::::::::::::::::::::::::::

           -------------------------------------------------
          |                Property Printout                |
           -------------------------------------------------

    * Orbital Energies and Occupations

         #    Occupation            Energy/Eh            Energy/eV
      -------------------------------------------------------------
         1        2.0000           -0.8479561             -23.0741
       ...           ...                  ...                  ...
        56        2.0000           -0.4426932             -12.0463
        57        2.0000           -0.4365213             -11.8784
        58        2.0000           -0.4314912             -11.7415
        59        2.0000           -0.4248492             -11.5607
        60        2.0000           -0.4201563             -11.4330
        61        2.0000           -0.4151327             -11.2963
        62        2.0000           -0.3996085             -10.8739
        63        2.0000           -0.3926158             -10.6836
        64        2.0000           -0.3832336             -10.4283
        65        2.0000           -0.3724934             -10.1361
        66        2.0000           -0.3067011              -8.3458
        67        1.9962           -0.2993401              -8.1455
        68        1.9580           -0.2970459              -8.0830 (HOMO)
        69        0.0458           -0.2898299              -7.8867 (LUMO)
        70                         -0.2434519              -6.6247
        71                         -0.2125854              -5.7847
        72                         -0.1774130              -4.8277
        73                         -0.1718376              -4.6759
        74                         -0.1378665              -3.7515
        75                         -0.1139136              -3.0997
        76                         -0.1103824              -3.0037
        77                         -0.1047946              -2.8516
        78                         -0.1015172              -2.7624
        79                         -0.0753872              -2.0514
       ...                                ...                  ...
       134                          0.7262147              19.7613
      -------------------------------------------------------------
                  HL-Gap            0.0072160 Eh            0.1964 eV
             Fermi-level           -0.2933955 Eh           -7.9837 eV

  Mulliken/CM5 charges         n(s)   n(p)   n(d)
     1C     0.18726  0.06949   0.960  2.852  0.000
     2O    -0.47853 -0.56575   1.700  4.779  0.000
     3C     0.48137  0.54072   0.980  2.539  0.000
     4O    -0.71084 -0.75284   1.750  4.961  0.000
     5C    -0.07167  0.00243   1.055  3.017  0.000
     6N    -0.39084 -0.58359   1.532  3.859  0.000
     7C     0.19218  0.33862   0.989  2.818  0.000
     8C     0.15128  0.19158   1.064  2.784  0.000
     9C    -0.09800 -0.23738   1.015  3.083  0.000
    10C    -0.10347 -0.24331   1.017  3.087  0.000
    11N    -0.32153 -0.66661   1.433  3.889  0.000
    12C     0.45222  0.56303   0.972  2.576  0.000
    13O    -0.60562 -0.64963   1.731  4.875  0.000
    14C     0.32551  0.45077   1.013  2.661  0.000
    15N    -0.24640 -0.35608   1.568  3.678  0.000
    16N    -0.27599 -0.38419   1.566  3.710  0.000
    17C     0.38138  0.49052   1.003  2.615  0.000
    18C    -0.11058 -0.24807   1.010  3.100  0.000
    19O    -0.35154 -0.40256   1.695  4.657  0.000
    20N    -0.34622 -0.68846   1.435  3.911  0.000
    21C     0.42588  0.52677   1.042  2.532  0.000
    22O    -0.65386 -0.69659   1.747  4.907  0.000
    23C     0.25891  0.28606   1.029  2.712  0.000
    24C    -0.10955 -0.24934   1.016  3.094  0.000
    25O    -0.86344 -0.90004   1.776  5.087  0.000
    26H     0.00996  0.06991   0.990  0.000  0.000
    27H     0.01026  0.07158   0.990  0.000  0.000
    28H     0.01052  0.07184   0.989  0.000  0.000
    29H     0.03114  0.08748   0.969  0.000  0.000
    30H     0.04044  0.09980   0.960  0.000  0.000
    31H     0.03011  0.08664   0.970  0.000  0.000
    32H     0.04374  0.10342   0.956  0.000  0.000
    33H     0.03228  0.08822   0.968  0.000  0.000
    34H     0.03059  0.08714   0.969  0.000  0.000
    35H     0.23284  0.44657   0.767  0.000  0.000
    36H     0.06340  0.11927   0.937  0.000  0.000
    37H     0.07220  0.12667   0.928  0.000  0.000
    38H     0.07203  0.12662   0.928  0.000  0.000
    39H     0.21745  0.41969   0.783  0.000  0.000
    40H    -0.01796  0.03791   1.018  0.000  0.000
    41H     0.00310  0.06292   0.997  0.000  0.000
    42H     0.00001  0.05880   1.000  0.000  0.000

Wiberg/Mayer (AO) data.
largest (>0.10) Wiberg bond orders for each atom

 ---------------------------------------------------------------------------
     #   Z sym  total        # sym  WBO       # sym  WBO       # sym  WBO
 ---------------------------------------------------------------------------
     1   6 C    3.923 --    26 H    0.987    27 H    0.980    28 H    0.980
                             2 O    0.954
     2   8 O    2.080 --     1 C    0.954     3 C    0.929
     3   6 C    3.850 --     4 O    1.437     5 C    1.344     2 O    0.929
     4   8 O    1.742 --     3 C    1.437     5 C    0.111
     5   6 C    3.833 --     3 C    1.344     6 N    1.174    23 C    0.919
                             4 O    0.111
     6   7 N    3.086 --     7 C    1.617     5 C    1.174
     7   6 C    3.901 --     6 N    1.617    20 N    1.013     8 C    0.974
     8   6 C    3.929 --     9 C    0.984    10 C    0.983     7 C    0.974
                            11 N    0.923
     9   6 C    3.991 --    31 H    0.986    29 H    0.986     8 C    0.984
                            30 H    0.983
    10   6 C    3.990 --    34 H    0.986    33 H    0.984     8 C    0.983
                            32 H    0.982
    11   7 N    3.380 --    12 C    1.301     8 C    0.923    35 H    0.868
                            13 O    0.184
    12   6 C    3.912 --    13 O    1.542    11 N    1.301    14 C    0.990
    13   8 O    1.858 --    12 C    1.542    11 N    0.184
    14   6 C    3.847 --    15 N    1.604    19 O    1.050    12 C    0.990
    15   7 N    2.987 --    14 C    1.604    16 N    1.189
    16   7 N    2.981 --    17 C    1.619    15 N    1.189
    17   6 C    3.870 --    16 N    1.619    19 O    1.077    18 C    1.029
    18   6 C    3.989 --    17 C    1.029    36 H    0.983    38 H    0.967
                            37 H    0.965
    19   8 O    2.307 --    17 C    1.077    14 C    1.050
    20   7 N    3.348 --    21 C    1.167     7 C    1.013    39 H    0.913
                            22 O    0.115
    21   6 C    3.814 --    22 O    1.562    20 N    1.167    23 C    0.880
    22   8 O    1.832 --    21 C    1.562    20 N    0.115
    23   6 C    3.964 --    25 O    1.123    24 C    0.945     5 C    0.919
                            21 C    0.880
    24   6 C    3.988 --    40 H    0.991    41 H    0.987    42 H    0.986
                            23 C    0.945
    25   8 O    1.424 --    23 C    1.123
    26   1 H    1.020 --     1 C    0.987
    27   1 H    1.023 --     1 C    0.980
    28   1 H    1.023 --     1 C    0.980
    29   1 H    1.006 --     9 C    0.986
    30   1 H    1.013 --     9 C    0.983
    31   1 H    1.008 --     9 C    0.986
    32   1 H    1.012 --    10 C    0.982
    33   1 H    1.005 --    10 C    0.984
    34   1 H    1.008 --    10 C    0.986
    35   1 H    0.992 --    11 N    0.868
    36   1 H    1.000 --    18 C    0.983
    37   1 H    0.998 --    18 C    0.965
    38   1 H    0.998 --    18 C    0.967
    39   1 H    0.968 --    20 N    0.913
    40   1 H    1.017 --    24 C    0.991
    41   1 H    1.034 --    24 C    0.987
    42   1 H    1.026 --    24 C    0.986
 ---------------------------------------------------------------------------

Topologies differ in total number of bonds
Writing topology from bond orders to xtbtopo.mol

 dipole moment from electron density (au)
     X       Y       Z   
   9.5019  -0.3629   1.7929  total (Debye):   24.595

           -------------------------------------------------
          |                Geometry Summary                 |
           -------------------------------------------------

      molecular mass/u    :      351.3152409
   center of mass at/Å    :        0.0026555       0.0520021      -0.2400772
  moments of inertia/u·Å² :        0.1508491E+04   0.3848722E+04   0.5122115E+04
rotational constants/cm⁻¹ :        0.1117516E-01   0.4380060E-02   0.3291147E-02

 * 33 selected distances

     #   Z          #   Z                                           value/Å
     1   6 C        2   8 O                                       1.4095113
     3   6 C        5   6 C                                       1.4015588
     6   7 N        7   6 C                                       1.2815765
     8   6 C        9   6 C                                       1.5369476
     8   6 C       10   6 C                                       1.5375192 (max)
     8   6 C       11   7 N                                       1.4625797
    11   7 N       12   6 C                                       1.3352023
    12   6 C       13   8 O                                       1.2280937
    14   6 C       15   7 N                                       1.2999599
    16   7 N       17   6 C                                       1.2950241
    17   6 C       18   6 C                                       1.4799319
    14   6 C       19   8 O                                       1.3514717
    17   6 C       19   8 O                                       1.3430573
     7   6 C       20   7 N                                       1.4070780
    20   7 N       21   6 C                                       1.3716785
    21   6 C       22   8 O                                       1.2375372
     1   6 C       26   1 H                                       1.0918218
     1   6 C       27   1 H                                       1.0982046
     1   6 C       28   1 H                                       1.0985474
     9   6 C       29   1 H                                       1.0886810
     9   6 C       30   1 H                                       1.0885430
     9   6 C       31   1 H                                       1.0901019
    10   6 C       32   1 H                                       1.0886298
    10   6 C       33   1 H                                       1.0882440
    10   6 C       34   1 H                                       1.0894431
    11   7 N       35   1 H                                       1.0263375
    18   6 C       36   1 H                                       1.0871165
    18   6 C       37   1 H                                       1.0893543
    18   6 C       38   1 H                                       1.0893418
    20   7 N       39   1 H                                       1.0058564 (min)
    24   6 C       40   1 H                                       1.0908160
    24   6 C       41   1 H                                       1.0883472
    24   6 C       42   1 H                                       1.0913029

 * 5 distinct bonds (by element types)

   Z      Z             #   av. dist./Å        max./Å        min./Å
   1 H    6 C          15     1.0905664     1.0985474     1.0871165
   6 C    6 C           4     1.4889894     1.5375192     1.4015588
   1 H    7 N           2     1.0160970     1.0263375     1.0058564
   6 C    7 N           7     1.3504427     1.4625797     1.2815765
   6 C    8 O           5     1.3139343     1.4095113     1.2280937


optimized geometry written to: xtbopt.xyz


           -------------------------------------------------
          | TOTAL ENERGY              -83.614838710797 Eh   |
          | GRADIENT NORM               0.000917313538 Eh/α |
          | HOMO-LUMO GAP               0.196356651862 eV   |
           -------------------------------------------------

------------------------------------------------------------------------
 * finished run on 2023/06/21 at 17:16:13.531     
------------------------------------------------------------------------
 total:
 * wall-time:     0 d,  0 h,  0 min,  6.324 sec
 *  cpu-time:     0 d,  0 h,  0 min,  6.162 sec
 * ratio c/w:     0.974 speedup
 SCF:
 * wall-time:     0 d,  0 h,  0 min,  0.247 sec
 *  cpu-time:     0 d,  0 h,  0 min,  0.193 sec
 * ratio c/w:     0.780 speedup
 ANC optimizer:
 * wall-time:     0 d,  0 h,  0 min,  5.950 sec
 *  cpu-time:     0 d,  0 h,  0 min,  5.928 sec
 * ratio c/w:     0.996 speedup

