42
 energy: -82.969141777682 gnorm: 0.000203502693 xtb: 6.5.1 (579679a)
C           -6.39702385102773        0.68997052784119        0.17846922749316
O           -5.07458962492359        0.59938655519972        0.73977355103833
C           -4.04332407618934        0.52820823589899       -0.05831827534502
O           -4.33601287130754        0.56034974226932       -1.32234290077399
C           -3.41011945958631        0.49363721922362       -2.41483397593236
C           -2.74290835623270        0.42076100861340        0.52235908866255
N           -1.68807228175027        0.33763624044249       -0.35372280536246
C           -0.47926904281444        0.22116054923488        0.15661120754971
C            0.65916590929645        0.14254272202290       -0.85223615162070
C            0.40402702930802       -1.01172606487643       -1.82989977121619
C            0.75864703133671        1.48084236912752       -1.59746216130477
N            1.88665815797822       -0.10561600418513       -0.10496886580830
C            3.09312767287974       -0.28295303184880       -0.65883215860771
O            3.35369267782340       -0.20775994510392       -1.85048950047064
C            4.11550543178154       -0.60363391906888        0.37739323404383
N            3.91961144153733       -0.66854173675883        1.65910808879714
N            5.10928440418651       -1.02853378477863        2.22189619567001
C            5.95320305603686       -1.16224773522817        1.24569104503440
C            7.37819756227074       -1.55211256751598        1.33026197870760
O            5.38782496909694       -0.90582003761139        0.05637350484571
N           -0.15568072908571        0.17648606255268        1.44049410949903
C           -1.11457405541471        0.25849898787331        2.39735820408197
O           -0.86944822505685        0.22609551042789        3.60309089066563
C           -2.50895774969146        0.39148536884648        1.89723675051968
O           -3.43522812657094        0.46961998412862        2.84670735225801
H           -6.47616335167386        1.59454888875142       -0.42504645214973
H           -7.07943163661695        0.72738086151748        1.02361000304146
H           -6.59158500986593       -0.18753951653539       -0.43869235158621
H           -4.01939923589369        0.57137876052409       -3.31483931395029
H           -2.69890914740405        1.31769924517721       -2.35768855193407
H           -2.87519715989518       -0.45592738386674       -2.39315560826124
H           -0.55908593063609       -0.86328166573612       -2.31367346299362
H            0.38733929388847       -1.95914446224371       -1.29224768901617
H            1.18138975411999       -1.04456632492662       -2.59141525199921
H            1.53663003039030        1.43425676007794       -2.35791434127989
H           -0.19574920079520        1.69347600154085       -2.07567604189751
H            0.98920074714750        2.28204250572472       -0.89618603929549
H            1.77400506492354       -0.18483674730092        0.90411438234379
H            7.65147492654391       -1.71561650870451        2.36964656329441
H            7.54792302998541       -2.46551433125955        0.76050489202642
H            8.00618607989779       -0.76919962114313        0.90593537555101
H           -4.34236314799396        0.55710928167386        2.52070302568826
