      -----------------------------------------------------------      
     |                   =====================                   |     
     |                           x T B                           |     
     |                   =====================                   |     
     |                         S. Grimme                         |     
     |          Mulliken Center for Theoretical Chemistry        |     
     |                    University of Bonn                     |     
      -----------------------------------------------------------      

   * xtb version 6.5.1 (579679a) compiled by 'ehlert@majestix' on 2022-07-11

   xtb is free software: you can redistribute it and/or modify it under
   the terms of the GNU Lesser General Public License as published by
   the Free Software Foundation, either version 3 of the License, or
   (at your option) any later version.
   
   xtb is distributed in the hope that it will be useful,
   but WITHOUT ANY WARRANTY; without even the implied warranty of
   MERCHANTABILITY or FITNESS FOR A PARTICULAR PURPOSE.  See the
   GNU Lesser General Public License for more details.
   
   Cite this work as:
   * C. Bannwarth, E. Caldeweyher, S. Ehlert, A. Hansen, P. Pracht,
     J. Seibert, S. Spicher, S. Grimme, WIREs Comput. Mol. Sci., 2020, 11,
     e01493. DOI: 10.1002/wcms.1493
   
   for GFN2-xTB:
   * C. Bannwarth, S. Ehlert and S. Grimme., J. Chem. Theory Comput., 2019,
     15, 1652-1671. DOI: 10.1021/acs.jctc.8b01176
   for GFN1-xTB:
   * S. Grimme, C. Bannwarth, P. Shushkov, J. Chem. Theory Comput., 2017,
     13, 1989-2009. DOI: 10.1021/acs.jctc.7b00118
   for GFN0-xTB:
   * P. Pracht, E. Caldeweyher, S. Ehlert, S. Grimme, ChemRxiv, 2019, preprint.
     DOI: 10.26434/chemrxiv.8326202.v1
   for GFN-FF:
   * S. Spicher and S. Grimme, Angew. Chem. Int. Ed., 2020, 59, 15665-15673.
     DOI: 10.1002/anie.202004239
   
   for ALPB and GBSA implicit solvation:
   * S. Ehlert, M. Stahn, S. Spicher, S. Grimme, J. Chem. Theory Comput.,
     2021, 17, 4250-4261. DOI: 10.1021/acs.jctc.1c00471
   
   for DFT-D4:
   * E. Caldeweyher, C. Bannwarth and S. Grimme, J. Chem. Phys., 2017,
     147, 034112. DOI: 10.1063/1.4993215
   * E. Caldeweyher, S. Ehlert, A. Hansen, H. Neugebauer, S. Spicher,
     C. Bannwarth and S. Grimme, J. Chem. Phys., 2019, 150, 154122.
     DOI: 10.1063/1.5090222
   * E. Caldeweyher, J.-M. Mewes, S. Ehlert and S. Grimme, Phys. Chem. Chem. Phys.
     2020, 22, 8499-8512. DOI: 10.1039/D0CP00502A
   
   for sTDA-xTB:
   * S. Grimme and C. Bannwarth, J. Chem. Phys., 2016, 145, 054103.
     DOI: 10.1063/1.4959605
   
   in the mass-spec context:
   * V. Asgeirsson, C. Bauer and S. Grimme, Chem. Sci., 2017, 8, 4879.
     DOI: 10.1039/c7sc00601b
   * J. Koopman and S. Grimme, ACS Omega 2019, 4, 12, 15120-15133.
     DOI: 10.1021/acsomega.9b02011
   
   for metadynamics refer to:
   * S. Grimme, J. Chem. Theory Comput., 2019, 155, 2847-2862
     DOI: 10.1021/acs.jctc.9b00143
   
   for SPH calculations refer to:
   * S. Spicher and S. Grimme, J. Chem. Theory Comput., 2021, 17, 1701-1714
     DOI: 10.1021/acs.jctc.0c01306
   
   with help from (in alphabetical order)
   P. Atkinson, C. Bannwarth, F. Bohle, G. Brandenburg, E. Caldeweyher
   M. Checinski, S. Dohm, S. Ehlert, S. Ehrlich, I. Gerasimov, C. Hölzer
   A. Katbashev, J. Koopman, C. Lavigne, S. Lehtola, F. März, M. Müller,
   F. Musil, H. Neugebauer, J. Pisarek, C. Plett, P. Pracht, F. Pultar,
   J. Seibert, P. Shushkov, S. Spicher, M. Stahn, M. Steiner, T. Strunk,
   J. Stückrath, T. Rose, and J. Unsleber
   
 * started run on 2023/06/20 at 18:18:07.168     

           -------------------------------------------------
          |                Calculation Setup                |
           -------------------------------------------------

          program call               : /lustre/hpc/kemi/ree/PhD/git/ReactivityQM/dep/xtb-6.5.1/bin/xtb --gfn 1 /lustre/hpc/kemi/ree/PhD/git/ReactivityQM/calculations/R02deprot/reac01prodN11/conf14/R02deprot_reac01prodN11_conf14_gfn1.xyz --opt --vfukui --chrg 0 --uhf 0 --alpb DMSO
          hostname                   : node308
          coordinate file            : /lustre/hpc/kemi/ree/PhD/git/ReactivityQM/calculations/R02deprot/reac01prodN11/conf14/R02deprot_reac01prodN11_conf14_gfn1.xyz
          omp threads                :                     1

   ID    Z sym.   atoms
    1    6 C      1, 3, 5, 6, 8, 11-15, 17, 19, 22, 23
    2    8 O      2, 4, 7, 9, 18, 24
    3    7 N      10, 16, 20, 21, 25
    4    1 H      26-42

           -------------------------------------------------
          |                 G F N 1 - x T B                 |
           -------------------------------------------------

        Reference                      10.1021/acs.jctc.7b00118
      * Hamiltonian:
        H0-scaling (s, p, d)           1.850000    2.250000    2.000000
        zeta-weighting                 0.000000
      * Dispersion:
        s8                             2.400000
        a1                             0.630000
        a2                             5.000000
        s9                             0.000000
      * Repulsion:
        kExp                           1.500000
        rExp                           1.000000
      * Coulomb:
        alpha                          2.000000
        third order                    atomic
        anisotropic                    false
      * Halogen bond correction:
        rad-scale                      1.300000
        damping                        0.440000

      * Solvation model:               ALPB
        Solvent                        DMSO
        Parameter file                 internal GFN1-xTB/ALPB
        Dielectric constant                4.6680E+01
        Reference state                gsolv [1 M gas/solution]
        Free energy shift                  7.6243E-03 Eh       4.7843E+00 kcal/mol
        Temperature                        2.9815E+02 K
        Density                            1.1000E+00 kg/L
        Solvent mass                       7.8130E+01 g/mol
        Interaction kernel             P16
        Born radius scaling (c1)           1.7672E+00
        Born radii integrator          GBOBC
        Born offset                        0.0000E+00 a0       0.0000E+00 AA
        H-bond correction              true
        Ion screening                  false
        Surface tension                    1.0000E-05 Eh       1.5569E+01 dyn/cm
        Grid points                               230 per atom

          ...................................................
          :                      SETUP                      :
          :.................................................:
          :  # basis functions                 134          :
          :  # atomic orbitals                 134          :
          :  # shells                           84          :
          :  # electrons                       134          :
          :  # halogen bonds                     0          :
          :  max. iterations                   250          :
          :  Hamiltonian                  GFN1-xTB          :
          :  restarted?                      false          :
          :  GBSA solvation                   true          :
          :  PC potential                    false          :
          :  electronic temp.          300.0000000     K    :
          :  accuracy                    1.0000000          :
          :  -> integral cutoff          0.2500000E+02      :
          :  -> integral neglect         0.1000000E-07      :
          :  -> SCF convergence          0.1000000E-05 Eh   :
          :  -> wf. convergence          0.2000000E-04 e    :
          :  Broyden damping             0.4000000          :
          ...................................................

 iter      E             dE          RMSdq      gap      omega  full diag
   1    -83.3273418 -0.833273E+02  0.840E+00    1.34       0.0  T
   2    -83.6124834 -0.285142E+00  0.510E+00    0.62       1.0  T
   3    -83.5184376  0.940458E-01  0.242E+00    1.42       1.0  T
   4    -83.6545141 -0.136077E+00  0.478E-01    0.75       1.0  T
   5    -83.6621620 -0.764789E-02  0.312E-01    0.83       1.0  T
   6    -83.6670108 -0.484883E-02  0.528E-02    0.71       1.0  T
   7    -83.6671470 -0.136154E-03  0.274E-02    0.73       1.0  T
   8    -83.6671599 -0.129252E-04  0.106E-02    0.72       1.5  T
   9    -83.6671614 -0.152656E-05  0.422E-03    0.72       3.7  T
  10    -83.6671619 -0.471045E-06  0.154E-03    0.72      10.0  T
  11    -83.6671620 -0.540769E-07  0.541E-04    0.72      28.5  T
  12    -83.6671620 -0.113311E-07  0.864E-05    0.72     178.6  T
  13    -83.6671620 -0.256648E-09  0.209E-05    0.72     738.2  T

   *** convergence criteria satisfied after 13 iterations ***

         #    Occupation            Energy/Eh            Energy/eV
      -------------------------------------------------------------
         1        2.0000           -0.8658264             -23.5603
       ...           ...                  ...                  ...
        61        2.0000           -0.4652136             -12.6591
        62        2.0000           -0.4609761             -12.5438
        63        2.0000           -0.4559463             -12.4069
        64        2.0000           -0.4468534             -12.1595
        65        2.0000           -0.4432218             -12.0607
        66        2.0000           -0.4351106             -11.8400
        67        2.0000           -0.4281649             -11.6510 (HOMO)
        68        0.0000           -0.4016867             -10.9305 (LUMO)
        69                         -0.3325027              -9.0479
        70                         -0.3192035              -8.6860
        71                         -0.2604933              -7.0884
        72                         -0.2480981              -6.7511
       ...                                ...                  ...
       134                          0.6871654              18.6987
      -------------------------------------------------------------
                  HL-Gap            0.0264782 Eh            0.7205 eV
             Fermi-level           -0.4149255 Eh          -11.2907 eV

 SCC (total)                   0 d,  0 h,  0 min,  0.199 sec
 SCC setup                      ...        0 min,  0.002 sec (  1.074%)
 Dispersion                     ...        0 min,  0.000 sec (  0.201%)
 classical contributions        ...        0 min,  0.000 sec (  0.063%)
 integral evaluation            ...        0 min,  0.063 sec ( 31.752%)
 iterations                     ...        0 min,  0.049 sec ( 24.448%)
 molecular gradient             ...        0 min,  0.083 sec ( 41.955%)
 printout                       ...        0 min,  0.001 sec (  0.480%)

         :::::::::::::::::::::::::::::::::::::::::::::::::::::
         ::                     SUMMARY                     ::
         :::::::::::::::::::::::::::::::::::::::::::::::::::::
         :: total energy             -82.919441158071 Eh    ::
         :: total w/o Gsasa/hb       -82.896021048145 Eh    ::
         :: gradient norm              0.123432373173 Eh/a0 ::
         :: HOMO-LUMO gap              0.720507799541 eV    ::
         ::.................................................::
         :: SCC energy               -83.667161978173 Eh    ::
         :: -> electrostatic           0.357895200470 Eh    ::
         :: -> Gsolv                  -0.055194770286 Eh    ::
         ::    -> Gelec               -0.031774660360 Eh    ::
         ::    -> Gsasa               -0.023921779091 Eh    ::
         ::    -> Ghb                 -0.007122609840 Eh    ::
         ::    -> Gshift               0.007624279005 Eh    ::
         :: repulsion energy           0.774465834205 Eh    ::
         :: dispersion energy         -0.026745014103 Eh    ::
         :: halogen bond corr.         0.000000000000 Eh    ::
         :: add. restraining           0.000000000000 Eh    ::
         :: total charge               0.000000001186 e     ::
         :::::::::::::::::::::::::::::::::::::::::::::::::::::

      ----------------------------------------------------------- 
     |                   =====================                   |
     |                        A N C O P T                        |
     |                   =====================                   |
     |               Approximate Normal Coordinate               |
     |                Rational Function Optimizer                |
      ----------------------------------------------------------- 

          ...................................................
          :                      SETUP                      :
          :.................................................:
          :   optimization level            normal          :
          :   max. optcycles                   200          :
          :   ANC micro-cycles                  20          :
          :   degrees of freedom               120          :
          :.................................................:
          :   RF solver                   davidson          :
          :   write xtbopt.log                true          :
          :   linear?                        false          :
          :   energy convergence         0.5000000E-05 Eh   :
          :   grad. convergence          0.1000000E-02 Eh/α :
          :   maximium RF displ.         1.0000000          :
          :   Hlow (freq-cutoff)         0.1000000E-01      :
          :   Hmax (freq-cutoff)         5.0000000          :
          :   S6 in model hess.         20.0000000          :
          ...................................................

generating ANC from model Hessian ...
Using Lindh-Hessian (1995)
 Shifting diagonal of input Hessian by   9.833636617747325E-003
 Lowest  eigenvalues of input Hessian
    0.000000    0.000000    0.000000    0.000000    0.000000    0.000000
    0.010000    0.010197    0.010564    0.010887    0.011973    0.012623
    0.013367    0.013905    0.014712    0.015468    0.016244    0.016778
 Highest eigenvalues
    1.964027    2.115152    2.144362    2.282875    2.335802    2.341572
 

........................................................................
.............................. CYCLE    1 ..............................
........................................................................
   1    -83.6671620 -0.836672E+02  0.643E-06    0.72       0.0  T
   2    -83.6671620  0.767386E-12  0.667E-06    0.72    2314.1  T
   3    -83.6671620 -0.203215E-11  0.275E-06    0.72    5615.1  T
     SCC iter.                  ...        0 min,  0.012 sec
     gradient                   ...        0 min,  0.083 sec
 * total energy  :   -82.9194412 Eh     change       -0.8583356E-11 Eh
   gradient norm :     0.1234324 Eh/α   predicted     0.0000000E+00 (-100.00%)
   displ. norm   :     0.3010754 α      lambda       -0.1765322E-01
   maximum displ.:     0.1311119 α      in ANC's #26, #44, #21, ...

........................................................................
.............................. CYCLE    2 ..............................
........................................................................
   1    -83.6856036 -0.836856E+02  0.105E-01    0.84       0.0  T
   2    -83.6854898  0.113811E-03  0.113E-01    0.82       1.0  T
   3    -83.6861418 -0.652020E-03  0.349E-02    0.85       1.0  T
   4    -83.6861935 -0.516849E-04  0.119E-02    0.84       1.3  T
   5    -83.6861935  0.207325E-07  0.356E-03    0.84       4.3  T
   6    -83.6861938 -0.376182E-06  0.601E-04    0.84      25.7  T
   7    -83.6861938 -0.433964E-08  0.176E-04    0.84      87.9  T
   8    -83.6861938 -0.378307E-09  0.645E-05    0.84     239.1  T
     SCC iter.                  ...        0 min,  0.028 sec
     gradient                   ...        0 min,  0.083 sec
 * total energy  :   -82.9321307 Eh     change       -0.1268954E-01 Eh
   gradient norm :     0.0621408 Eh/α   predicted    -0.9637641E-02 ( -24.05%)
   displ. norm   :     0.3383062 α      lambda       -0.8110858E-02
   maximum displ.:     0.1753423 α      in ANC's #26, #7, #21, ...

........................................................................
.............................. CYCLE    3 ..............................
........................................................................
   1    -83.6978576 -0.836979E+02  0.975E-02    0.91       0.0  T
   2    -83.6979567 -0.990368E-04  0.786E-02    0.90       1.0  T
   3    -83.6982344 -0.277715E-03  0.351E-02    0.93       1.0  T
   4    -83.6982872 -0.528226E-04  0.107E-02    0.92       1.4  T
   5    -83.6982873 -0.147024E-06  0.302E-03    0.92       5.1  T
   6    -83.6982875 -0.105063E-06  0.555E-04    0.92      27.8  T
   7    -83.6982875 -0.401238E-08  0.209E-04    0.92      73.8  T
   8    -83.6982875 -0.138684E-08  0.661E-05    0.92     233.3  T
   9    -83.6982875 -0.105430E-09  0.178E-05    0.92     868.0  T
     SCC iter.                  ...        0 min,  0.032 sec
     gradient                   ...        0 min,  0.083 sec
 * total energy  :   -82.9368957 Eh     change       -0.4765004E-02 Eh
   gradient norm :     0.0218921 Eh/α   predicted    -0.4519577E-02 (  -5.15%)
   displ. norm   :     0.2661000 α      lambda       -0.1545854E-02
   maximum displ.:     0.1225243 α      in ANC's #6, #7, #5, ...

........................................................................
.............................. CYCLE    4 ..............................
........................................................................
   1    -83.6999757 -0.837000E+02  0.237E-02    0.93       0.0  T
   2    -83.6999953 -0.196690E-04  0.140E-02    0.93       1.1  T
   3    -83.6999985 -0.314741E-05  0.613E-03    0.93       2.5  T
   4    -83.6999979  0.542300E-06  0.810E-03    0.93       1.9  T
   5    -83.7000001 -0.213046E-05  0.125E-03    0.93      12.4  T
   6    -83.7000001 -0.181988E-07  0.203E-04    0.93      75.9  T
   7    -83.7000001 -0.766875E-09  0.858E-05    0.93     179.7  T
   8    -83.7000001 -0.217653E-09  0.254E-05    0.93     607.0  T
     SCC iter.                  ...        0 min,  0.028 sec
     gradient                   ...        0 min,  0.083 sec
 * total energy  :   -82.9380558 Eh     change       -0.1160140E-02 Eh
   gradient norm :     0.0141690 Eh/α   predicted    -0.8278287E-03 ( -28.64%)
   displ. norm   :     0.4136181 α      lambda       -0.1470327E-02
   maximum displ.:     0.2220188 α      in ANC's #6, #7, #5, ...

........................................................................
.............................. CYCLE    5 ..............................
........................................................................
   1    -83.7011154 -0.837011E+02  0.228E-02    0.93       0.0  T
   2    -83.7011222 -0.685721E-05  0.266E-02    0.94       1.0  T
   3    -83.7011507 -0.284708E-04  0.850E-03    0.93       1.8  T
   4    -83.7011491  0.158571E-05  0.905E-03    0.93       1.7  T
   5    -83.7011511 -0.202894E-05  0.173E-03    0.93       8.9  T
   6    -83.7011512 -0.591659E-07  0.212E-04    0.93      72.7  T
   7    -83.7011512 -0.111575E-08  0.740E-05    0.93     208.4  T
   8    -83.7011512 -0.962501E-10  0.274E-05    0.93     564.1  T
     SCC iter.                  ...        0 min,  0.028 sec
     gradient                   ...        0 min,  0.084 sec
 * total energy  :   -82.9391164 Eh     change       -0.1060607E-02 Eh
   gradient norm :     0.0119410 Eh/α   predicted    -0.8609468E-03 ( -18.83%)
   displ. norm   :     0.4350214 α      lambda       -0.9581849E-03
   maximum displ.:     0.2521812 α      in ANC's #6, #7, #2, ...

........................................................................
.............................. CYCLE    6 ..............................
........................................................................
   1    -83.7017404 -0.837017E+02  0.141E-02    0.93       0.0  T
   2    -83.7017417 -0.129169E-05  0.165E-02    0.94       1.0  T
   3    -83.7017530 -0.112616E-04  0.526E-03    0.93       2.9  T
   4    -83.7017527  0.332410E-06  0.470E-03    0.93       3.3  T
   5    -83.7017531 -0.459449E-06  0.102E-03    0.93      15.1  T
   6    -83.7017531 -0.251932E-07  0.120E-04    0.93     128.2  T
   7    -83.7017531 -0.442796E-09  0.397E-05    0.93     388.6  T
     SCC iter.                  ...        0 min,  0.025 sec
     gradient                   ...        0 min,  0.084 sec
 * total energy  :   -82.9398664 Eh     change       -0.7499670E-03 Eh
   gradient norm :     0.0143304 Eh/α   predicted    -0.5697591E-03 ( -24.03%)
   displ. norm   :     0.4993000 α      lambda       -0.9145411E-03
   maximum displ.:     0.2986394 α      in ANC's #6, #7, #2, ...

........................................................................
.............................. CYCLE    7 ..............................
........................................................................
   1    -83.7022174 -0.837022E+02  0.123E-02    0.94       0.0  T
   2    -83.7022212 -0.373951E-05  0.664E-03    0.94       2.3  T
   3    -83.7022212 -0.287704E-07  0.466E-03    0.94       3.3  T
   4    -83.7022217 -0.509165E-06  0.304E-03    0.94       5.1  T
   5    -83.7022220 -0.289813E-06  0.550E-04    0.94      28.1  T
   6    -83.7022220 -0.555768E-08  0.130E-04    0.94     118.4  T
   7    -83.7022220 -0.763251E-09  0.363E-05    0.94     424.9  T
     SCC iter.                  ...        0 min,  0.025 sec
     gradient                   ...        0 min,  0.084 sec
 * total energy  :   -82.9405931 Eh     change       -0.7266367E-03 Eh
   gradient norm :     0.0136404 Eh/α   predicted    -0.5712698E-03 ( -21.38%)
   displ. norm   :     0.4823892 α      lambda       -0.7731557E-03
   maximum displ.:     0.2888943 α      in ANC's #6, #7, #2, ...

........................................................................
.............................. CYCLE    8 ..............................
........................................................................
   1    -83.7033007 -0.837033E+02  0.145E-02    0.95       0.0  T
   2    -83.7033040 -0.329420E-05  0.111E-02    0.94       1.4  T
   3    -83.7033077 -0.362210E-05  0.581E-03    0.95       2.7  T
   4    -83.7033088 -0.113838E-05  0.276E-03    0.95       5.6  T
   5    -83.7033089 -0.930990E-07  0.643E-04    0.95      24.0  T
   6    -83.7033089 -0.428351E-08  0.918E-05    0.95     168.1  T
   7    -83.7033089 -0.268130E-09  0.437E-05    0.95     353.4  T
     SCC iter.                  ...        0 min,  0.025 sec
     gradient                   ...        0 min,  0.084 sec
 * total energy  :   -82.9411565 Eh     change       -0.5634579E-03 Eh
   gradient norm :     0.0097182 Eh/α   predicted    -0.4765352E-03 ( -15.43%)
   displ. norm   :     0.3616616 α      lambda       -0.4302189E-03
   maximum displ.:     0.2134125 α      in ANC's #6, #2, #7, ...

........................................................................
.............................. CYCLE    9 ..............................
........................................................................
   1    -83.7045831 -0.837046E+02  0.134E-02    0.96       0.0  T
   2    -83.7045835 -0.444188E-06  0.136E-02    0.95       1.1  T
   3    -83.7045924 -0.892400E-05  0.383E-03    0.96       4.0  T
   4    -83.7045927 -0.246089E-06  0.225E-03    0.96       6.9  T
   5    -83.7045927 -0.540554E-07  0.649E-04    0.96      23.8  T
   6    -83.7045927 -0.557418E-08  0.880E-05    0.96     175.3  T
   7    -83.7045927 -0.244782E-09  0.385E-05    0.96     401.2  T
     SCC iter.                  ...        0 min,  0.021 sec
     gradient                   ...        0 min,  0.081 sec
 * total energy  :   -82.9414689 Eh     change       -0.3124096E-03 Eh
   gradient norm :     0.0066551 Eh/α   predicted    -0.2432496E-03 ( -22.14%)
   displ. norm   :     0.3616644 α      lambda       -0.2961698E-03
   maximum displ.:     0.2197371 α      in ANC's #6, #2, #9, ...

........................................................................
.............................. CYCLE   10 ..............................
........................................................................
   1    -83.7052224 -0.837052E+02  0.985E-03    0.96       0.0  T
   2    -83.7052240 -0.157840E-05  0.656E-03    0.96       2.4  T
   3    -83.7052253 -0.135432E-05  0.394E-03    0.96       3.9  T
   4    -83.7052259 -0.589584E-06  0.142E-03    0.96      10.8  T
   5    -83.7052259 -0.180095E-07  0.427E-04    0.96      36.1  T
   6    -83.7052259 -0.252599E-08  0.901E-05    0.96     171.3  T
   7    -83.7052259 -0.314628E-09  0.289E-05    0.96     533.2  T
     SCC iter.                  ...        0 min,  0.019 sec
     gradient                   ...        0 min,  0.045 sec
 * total energy  :   -82.9417085 Eh     change       -0.2395868E-03 Eh
   gradient norm :     0.0056278 Eh/α   predicted    -0.1674568E-03 ( -30.11%)
   displ. norm   :     0.4616129 α      lambda       -0.3331749E-03
   maximum displ.:     0.2820796 α      in ANC's #6, #2, #1, ...

........................................................................
.............................. CYCLE   11 ..............................
........................................................................
   1    -83.7056887 -0.837057E+02  0.100E-02    0.97       0.0  T
   2    -83.7056919 -0.326633E-05  0.487E-03    0.97       3.2  T
   3    -83.7056924 -0.418470E-06  0.286E-03    0.97       5.4  T
   4    -83.7056923  0.537973E-08  0.195E-03    0.97       7.9  T
   5    -83.7056925 -0.145775E-06  0.629E-04    0.97      24.5  T
   6    -83.7056925 -0.121090E-07  0.114E-04    0.97     135.0  T
   7    -83.7056925 -0.554877E-09  0.352E-05    0.97     437.9  T
     SCC iter.                  ...        0 min,  0.027 sec
     gradient                   ...        0 min,  0.084 sec
 * total energy  :   -82.9419659 Eh     change       -0.2574185E-03 Eh
   gradient norm :     0.0060849 Eh/α   predicted    -0.2020910E-03 ( -21.49%)
   displ. norm   :     0.4080874 α      lambda       -0.2756168E-03
   maximum displ.:     0.2354911 α      in ANC's #6, #2, #1, ...

........................................................................
.............................. CYCLE   12 ..............................
........................................................................
   1    -83.7063048 -0.837063E+02  0.927E-03    0.98       0.0  T
   2    -83.7063074 -0.255297E-05  0.582E-03    0.97       2.7  T
   3    -83.7063083 -0.969825E-06  0.312E-03    0.97       4.9  T
   4    -83.7063085 -0.179810E-06  0.149E-03    0.97      10.4  T
   5    -83.7063086 -0.615434E-07  0.541E-04    0.97      28.5  T
   6    -83.7063086 -0.670374E-08  0.838E-05    0.97     184.0  T
   7    -83.7063086 -0.220012E-09  0.281E-05    0.97     549.2  T
     SCC iter.                  ...        0 min,  0.025 sec
     gradient                   ...        0 min,  0.084 sec
 * total energy  :   -82.9421748 Eh     change       -0.2089038E-03 Eh
   gradient norm :     0.0060078 Eh/α   predicted    -0.1607609E-03 ( -23.05%)
   displ. norm   :     0.3307766 α      lambda       -0.2384866E-03
   maximum displ.:     0.1632775 α      in ANC's #2, #6, #1, ...

........................................................................
.............................. CYCLE   13 ..............................
........................................................................
   1    -83.7073846 -0.837074E+02  0.967E-03    0.98       0.0  T
   2    -83.7073853 -0.735241E-06  0.801E-03    0.98       1.9  T
   3    -83.7073881 -0.278089E-05  0.331E-03    0.98       4.7  T
   4    -83.7073883 -0.257317E-06  0.133E-03    0.98      11.6  T
   5    -83.7073884 -0.272117E-07  0.384E-04    0.98      40.2  T
   6    -83.7073884 -0.296416E-08  0.729E-05    0.98     211.6  T
   7    -83.7073884 -0.148276E-09  0.213E-05    0.98     725.3  T
     SCC iter.                  ...        0 min,  0.025 sec
     gradient                   ...        0 min,  0.084 sec
 * total energy  :   -82.9423514 Eh     change       -0.1766105E-03 Eh
   gradient norm :     0.0055552 Eh/α   predicted    -0.1322943E-03 ( -25.09%)
   displ. norm   :     0.3302035 α      lambda       -0.1950442E-03
   maximum displ.:     0.1556798 α      in ANC's #2, #6, #1, ...

........................................................................
.............................. CYCLE   14 ..............................
........................................................................
   1    -83.7045270 -0.837045E+02  0.102E-02    0.98       0.0  T
   2    -83.7045298 -0.272677E-05  0.938E-03    0.98       1.6  T
   3    -83.7045336 -0.388859E-05  0.355E-03    0.98       4.4  T
   4    -83.7045338 -0.142410E-06  0.244E-03    0.98       6.3  T
   5    -83.7045339 -0.110811E-06  0.562E-04    0.98      27.5  T
   6    -83.7045339 -0.368473E-08  0.923E-05    0.98     167.2  T
   7    -83.7045339 -0.166253E-09  0.257E-05    0.98     601.1  T
     SCC iter.                  ...        0 min,  0.025 sec
     gradient                   ...        0 min,  0.084 sec
 * total energy  :   -82.9424676 Eh     change       -0.1161320E-03 Eh
   gradient norm :     0.0058060 Eh/α   predicted    -0.1081593E-03 (  -6.87%)
   displ. norm   :     0.2568042 α      lambda       -0.1887971E-03
   maximum displ.:     0.1501325 α      in ANC's #7, #1, #2, ...

........................................................................
.............................. CYCLE   15 ..............................
........................................................................
   1    -83.7078112 -0.837078E+02  0.155E-02    0.99       0.0  T
   2    -83.7078067  0.458394E-05  0.173E-02    0.98       1.0  T
   3    -83.7078228 -0.161094E-04  0.417E-03    0.99       3.7  T
   4    -83.7078229 -0.114210E-06  0.180E-03    0.98       8.6  T
   5    -83.7078229 -0.182438E-07  0.289E-04    0.98      53.3  T
   6    -83.7078229 -0.135212E-08  0.716E-05    0.98     215.6  T
   7    -83.7078229 -0.634088E-10  0.240E-05    0.98     643.3  T
     SCC iter.                  ...        0 min,  0.025 sec
     gradient                   ...        0 min,  0.084 sec
 * total energy  :   -82.9425319 Eh     change       -0.6431356E-04 Eh
   gradient norm :     0.0059087 Eh/α   predicted    -0.1006290E-03 (  56.47%)
   displ. norm   :     0.0590405 α      lambda       -0.6701474E-04
   maximum displ.:     0.0305559 α      in ANC's #1, #2, #8, ...

........................................................................
.............................. CYCLE   16 ..............................
........................................................................
   1    -83.7062226 -0.837062E+02  0.611E-03    0.99       0.0  T
   2    -83.7062225  0.108472E-06  0.551E-03    0.99       2.8  T
   3    -83.7062240 -0.148155E-05  0.224E-03    0.99       6.9  T
   4    -83.7062241 -0.917158E-07  0.813E-04    0.99      19.0  T
   5    -83.7062241 -0.628432E-09  0.170E-04    0.99      91.0  T
   6    -83.7062241 -0.607898E-09  0.383E-05    0.99     403.0  T
     SCC iter.                  ...        0 min,  0.021 sec
     gradient                   ...        0 min,  0.084 sec
 * total energy  :   -82.9425791 Eh     change       -0.4725575E-04 Eh
   gradient norm :     0.0033018 Eh/α   predicted    -0.3362493E-04 ( -28.84%)
   displ. norm   :     0.0807847 α      lambda       -0.5582744E-04
   maximum displ.:     0.0527207 α      in ANC's #1, #8, #10, ...

........................................................................
.............................. CYCLE   17 ..............................
........................................................................
   1    -83.7055744 -0.837056E+02  0.534E-03    0.99       0.0  T
   2    -83.7055745 -0.727050E-07  0.419E-03    0.99       3.7  T
   3    -83.7055751 -0.661301E-06  0.229E-03    0.99       6.7  T
   4    -83.7055752 -0.124250E-06  0.778E-04    0.99      19.8  T
   5    -83.7055752 -0.308562E-08  0.178E-04    0.99      86.6  T
   6    -83.7055752 -0.635538E-09  0.405E-05    0.99     381.2  T
     SCC iter.                  ...        0 min,  0.022 sec
     gradient                   ...        0 min,  0.084 sec
 * total energy  :   -82.9426155 Eh     change       -0.3635287E-04 Eh
   gradient norm :     0.0027225 Eh/α   predicted    -0.2809748E-04 ( -22.71%)
   displ. norm   :     0.1210654 α      lambda       -0.4699235E-04
   maximum displ.:     0.0773412 α      in ANC's #1, #8, #2, ...

........................................................................
.............................. CYCLE   18 ..............................
........................................................................
   1    -83.7046143 -0.837046E+02  0.455E-03    1.00       0.0  T
   2    -83.7046148 -0.431107E-06  0.368E-03    1.00       4.2  T
   3    -83.7046153 -0.513583E-06  0.161E-03    1.00       9.6  T
   4    -83.7046154 -0.580804E-07  0.987E-04    1.00      15.6  T
   5    -83.7046154 -0.124960E-07  0.148E-04    1.00     104.5  T
   6    -83.7046154 -0.467864E-09  0.264E-05    1.00     583.6  T
     SCC iter.                  ...        0 min,  0.022 sec
     gradient                   ...        0 min,  0.084 sec
 * total energy  :   -82.9426467 Eh     change       -0.3123076E-04 Eh
   gradient norm :     0.0046184 Eh/α   predicted    -0.2384327E-04 ( -23.65%)
   displ. norm   :     0.1415034 α      lambda       -0.4917982E-04
   maximum displ.:     0.0946965 α      in ANC's #1, #8, #2, ...

........................................................................
.............................. CYCLE   19 ..............................
........................................................................
   1    -83.7047798 -0.837048E+02  0.598E-03    1.01       0.0  T
   2    -83.7047793  0.415499E-06  0.646E-03    1.01       2.4  T
   3    -83.7047817 -0.236582E-05  0.135E-03    1.01      11.4  T
   4    -83.7047817 -0.240508E-07  0.685E-04    1.01      22.5  T
   5    -83.7047817 -0.799119E-09  0.111E-04    1.01     139.0  T
   6    -83.7047817 -0.189530E-09  0.248E-05    1.01     622.4  T
     SCC iter.                  ...        0 min,  0.021 sec
     gradient                   ...        0 min,  0.084 sec
 * total energy  :   -82.9426859 Eh     change       -0.3918062E-04 Eh
   gradient norm :     0.0042744 Eh/α   predicted    -0.2508661E-04 ( -35.97%)
   displ. norm   :     0.2683027 α      lambda       -0.8255320E-04
   maximum displ.:     0.1773316 α      in ANC's #1, #8, #2, ...

........................................................................
.............................. CYCLE   20 ..............................
........................................................................
   1    -83.7043142 -0.837043E+02  0.919E-03    1.03       0.0  T
   2    -83.7043154 -0.121980E-05  0.671E-03    1.02       2.3  T
   3    -83.7043174 -0.199191E-05  0.359E-03    1.03       4.3  T
   4    -83.7043177 -0.320343E-06  0.149E-03    1.03      10.4  T
   5    -83.7043177 -0.118214E-08  0.262E-04    1.03      58.9  T
   6    -83.7043177 -0.205307E-08  0.599E-05    1.03     257.4  T
   7    -83.7043177 -0.162331E-09  0.235E-05    1.03     655.9  T
     SCC iter.                  ...        0 min,  0.051 sec
     gradient                   ...        0 min,  0.137 sec
 * total energy  :   -82.9427493 Eh     change       -0.6338333E-04 Eh
   gradient norm :     0.0048823 Eh/α   predicted    -0.4425288E-04 ( -30.18%)
   displ. norm   :     0.4591073 α      lambda       -0.1462742E-03
   maximum displ.:     0.3103145 α      in ANC's #1, #8, #2, ...
 * RMSD in coord.:     0.7602801 α      energy gain  -0.2330813E-01 Eh

generating ANC from model Hessian ...
Using Lindh-Hessian (1995)
 Shifting diagonal of input Hessian by   9.811785457840182E-003
 Lowest  eigenvalues of input Hessian
    0.000000    0.000000    0.000000    0.000000    0.000000    0.000000
    0.010000    0.010168    0.010535    0.010829    0.012180    0.012534
    0.013156    0.014073    0.014822    0.015338    0.016450    0.017114
 Highest eigenvalues
    2.026209    2.142842    2.178641    2.350978    2.405533    2.429506
 

........................................................................
.............................. CYCLE   21 ..............................
........................................................................
   1    -83.7037062 -0.837037E+02  0.295E-02    1.08       0.0  T
   2    -83.7037028  0.342989E-05  0.294E-02    1.06       1.0  T
   3    -83.7037541 -0.513729E-04  0.506E-03    1.07       3.0  T
   4    -83.7037546 -0.510748E-06  0.245E-03    1.07       6.3  T
   5    -83.7037546 -0.163388E-08  0.542E-04    1.07      28.5  T
   6    -83.7037547 -0.615402E-08  0.969E-05    1.07     159.2  T
   7    -83.7037547 -0.224290E-09  0.389E-05    1.07     397.0  T
     SCC iter.                  ...        0 min,  0.025 sec
     gradient                   ...        0 min,  0.084 sec
 * total energy  :   -82.9428750 Eh     change       -0.1257271E-03 Eh
   gradient norm :     0.0093620 Eh/α   predicted     0.0000000E+00 (-100.00%)
   displ. norm   :     0.0504833 α      lambda       -0.9112363E-04
   maximum displ.:     0.0278484 α      in ANC's #9, #20, #5, ...

........................................................................
.............................. CYCLE   22 ..............................
........................................................................
   1    -83.7044330 -0.837044E+02  0.536E-03    1.07       0.0  T
   2    -83.7044335 -0.530887E-06  0.269E-03    1.07       5.7  T
   3    -83.7044337 -0.129780E-06  0.239E-03    1.07       6.5  T
   4    -83.7044338 -0.123079E-06  0.842E-04    1.07      18.3  T
   5    -83.7044338 -0.201140E-08  0.142E-04    1.07     108.3  T
   6    -83.7044338 -0.763237E-09  0.334E-05    1.07     462.7  T
     SCC iter.                  ...        0 min,  0.021 sec
     gradient                   ...        0 min,  0.099 sec
 * total energy  :   -82.9429766 Eh     change       -0.1015615E-03 Eh
   gradient norm :     0.0059715 Eh/α   predicted    -0.6190018E-04 ( -39.05%)
   displ. norm   :     0.1629064 α      lambda       -0.2661668E-03
   maximum displ.:     0.0892731 α      in ANC's #9, #20, #5, ...

........................................................................
.............................. CYCLE   23 ..............................
........................................................................
   1    -83.7051272 -0.837051E+02  0.156E-02    1.08       0.0  T
   2    -83.7051292 -0.196643E-05  0.105E-02    1.07       1.5  T
   3    -83.7051356 -0.642101E-05  0.587E-03    1.08       2.6  T
   4    -83.7051363 -0.730612E-06  0.253E-03    1.08       6.1  T
   5    -83.7051364 -0.496636E-07  0.308E-04    1.08      50.2  T
   6    -83.7051364 -0.263120E-08  0.878E-05    1.08     175.7  T
   7    -83.7051364 -0.155083E-09  0.320E-05    1.08     482.8  T
     SCC iter.                  ...        0 min,  0.054 sec
     gradient                   ...        0 min,  0.097 sec
 * total energy  :   -82.9431675 Eh     change       -0.1909467E-03 Eh
   gradient norm :     0.0068939 Eh/α   predicted    -0.1366237E-03 ( -28.45%)
   displ. norm   :     0.2225200 α      lambda       -0.2694283E-03
   maximum displ.:     0.1159667 α      in ANC's #9, #20, #5, ...

........................................................................
.............................. CYCLE   24 ..............................
........................................................................
   1    -83.7049549 -0.837050E+02  0.219E-02    1.10       0.0  T
   2    -83.7049611 -0.620422E-05  0.150E-02    1.09       1.0  T
   3    -83.7049750 -0.139461E-04  0.644E-03    1.10       2.4  T
   4    -83.7049760 -0.101726E-05  0.280E-03    1.10       5.5  T
   5    -83.7049761 -0.563291E-07  0.432E-04    1.10      35.7  T
   6    -83.7049761 -0.260815E-08  0.144E-04    1.10     107.4  T
   7    -83.7049761 -0.398771E-09  0.442E-05    1.10     348.9  T
     SCC iter.                  ...        0 min,  0.025 sec
     gradient                   ...        0 min,  0.083 sec
 * total energy  :   -82.9434100 Eh     change       -0.2424987E-03 Eh
   gradient norm :     0.0120872 Eh/α   predicted    -0.1414853E-03 ( -41.66%)
   displ. norm   :     0.7444411 α      lambda       -0.1050982E-02
   maximum displ.:     0.3718072 α      in ANC's #9, #20, #5, ...

........................................................................
.............................. CYCLE   25 ..............................
........................................................................
   1    -83.7011074 -0.837011E+02  0.983E-02    1.17       0.0  T
   2    -83.7014975 -0.390058E-03  0.293E-02    1.17       1.0  T
   3    -83.7015258 -0.282921E-04  0.190E-02    1.19       1.0  T
   4    -83.7015376 -0.117600E-04  0.758E-03    1.18       2.0  T
   5    -83.7015377 -0.169413E-06  0.236E-03    1.18       6.5  T
   6    -83.7015378 -0.545264E-07  0.595E-04    1.18      25.9  T
   7    -83.7015378 -0.557685E-08  0.180E-04    1.18      85.7  T
   8    -83.7015378 -0.390273E-09  0.444E-05    1.18     347.2  T
     SCC iter.                  ...        0 min,  0.031 sec
     gradient                   ...        0 min,  0.084 sec
 * total energy  :   -82.9447014 Eh     change       -0.1291356E-02 Eh
   gradient norm :     0.0326800 Eh/α   predicted    -0.8167208E-03 ( -36.75%)
   displ. norm   :     0.5622444 α      lambda       -0.2056213E-02
   maximum displ.:     0.2707404 α      in ANC's #9, #5, #2, ...

........................................................................
.............................. CYCLE   26 ..............................
........................................................................
   1    -83.7014340 -0.837014E+02  0.121E-01    1.22       0.0  T
   2    -83.7021361 -0.702097E-03  0.200E-02    1.25       1.0  T
   3    -83.7021461 -0.100349E-04  0.816E-03    1.25       1.9  T
   4    -83.7021472 -0.107498E-05  0.474E-03    1.25       3.3  T
   5    -83.7021475 -0.288099E-06  0.215E-03    1.25       7.2  T
   6    -83.7021476 -0.934083E-07  0.438E-04    1.25      35.2  T
   7    -83.7021476 -0.262195E-08  0.168E-04    1.25      92.0  T
   8    -83.7021476 -0.485201E-09  0.585E-05    1.25     263.9  T
     SCC iter.                  ...        0 min,  0.030 sec
     gradient                   ...        0 min,  0.085 sec
 * total energy  :   -82.9468825 Eh     change       -0.2181095E-02 Eh
   gradient norm :     0.0547781 Eh/α   predicted    -0.1353260E-02 ( -37.96%)
   displ. norm   :     0.6735713 α      lambda       -0.7391406E-02
   maximum displ.:     0.3044735 α      in ANC's #59, #27, #9, ...

........................................................................
.............................. CYCLE   27 ..............................
........................................................................
   1    -83.7264921 -0.837265E+02  0.164E-01    1.27       0.0  T
   2    -83.7277480 -0.125587E-02  0.634E-02    1.30       1.0  T
   3    -83.7278099 -0.619093E-04  0.372E-02    1.32       1.0  T
   4    -83.7278140 -0.405288E-05  0.195E-02    1.32       1.0  T
   5    -83.7278170 -0.299545E-05  0.378E-03    1.32       4.1  T
   6    -83.7278174 -0.462459E-06  0.962E-04    1.32      16.0  T
   7    -83.7278174 -0.888167E-08  0.444E-04    1.32      34.8  T
   8    -83.7278174 -0.207422E-08  0.105E-04    1.32     147.0  T
   9    -83.7278174 -0.209795E-09  0.170E-05    1.32     908.2  T
     SCC iter.                  ...        0 min,  0.033 sec
     gradient                   ...        0 min,  0.085 sec
 * total energy  :   -82.9255434 Eh     change        0.2133910E-01 Eh
   gradient norm :     0.2416054 Eh/α   predicted    -0.5372458E-02 (-125.18%)
   displ. norm   :     0.3507178 α      lambda       -0.7047663E-01
   maximum displ.:     0.2193265 α      in ANC's #59, #63, #61, ...

........................................................................
.............................. CYCLE   28 ..............................
........................................................................
   1    -83.7076671 -0.837077E+02  0.111E-01    1.35       0.0  T
   2    -83.7080448 -0.377613E-03  0.545E-02    1.32       1.0  T
   3    -83.7080574 -0.126221E-04  0.327E-02    1.32       1.0  T
   4    -83.7080581 -0.722081E-06  0.729E-03    1.31       2.1  T
   5    -83.7080595 -0.140980E-05  0.223E-03    1.31       6.9  T
   6    -83.7080596 -0.118336E-06  0.970E-04    1.31      15.9  T
   7    -83.7080596 -0.106266E-07  0.337E-04    1.31      45.8  T
   8    -83.7080596 -0.244965E-08  0.706E-05    1.31     218.6  T
   9    -83.7080596 -0.692921E-10  0.123E-05    1.31    1259.6  T
     SCC iter.                  ...        0 min,  0.033 sec
     gradient                   ...        0 min,  0.084 sec
 * total energy  :   -82.9483975 Eh     change       -0.2285416E-01 Eh
   gradient norm :     0.0624493 Eh/α   predicted    -0.3957284E-01 (  73.15%)
   displ. norm   :     0.3235398 α      lambda       -0.4958271E-02
   maximum displ.:     0.1579928 α      in ANC's #20, #27, #22, ...

........................................................................
.............................. CYCLE   29 ..............................
........................................................................
   1    -83.7040215 -0.837040E+02  0.642E-02    1.32       0.0  T
   2    -83.7042634 -0.241883E-03  0.286E-02    1.31       1.0  T
   3    -83.7042877 -0.243577E-04  0.954E-03    1.30       1.6  T
   4    -83.7042882 -0.477661E-06  0.638E-03    1.30       2.4  T
   5    -83.7042883 -0.104583E-06  0.198E-03    1.30       7.8  T
   6    -83.7042884 -0.134887E-06  0.274E-04    1.30      56.3  T
   7    -83.7042884 -0.180157E-08  0.127E-04    1.30     121.6  T
   8    -83.7042884 -0.293866E-09  0.385E-05    1.30     400.4  T
     SCC iter.                  ...        0 min,  0.029 sec
     gradient                   ...        0 min,  0.085 sec
 * total energy  :   -82.9489027 Eh     change       -0.5052052E-03 Eh
   gradient norm :     0.0504873 Eh/α   predicted    -0.2738663E-02 ( 442.09%)
   displ. norm   :     0.6185902 α      lambda       -0.7047443E-02
   maximum displ.:     0.3399903 α      in ANC's #9, #20, #5, ...

........................................................................
.............................. CYCLE   30 ..............................
........................................................................
   1    -83.7309198 -0.837309E+02  0.605E-02    1.34       0.0  T
   2    -83.7310329 -0.113120E-03  0.368E-02    1.32       1.0  T
   3    -83.7310629 -0.299880E-04  0.181E-02    1.33       1.0  T
   4    -83.7310630 -0.726247E-07  0.531E-03    1.33       2.9  T
   5    -83.7310636 -0.630740E-06  0.905E-04    1.33      17.1  T
   6    -83.7310637 -0.319336E-07  0.282E-04    1.33      54.6  T
   7    -83.7310637 -0.212715E-08  0.807E-05    1.33     191.2  T
   8    -83.7310637 -0.773497E-10  0.283E-05    1.33     545.7  T
     SCC iter.                  ...        0 min,  0.029 sec
     gradient                   ...        0 min,  0.085 sec
 * total energy  :   -82.9524101 Eh     change       -0.3507339E-02 Eh
   gradient norm :     0.0513818 Eh/α   predicted    -0.4872103E-02 (  38.91%)
   displ. norm   :     0.3099563 α      lambda       -0.4730490E-02
   maximum displ.:     0.1097421 α      in ANC's #2, #22, #27, ...

........................................................................
.............................. CYCLE   31 ..............................
........................................................................
   1    -83.7231098 -0.837231E+02  0.685E-02    1.36       0.0  T
   2    -83.7233322 -0.222386E-03  0.148E-02    1.37       1.0  T
   3    -83.7233364 -0.426346E-05  0.726E-03    1.38       2.1  T
   4    -83.7233368 -0.386707E-06  0.434E-03    1.38       3.6  T
   5    -83.7233370 -0.145447E-06  0.115E-03    1.38      13.4  T
   6    -83.7233370 -0.430540E-07  0.273E-04    1.38      56.5  T
   7    -83.7233370 -0.186805E-08  0.997E-05    1.38     154.7  T
   8    -83.7233370 -0.161435E-09  0.310E-05    1.38     497.6  T
     SCC iter.                  ...        0 min,  0.029 sec
     gradient                   ...        0 min,  0.085 sec
 * total energy  :   -82.9549501 Eh     change       -0.2540041E-02 Eh
   gradient norm :     0.0490685 Eh/α   predicted    -0.2592490E-02 (   2.06%)
   displ. norm   :     0.3921401 α      lambda       -0.4908767E-02
   maximum displ.:     0.1915342 α      in ANC's #5, #9, #7, ...

........................................................................
.............................. CYCLE   32 ..............................
........................................................................
   1    -83.7227521 -0.837228E+02  0.573E-02    1.41       0.0  T
   2    -83.7228427 -0.905456E-04  0.192E-02    1.42       1.0  T
   3    -83.7228541 -0.113872E-04  0.838E-03    1.42       1.8  T
   4    -83.7228545 -0.462941E-06  0.364E-03    1.42       4.2  T
   5    -83.7228546 -0.785343E-07  0.102E-03    1.42      15.2  T
   6    -83.7228546 -0.349887E-07  0.203E-04    1.42      76.1  T
   7    -83.7228546 -0.943061E-09  0.601E-05    1.42     256.9  T
   8    -83.7228546 -0.923563E-10  0.200E-05    1.42     771.6  T
     SCC iter.                  ...        0 min,  0.029 sec
     gradient                   ...        0 min,  0.085 sec
 * total energy  :   -82.9588029 Eh     change       -0.3852784E-02 Eh
   gradient norm :     0.0450219 Eh/α   predicted    -0.2831810E-02 ( -26.50%)
   displ. norm   :     0.3132225 α      lambda       -0.6658394E-02
   maximum displ.:     0.1106087 α      in ANC's #90, #5, #98, ...

........................................................................
.............................. CYCLE   33 ..............................
........................................................................
   1    -83.7240062 -0.837240E+02  0.753E-02    1.44       0.0  T
   2    -83.7241423 -0.136012E-03  0.301E-02    1.46       1.0  T
   3    -83.7241683 -0.260245E-04  0.121E-02    1.46       1.3  T
   4    -83.7241686 -0.363082E-06  0.463E-03    1.46       3.3  T
   5    -83.7241690 -0.342781E-06  0.101E-03    1.46      15.2  T
   6    -83.7241690 -0.333134E-07  0.236E-04    1.46      65.3  T
   7    -83.7241690 -0.100670E-08  0.775E-05    1.46     199.1  T
   8    -83.7241690 -0.101920E-09  0.210E-05    1.46     735.3  T
     SCC iter.                  ...        0 min,  0.029 sec
     gradient                   ...        0 min,  0.084 sec
 * total energy  :   -82.9633705 Eh     change       -0.4567584E-02 Eh
   gradient norm :     0.0505513 Eh/α   predicted    -0.3655818E-02 ( -19.96%)
   displ. norm   :     0.2688184 α      lambda       -0.5625285E-02
   maximum displ.:     0.0960105 α      in ANC's #90, #5, #98, ...

........................................................................
.............................. CYCLE   34 ..............................
........................................................................
   1    -83.7285496 -0.837285E+02  0.402E-02    1.47       0.0  T
   2    -83.7285890 -0.393215E-04  0.192E-02    1.48       1.0  T
   3    -83.7285959 -0.693946E-05  0.815E-03    1.48       1.9  T
   4    -83.7285960 -0.948516E-07  0.238E-03    1.48       6.5  T
   5    -83.7285961 -0.129343E-06  0.592E-04    1.48      26.1  T
   6    -83.7285961 -0.513809E-08  0.280E-04    1.48      55.1  T
   7    -83.7285961 -0.814182E-09  0.463E-05    1.48     333.3  T
   8    -83.7285961 -0.337650E-10  0.153E-05    1.48    1005.6  T
     SCC iter.                  ...        0 min,  0.029 sec
     gradient                   ...        0 min,  0.086 sec
 * total energy  :   -82.9674921 Eh     change       -0.4121595E-02 Eh
   gradient norm :     0.0334846 Eh/α   predicted    -0.3015901E-02 ( -26.83%)
   displ. norm   :     0.3384961 α      lambda       -0.4500665E-02
   maximum displ.:     0.1465533 α      in ANC's #90, #98, #5, ...

........................................................................
.............................. CYCLE   35 ..............................
........................................................................
   1    -83.7410385 -0.837410E+02  0.344E-02    1.50       0.0  T
   2    -83.7410818 -0.432534E-04  0.137E-02    1.50       1.1  T
   3    -83.7410846 -0.277704E-05  0.762E-03    1.50       2.0  T
   4    -83.7410848 -0.252217E-06  0.255E-03    1.50       6.1  T
   5    -83.7410849 -0.345747E-07  0.746E-04    1.50      20.7  T
   6    -83.7410849 -0.101254E-07  0.230E-04    1.50      67.0  T
   7    -83.7410849 -0.113560E-08  0.551E-05    1.50     279.8  T
   8    -83.7410849 -0.624567E-10  0.147E-05    1.50    1052.6  T
     SCC iter.                  ...        0 min,  0.031 sec
     gradient                   ...        0 min,  0.076 sec
 * total energy  :   -82.9705641 Eh     change       -0.3072007E-02 Eh
   gradient norm :     0.0327238 Eh/α   predicted    -0.2508181E-02 ( -18.35%)
   displ. norm   :     0.2348458 α      lambda       -0.1938584E-02
   maximum displ.:     0.1009013 α      in ANC's #90, #5, #98, ...

........................................................................
.............................. CYCLE   36 ..............................
........................................................................
   1    -83.7471765 -0.837472E+02  0.182E-02    1.50       0.0  T
   2    -83.7471907 -0.141880E-04  0.993E-03    1.50       1.6  T
   3    -83.7471923 -0.163767E-05  0.505E-03    1.50       3.1  T
   4    -83.7471924 -0.460526E-07  0.216E-03    1.50       7.1  T
   5    -83.7471924 -0.283168E-07  0.369E-04    1.50      41.8  T
   6    -83.7471924 -0.552014E-08  0.828E-05    1.50     186.4  T
   7    -83.7471924 -0.192387E-09  0.334E-05    1.50     461.3  T
     SCC iter.                  ...        0 min,  0.023 sec
     gradient                   ...        0 min,  0.085 sec
 * total energy  :   -82.9719214 Eh     change       -0.1357345E-02 Eh
   gradient norm :     0.0280773 Eh/α   predicted    -0.1022754E-02 ( -24.65%)
   displ. norm   :     0.1704864 α      lambda       -0.1020124E-02
   maximum displ.:     0.0634297 α      in ANC's #90, #5, #6, ...

........................................................................
.............................. CYCLE   37 ..............................
........................................................................
   1    -83.7493526 -0.837494E+02  0.298E-02    1.50       0.0  T
   2    -83.7493883 -0.357670E-04  0.145E-02    1.50       1.1  T
   3    -83.7493942 -0.587235E-05  0.513E-03    1.50       3.0  T
   4    -83.7493943 -0.559337E-07  0.290E-03    1.50       5.3  T
   5    -83.7493943 -0.269925E-07  0.633E-04    1.50      24.4  T
   6    -83.7493943 -0.177996E-07  0.123E-04    1.50     125.7  T
   7    -83.7493943 -0.162956E-09  0.559E-05    1.50     276.3  T
     SCC iter.                  ...        0 min,  0.027 sec
     gradient                   ...        0 min,  0.083 sec
 * total energy  :   -82.9725960 Eh     change       -0.6745474E-03 Eh
   gradient norm :     0.0157765 Eh/α   predicted    -0.5248894E-03 ( -22.19%)
   displ. norm   :     0.1283196 α      lambda       -0.3577829E-03
   maximum displ.:     0.0617509 α      in ANC's #7, #9, #8, ...

........................................................................
.............................. CYCLE   38 ..............................
........................................................................
   1    -83.7475319 -0.837475E+02  0.233E-02    1.49       0.0  T
   2    -83.7475513 -0.194248E-04  0.998E-03    1.49       1.5  T
   3    -83.7475545 -0.316681E-05  0.331E-03    1.49       4.7  T
   4    -83.7475545 -0.467130E-07  0.186E-03    1.49       8.3  T
   5    -83.7475545 -0.453463E-08  0.503E-04    1.49      30.7  T
   6    -83.7475545 -0.999601E-08  0.866E-05    1.49     178.2  T
   7    -83.7475545 -0.864446E-10  0.373E-05    1.49     413.6  T
     SCC iter.                  ...        0 min,  0.026 sec
     gradient                   ...        0 min,  0.084 sec
 * total energy  :   -82.9728209 Eh     change       -0.2248960E-03 Eh
   gradient norm :     0.0071561 Eh/α   predicted    -0.1818387E-03 ( -19.15%)
   displ. norm   :     0.0790828 α      lambda       -0.1286543E-03
   maximum displ.:     0.0379988 α      in ANC's #7, #3, #5, ...

........................................................................
.............................. CYCLE   39 ..............................
........................................................................
   1    -83.7475268 -0.837475E+02  0.104E-02    1.49       0.0  T
   2    -83.7475300 -0.322632E-05  0.481E-03    1.49       3.2  T
   3    -83.7475306 -0.575872E-06  0.232E-03    1.49       6.7  T
   4    -83.7475306 -0.687382E-08  0.871E-04    1.49      17.7  T
   5    -83.7475306 -0.693512E-08  0.166E-04    1.49      92.9  T
   6    -83.7475306 -0.118709E-08  0.482E-05    1.49     320.0  T
     SCC iter.                  ...        0 min,  0.022 sec
     gradient                   ...        0 min,  0.084 sec
 * total energy  :   -82.9728904 Eh     change       -0.6951310E-04 Eh
   gradient norm :     0.0036412 Eh/α   predicted    -0.6473453E-04 (  -6.87%)
   displ. norm   :     0.0719639 α      lambda       -0.5512168E-04
   maximum displ.:     0.0380217 α      in ANC's #7, #9, #3, ...

........................................................................
.............................. CYCLE   40 ..............................
........................................................................
   1    -83.7464737 -0.837465E+02  0.285E-03    1.49       0.0  T
   2    -83.7464740 -0.271083E-06  0.156E-03    1.49       9.9  T
   3    -83.7464740 -0.150809E-07  0.816E-04    1.49      18.9  T
   4    -83.7464740 -0.199876E-09  0.340E-04    1.49      45.3  T
   5    -83.7464740 -0.168849E-08  0.410E-05    1.49     376.2  T
   6    -83.7464740 -0.711111E-10  0.190E-05    1.49     811.0  T
     SCC iter.                  ...        0 min,  0.027 sec
     gradient                   ...        0 min,  0.084 sec
 * total energy  :   -82.9729245 Eh     change       -0.3410062E-04 Eh
   gradient norm :     0.0032274 Eh/α   predicted    -0.2770566E-04 ( -18.75%)
   displ. norm   :     0.0533531 α      lambda       -0.2919130E-04
   maximum displ.:     0.0230910 α      in ANC's #2, #3, #7, ...

........................................................................
.............................. CYCLE   41 ..............................
........................................................................
   1    -83.7466660 -0.837467E+02  0.345E-03    1.49       0.0  T
   2    -83.7466665 -0.530652E-06  0.184E-03    1.49       8.4  T
   3    -83.7466666 -0.816990E-07  0.584E-04    1.49      26.4  T
   4    -83.7466666  0.610640E-10  0.356E-04    1.49      43.3  T
   5    -83.7466666 -0.917396E-09  0.611E-05    1.49     252.5  T
   6    -83.7466666 -0.115676E-09  0.175E-05    1.49     880.4  T
     SCC iter.                  ...        0 min,  0.022 sec
     gradient                   ...        0 min,  0.085 sec
 * total energy  :   -82.9729461 Eh     change       -0.2158077E-04 Eh
   gradient norm :     0.0022164 Eh/α   predicted    -0.1464303E-04 ( -32.15%)
   displ. norm   :     0.0747034 α      lambda       -0.2656137E-04
   maximum displ.:     0.0367706 α      in ANC's #2, #5, #3, ...

........................................................................
.............................. CYCLE   42 ..............................
........................................................................
   1    -83.7470367 -0.837470E+02  0.352E-03    1.49       0.0  T
   2    -83.7470372 -0.483806E-06  0.160E-03    1.49       9.6  T
   3    -83.7470373 -0.680684E-07  0.527E-04    1.49      29.3  T
   4    -83.7470373 -0.384318E-09  0.293E-04    1.49      52.6  T
   5    -83.7470373 -0.434540E-09  0.573E-05    1.49     269.4  T
   6    -83.7470373 -0.123691E-09  0.167E-05    1.49     922.0  T
     SCC iter.                  ...        0 min,  0.021 sec
     gradient                   ...        0 min,  0.085 sec
 * total energy  :   -82.9729640 Eh     change       -0.1792220E-04 Eh
   gradient norm :     0.0016876 Eh/α   predicted    -0.1335883E-04 ( -25.46%)
   displ. norm   :     0.0941607 α      lambda       -0.1407762E-04
   maximum displ.:     0.0511354 α      in ANC's #2, #5, #3, ...
 * RMSD in coord.:     0.3710875 α      energy gain  -0.3021470E-01 Eh

generating ANC from model Hessian ...
Using Lindh-Hessian (1995)
 Shifting diagonal of input Hessian by   9.826728025238155E-003
 Lowest  eigenvalues of input Hessian
    0.000000    0.000000    0.000000    0.000000    0.000000    0.000000
    0.010000    0.010170    0.010554    0.010859    0.012137    0.012563
    0.012889    0.013719    0.014910    0.015450    0.016490    0.017030
 Highest eigenvalues
    2.029824    2.114584    2.182554    2.330731    2.403284    2.416033
 

........................................................................
.............................. CYCLE   43 ..............................
........................................................................
   1    -83.7471719 -0.837472E+02  0.221E-03    1.49       0.0  T
   2    -83.7471720 -0.120372E-06  0.870E-04    1.49      17.7  T
   3    -83.7471720 -0.109504E-07  0.493E-04    1.49      31.3  T
   4    -83.7471720 -0.689695E-09  0.120E-04    1.49     128.7  T
   5    -83.7471720 -0.110461E-09  0.332E-05    1.49     465.0  T
     SCC iter.                  ...        0 min,  0.018 sec
     gradient                   ...        0 min,  0.084 sec
 * total energy  :   -82.9729768 Eh     change       -0.1277792E-04 Eh
   gradient norm :     0.0018463 Eh/α   predicted     0.0000000E+00 (-100.00%)
   displ. norm   :     0.0256669 α      lambda       -0.6601312E-05
   maximum displ.:     0.0113553 α      in ANC's #2, #8, #14, ...

........................................................................
.............................. CYCLE   44 ..............................
........................................................................
   1    -83.7471997 -0.837472E+02  0.150E-03    1.49       0.0  T
   2    -83.7471998 -0.114388E-06  0.898E-04    1.49      17.2  T
   3    -83.7471998 -0.179782E-07  0.379E-04    1.49      40.7  T
   4    -83.7471998  0.838014E-10  0.200E-04    1.49      77.1  T
   5    -83.7471998 -0.351207E-09  0.265E-05    1.49     583.2  T
   6    -83.7471998 -0.195399E-10  0.946E-06    1.49    1630.7  T
     SCC iter.                  ...        0 min,  0.022 sec
     gradient                   ...        0 min,  0.084 sec
 * total energy  :   -82.9729869 Eh     change       -0.1011658E-04 Eh
   gradient norm :     0.0008726 Eh/α   predicted    -0.4653532E-05 ( -54.00%)
   displ. norm   :     0.0639263 α      lambda       -0.1229917E-04
   maximum displ.:     0.0300502 α      in ANC's #2, #8, #7, ...

........................................................................
.............................. CYCLE   45 ..............................
........................................................................
   1    -83.7471430 -0.837471E+02  0.252E-03    1.49       0.0  T
   2    -83.7471433 -0.302006E-06  0.138E-03    1.49      11.2  T
   3    -83.7471434 -0.539974E-07  0.460E-04    1.49      33.6  T
   4    -83.7471434 -0.899121E-10  0.265E-04    1.49      58.2  T
   5    -83.7471434 -0.583285E-09  0.451E-05    1.49     342.2  T
   6    -83.7471434 -0.402736E-10  0.162E-05    1.49     954.5  T
     SCC iter.                  ...        0 min,  0.022 sec
     gradient                   ...        0 min,  0.084 sec
 * total energy  :   -82.9729945 Eh     change       -0.7586705E-05 Eh
   gradient norm :     0.0012821 Eh/α   predicted    -0.6161361E-05 ( -18.79%)
   displ. norm   :     0.0300126 α      lambda       -0.5148234E-05
   maximum displ.:     0.0155278 α      in ANC's #2, #4, #8, ...

........................................................................
.............................. CYCLE   46 ..............................
........................................................................
   1    -83.7472322 -0.837472E+02  0.655E-04    1.49       0.0  T
   2    -83.7472322 -0.120897E-07  0.316E-04    1.49      48.8  T
   3    -83.7472322 -0.943430E-09  0.183E-04    1.49      84.5  T
   4    -83.7472322 -0.493401E-10  0.394E-05    1.49     391.6  T
     SCC iter.                  ...        0 min,  0.015 sec
     gradient                   ...        0 min,  0.085 sec
 * total energy  :   -82.9730002 Eh     change       -0.5722242E-05 Eh
   gradient norm :     0.0009522 Eh/α   predicted    -0.2578518E-05 ( -54.94%)
   displ. norm   :     0.0746769 α      lambda       -0.8810803E-05
   maximum displ.:     0.0390480 α      in ANC's #2, #4, #6, ...

........................................................................
.............................. CYCLE   47 ..............................
........................................................................
   1    -83.7473624 -0.837474E+02  0.121E-03    1.49       0.0  T
   2    -83.7473624 -0.534266E-07  0.523E-04    1.49      29.5  T
   3    -83.7473624 -0.339871E-08  0.254E-04    1.49      60.7  T
   4    -83.7473624 -0.568150E-10  0.124E-04    1.49     124.8  T
   5    -83.7473624 -0.225299E-09  0.222E-05    1.49     694.4  T
     SCC iter.                  ...        0 min,  0.019 sec
     gradient                   ...        0 min,  0.072 sec
 * total energy  :   -82.9730101 Eh     change       -0.9914097E-05 Eh
   gradient norm :     0.0008969 Eh/α   predicted    -0.4417572E-05 ( -55.44%)
   displ. norm   :     0.1166221 α      lambda       -0.8517488E-05
   maximum displ.:     0.0598882 α      in ANC's #2, #4, #6, ...

........................................................................
.............................. CYCLE   48 ..............................
........................................................................
   1    -83.7471577 -0.837472E+02  0.154E-03    1.49       0.0  T
   2    -83.7471578 -0.550901E-07  0.678E-04    1.49      22.8  T
   3    -83.7471578 -0.419251E-08  0.362E-04    1.49      42.6  T
   4    -83.7471578 -0.263441E-09  0.106E-04    1.49     145.0  T
   5    -83.7471578 -0.216261E-09  0.281E-05    1.49     550.0  T
     SCC iter.                  ...        0 min,  0.019 sec
     gradient                   ...        0 min,  0.098 sec
 * total energy  :   -82.9730191 Eh     change       -0.8999749E-05 Eh
   gradient norm :     0.0011018 Eh/α   predicted    -0.4285705E-05 ( -52.38%)
   displ. norm   :     0.0889365 α      lambda       -0.4960353E-05
   maximum displ.:     0.0458593 α      in ANC's #2, #4, #6, ...

........................................................................
.............................. CYCLE   49 ..............................
........................................................................
   1    -83.7472461 -0.837472E+02  0.860E-04    1.49       0.0  T
   2    -83.7472461 -0.222903E-07  0.361E-04    1.49      42.7  T
   3    -83.7472461 -0.160912E-08  0.184E-04    1.49      83.7  T
   4    -83.7472461 -0.185025E-09  0.621E-05    1.49     248.3  T
     SCC iter.                  ...        0 min,  0.015 sec
     gradient                   ...        0 min,  0.083 sec
 * total energy  :   -82.9730244 Eh     change       -0.5303187E-05 Eh
   gradient norm :     0.0007804 Eh/α   predicted    -0.2498813E-05 ( -52.88%)
   displ. norm   :     0.0752331 α      lambda       -0.3803196E-05
   maximum displ.:     0.0376437 α      in ANC's #2, #4, #6, ...

........................................................................
.............................. CYCLE   50 ..............................
........................................................................
   1    -83.7473705 -0.837474E+02  0.878E-04    1.49       0.0  T
   2    -83.7473706 -0.444274E-07  0.474E-04    1.49      32.6  T
   3    -83.7473706 -0.584907E-08  0.202E-04    1.49      76.2  T
   4    -83.7473706 -0.222059E-09  0.106E-04    1.49     145.9  T
   5    -83.7473706 -0.590745E-10  0.218E-05    1.49     707.0  T
     SCC iter.                  ...        0 min,  0.019 sec
     gradient                   ...        0 min,  0.083 sec
 * total energy  :   -82.9730285 Eh     change       -0.4045472E-05 Eh
   gradient norm :     0.0004208 Eh/α   predicted    -0.1906955E-05 ( -52.86%)
   displ. norm   :     0.0752012 α      lambda       -0.3163546E-05
   maximum displ.:     0.0358731 α      in ANC's #4, #2, #6, ...

   *** GEOMETRY OPTIMIZATION CONVERGED AFTER 50 ITERATIONS ***

------------------------------------------------------------------------
 total energy gain   :        -0.0535873 Eh      -33.6265 kcal/mol
 total RMSD          :         0.8246256 a0        0.4364 Å
 total power (kW/mol):        -2.8138688 (step)  -18.2494 (real)
------------------------------------------------------------------------

 ANCopt (total)                0 d,  0 h,  0 min,  7.710 sec
 optimizer setup                ...        0 min,  0.001 sec (  0.012%)
 model hessian                  ...        0 min,  0.109 sec (  1.409%)
 ANC generation                 ...        0 min,  0.007 sec (  0.094%)
 coordinate transformation      ...        0 min,  0.002 sec (  0.023%)
 single point calculation       ...        0 min,  7.561 sec ( 98.073%)
 optimization log               ...        0 min,  0.014 sec (  0.184%)
 hessian update                 ...        0 min,  0.002 sec (  0.020%)
 rational function              ...        0 min,  0.010 sec (  0.126%)

================
 final structure:
================
42
 xtb: 6.5.1 (579679a)
C           -3.69588047095746        3.53523844253437       -1.28169136408979
O           -3.52072197538025        2.22628330084610       -0.72507080025190
C           -2.28111167350890        1.81807289291116       -0.52893059187646
O           -1.29784975384283        2.46448275029063       -0.79298670508538
C           -2.20124250711887        0.42572359712315        0.06616004718437
C           -3.37926445202028       -0.44405074799699        0.27378138714032
O           -4.54466989688063       -0.13756036063518        0.14061837076820
C           -3.00964298759653       -1.83895346839361        0.66569594680822
O           -4.01797724368731       -2.70876719000917        0.70491201688772
N           -1.82526560330290       -2.21231235785326        0.94763492371678
C           -0.75239266685835       -1.26079249276123        0.92701908175350
C           -0.35706721455579       -0.98493339043120        2.39007640227903
C            0.42515554774676       -1.88098684652063        0.10718598612640
C            0.91980183675312       -3.16805808498583        0.76875049543778
C           -0.04942883829813       -2.14916264221619       -1.32588753746019
N            1.47892056679167       -0.86801701894244        0.08646500707122
C            2.69933935622402       -1.07410851990130       -0.44726990140831
O            3.11827537600300       -2.13732488416884       -0.87540521564951
C            3.53656968593735        0.15374687561380       -0.44374062545901
N            4.74852730917725        0.28394857195822       -0.88671189195800
N            5.10973280854570        1.58016364075484       -0.67041302707755
C            4.09570916414616        2.16191461862471       -0.10919982559915
C            3.98807187744739        3.57114342437092        0.32618206875526
O            3.06679643413890        1.31543312169487        0.06158176521534
N           -1.02154215865446        0.02271862326096        0.35135034172256
H           -3.09116027650815        3.64182562591441       -2.18471652908451
H           -4.75393666230774        3.63334093066717       -1.51500675867089
H           -3.39535131229225        4.28946681426298       -0.55150351440971
H           -4.85132208694328       -2.25436100624490        0.49115194237243
H           -1.15177744647773       -0.41324038034116        2.86443002858776
H           -0.23423241715578       -1.92767927986222        2.91737935472602
H            0.56809621090262       -0.41538761490930        2.42839034878340
H            1.57127111548426       -3.71289221201812        0.08747312911272
H            1.47650019901842       -2.94455328592620        1.67693020119792
H            0.06534296452902       -3.79637594106262        1.01659442092004
H            0.77339457472093       -2.55073633029934       -1.91563119285858
H           -0.86413682341683       -2.87125877456210       -1.31419906355984
H           -0.39843439562736       -1.22521856663429       -1.78439773506751
H            1.18857539374564        0.08319197393491        0.26759441121459
H            3.22971385102245        4.08685756275984       -0.26305371106703
H            3.68839592745011        3.61465821478599        1.37252137231261
H            4.94621766361688        4.06851841437170        0.19671494052164
 
 Bond Distances (Angstroems)
 ---------------------------
C1-O2=1.4331         C1-H26=1.0920        C1-H27=1.0879        C1-H28=1.0919        O2-C1=1.4331         O2-C3=1.3198         
C3-O2=1.3198         C3-O4=1.2060         C3-C5=1.5163         O4-C3=1.2060         C5-C3=1.5163         C5-C6=1.4790         
C5-N25=1.2788        C6-C5=1.4790         C6-O7=1.2124         C6-C8=1.4953         O7-C6=1.2124         C8-C6=1.4953         
C8-O9=1.3322         C8-N10=1.2734        O9-C8=1.3322         O9-H29=0.9730        N10-C8=1.2734        N10-C11=1.4342       
C11-N10=1.4342       C11-C12=1.5404       C11-C13=1.5631       C11-N25=1.4322       C12-C11=1.5404       C12-H30=1.0878       
C12-H31=1.0872       C12-H32=1.0871       C13-C11=1.5631       C13-C14=1.5293       C13-C15=1.5332       C13-N16=1.4618       
C14-C13=1.5293       C14-H33=1.0888       C14-H34=1.0884       C14-H35=1.0892       C15-C13=1.5332       C15-H36=1.0891       
C15-H37=1.0887       C15-H38=1.0889       N16-C13=1.4618       N16-C17=1.3479       N16-H39=1.0109       C17-N16=1.3479       
C17-O18=1.2203       C17-C19=1.4861       O18-C17=1.2203       C19-C17=1.4861       C19-N20=1.2969       C19-O24=1.3511       
N20-C19=1.2969       N20-N21=1.3629       N21-N20=1.3629       N21-C22=1.2968       C22-N21=1.2968       C22-C23=1.4789       
C22-O24=1.3433       C23-C22=1.4789       C23-H40=1.0901       C23-H41=1.0893       C23-H42=1.0873       O24-C19=1.3511       
O24-C22=1.3433       N25-C5=1.2788        N25-C11=1.4322       H26-C1=1.0920        H27-C1=1.0879        H28-C1=1.0919        
H29-O9=0.9730        H30-C12=1.0878       H31-C12=1.0872       H32-C12=1.0871       H33-C14=1.0888       H34-C14=1.0884       
H35-C14=1.0892       H36-C15=1.0891       H37-C15=1.0887       H38-C15=1.0889       H39-N16=1.0109       H40-C23=1.0901       
H41-C23=1.0893       H42-C23=1.0873       
 C  H  Rav=1.0889 sigma=0.0015  Rmin=1.0871  Rmax=1.0920    15
 C  C  Rav=1.5135 sigma=0.0285  Rmin=1.4789  Rmax=1.5631     9
 N  H  Rav=1.0109 sigma=0.0000  Rmin=1.0109  Rmax=1.0109     1
 N  C  Rav=1.3528 sigma=0.0732  Rmin=1.2734  Rmax=1.4618     8
 N  N  Rav=1.3629 sigma=0.0000  Rmin=1.3629  Rmax=1.3629     1
 O  H  Rav=0.9730 sigma=0.0000  Rmin=0.9730  Rmax=0.9730     1
 O  C  Rav=1.3023 sigma=0.0762  Rmin=1.2060  Rmax=1.4331     8
 
 selected bond angles (degree)
 --------------------
H26-C1-O2=110.04               H27-C1-O2=106.53               H27-C1-H26=110.64              H28-C1-O2=109.73               
H28-C1-H26=109.46              H28-C1-H27=110.41              C3-O2-C1=117.07                O4-C3-O2=124.57                
C5-C3-O2=113.07                C5-C3-O4=122.36                C6-C5-C3=123.58                N25-C5-C3=115.18               
N25-C5-C6=121.21               O7-C6-C5=126.98                C8-C6-C5=112.86                C8-C6-O7=120.15                
O9-C8-C6=115.45                N10-C8-C6=124.15               N10-C8-O9=120.40               H29-O9-C8=109.69               
C11-N10-C8=119.87              
 
 selected dihedral angles (degree)
 ---------------------------------
C3-O2-C1-H26= 51.31           C3-O2-C1-H27=171.28           C3-O2-C1-H28=290.81           O4-C3-O2-C1=359.49            
C5-C3-O2-C1=179.81            C6-C5-C3-O2=  6.10            C6-C5-C3-O4=186.40            N25-C5-C3-O2=184.21           
N25-C5-C3-O4=  4.52           O7-C6-C5-C3=351.78            O7-C6-C5-N25=173.78           C8-C6-C5-C3=170.71            
C8-C6-C5-N25=352.71           O9-C8-C6-C5=187.96            O9-C8-C6-O7=  6.97            N10-C8-C6-C5=  7.82           
N10-C8-C6-O7=186.83           H29-O9-C8-C6=358.08           H29-O9-C8-N10=178.21          C11-N10-C8-C6=  1.36          
C11-N10-C8-O9=181.21          
           -------------------------------------------------
          |                Final Singlepoint                |
           -------------------------------------------------

          ...................................................
          :                      SETUP                      :
          :.................................................:
          :  # basis functions                 134          :
          :  # atomic orbitals                 134          :
          :  # shells                           84          :
          :  # electrons                       134          :
          :  # halogen bonds                     0          :
          :  max. iterations                   250          :
          :  Hamiltonian                  GFN1-xTB          :
          :  restarted?                      false          :
          :  GBSA solvation                   true          :
          :  PC potential                    false          :
          :  electronic temp.          300.0000000     K    :
          :  accuracy                    1.0000000          :
          :  -> integral cutoff          0.2500000E+02      :
          :  -> integral neglect         0.1000000E-07      :
          :  -> SCF convergence          0.1000000E-05 Eh   :
          :  -> wf. convergence          0.2000000E-04 e    :
          :  Broyden damping             0.4000000          :
          ...................................................

 iter      E             dE          RMSdq      gap      omega  full diag
   1    -83.7473706 -0.837474E+02  0.768E-06    1.49       0.0  T
   2    -83.7473706 -0.625278E-12  0.356E-06    1.49    4335.2  T
   3    -83.7473706 -0.113687E-12  0.205E-06    1.49    7537.4  T

   *** convergence criteria satisfied after 3 iterations ***

         #    Occupation            Energy/Eh            Energy/eV
      -------------------------------------------------------------
         1        2.0000           -0.8649021             -23.5352
       ...           ...                  ...                  ...
        61        2.0000           -0.4796440             -13.0518
        62        2.0000           -0.4694438             -12.7742
        63        2.0000           -0.4631297             -12.6024
        64        2.0000           -0.4586712             -12.4811
        65        2.0000           -0.4512641             -12.2795
        66        2.0000           -0.4458892             -12.1333
        67        2.0000           -0.4257172             -11.5844 (HOMO)
        68                         -0.3708343             -10.0909 (LUMO)
        69                         -0.3192663              -8.6877
        70                         -0.3100245              -8.4362
        71                         -0.2565300              -6.9805
        72                         -0.2464216              -6.7055
       ...                                ...                  ...
       134                          0.7459622              20.2987
      -------------------------------------------------------------
                  HL-Gap            0.0548829 Eh            1.4934 eV
             Fermi-level           -0.3982758 Eh          -10.8376 eV

 SCC (total)                   0 d,  0 h,  0 min,  0.136 sec
 SCC setup                      ...        0 min,  0.002 sec (  1.399%)
 Dispersion                     ...        0 min,  0.000 sec (  0.250%)
 classical contributions        ...        0 min,  0.000 sec (  0.082%)
 integral evaluation            ...        0 min,  0.037 sec ( 27.116%)
 iterations                     ...        0 min,  0.012 sec (  8.585%)
 molecular gradient             ...        0 min,  0.084 sec ( 61.873%)
 printout                       ...        0 min,  0.001 sec (  0.650%)

         :::::::::::::::::::::::::::::::::::::::::::::::::::::
         ::                     SUMMARY                     ::
         :::::::::::::::::::::::::::::::::::::::::::::::::::::
         :: total energy             -82.973028459058 Eh    ::
         :: total w/o Gsasa/hb       -82.950098110315 Eh    ::
         :: gradient norm              0.000421584454 Eh/a0 ::
         :: HOMO-LUMO gap              1.493439677899 eV    ::
         ::.................................................::
         :: SCC energy               -83.747370592393 Eh    ::
         :: -> electrostatic           0.338448356172 Eh    ::
         :: -> Gsolv                  -0.051958849766 Eh    ::
         ::    -> Gelec               -0.029028501022 Eh    ::
         ::    -> Gsasa               -0.023947333732 Eh    ::
         ::    -> Ghb                 -0.006607294016 Eh    ::
         ::    -> Gshift               0.007624279005 Eh    ::
         :: repulsion energy           0.801522605470 Eh    ::
         :: dispersion energy         -0.027180472135 Eh    ::
         :: halogen bond corr.         0.000000000000 Eh    ::
         :: add. restraining           0.000000000000 Eh    ::
         :: total charge               0.000000000000 e     ::
         :::::::::::::::::::::::::::::::::::::::::::::::::::::

           -------------------------------------------------
          |                Property Printout                |
           -------------------------------------------------

    * Orbital Energies and Occupations

         #    Occupation            Energy/Eh            Energy/eV
      -------------------------------------------------------------
         1        2.0000           -0.8649021             -23.5352
       ...           ...                  ...                  ...
        55        2.0000           -0.5047087             -13.7338
        56        2.0000           -0.5017747             -13.6540
        57        2.0000           -0.4992510             -13.5853
        58        2.0000           -0.4960585             -13.4984
        59        2.0000           -0.4888173             -13.3014
        60        2.0000           -0.4877648             -13.2728
        61        2.0000           -0.4796440             -13.0518
        62        2.0000           -0.4694438             -12.7742
        63        2.0000           -0.4631297             -12.6024
        64        2.0000           -0.4586712             -12.4811
        65        2.0000           -0.4512641             -12.2795
        66        2.0000           -0.4458892             -12.1333
        67        2.0000           -0.4257172             -11.5844 (HOMO)
        68                         -0.3708343             -10.0909 (LUMO)
        69                         -0.3192663              -8.6877
        70                         -0.3100245              -8.4362
        71                         -0.2565300              -6.9805
        72                         -0.2464216              -6.7055
        73                         -0.1983220              -5.3966
        74                         -0.1887233              -5.1354
        75                         -0.1422912              -3.8719
        76                         -0.1384005              -3.7661
        77                         -0.1349957              -3.6734
        78                         -0.1214865              -3.3058
       ...                                ...                  ...
       134                          0.7459622              20.2987
      -------------------------------------------------------------
                  HL-Gap            0.0548829 Eh            1.4934 eV
             Fermi-level           -0.3982758 Eh          -10.8376 eV

  Mulliken/CM5 charges         n(s)   n(p)   n(d)
     1C     0.16073  0.03969   0.983  2.856  0.000
     2O    -0.39569 -0.48008   1.681  4.715  0.000
     3C     0.58415  0.65288   0.966  2.450  0.000
     4O    -0.54309 -0.58744   1.722  4.821  0.000
     5C     0.12641  0.22044   1.072  2.801  0.000
     6C     0.35327  0.39995   1.055  2.592  0.000
     7O    -0.49282 -0.54190   1.732  4.761  0.000
     8C     0.39547  0.50782   0.990  2.614  0.000
     9O    -0.50750 -0.69516   1.692  4.816  0.000
    10N    -0.37945 -0.57066   1.541  3.838  0.000
    11C     0.25219  0.36128   1.044  2.704  0.000
    12C    -0.08535 -0.21859   1.024  3.062  0.000
    13C     0.16685  0.20778   1.072  2.761  0.000
    14C    -0.10419 -0.24402   1.017  3.087  0.000
    15C    -0.10637 -0.24393   1.019  3.087  0.000
    16N    -0.33989 -0.69569   1.433  3.907  0.000
    17C     0.46882  0.57763   0.976  2.555  0.000
    18O    -0.57945 -0.62377   1.727  4.853  0.000
    19C     0.33031  0.45605   1.009  2.661  0.000
    20N    -0.22416 -0.32802   1.566  3.658  0.000
    21N    -0.26973 -0.37744   1.564  3.705  0.000
    22C     0.39160  0.50022   1.007  2.601  0.000
    23C    -0.11053 -0.24796   1.012  3.099  0.000
    24O    -0.35640 -0.41318   1.696  4.660  0.000
    25N    -0.28222 -0.47942   1.559  3.724  0.000
    26H     0.05864  0.12113   0.941  0.000  0.000
    27H     0.06138  0.12174   0.939  0.000  0.000
    28H     0.05841  0.11930   0.942  0.000  0.000
    29H     0.41500  0.59520   0.585  0.000  0.000
    30H     0.05942  0.11883   0.941  0.000  0.000
    31H     0.06020  0.11837   0.940  0.000  0.000
    32H     0.05832  0.11895   0.942  0.000  0.000
    33H     0.05948  0.11928   0.941  0.000  0.000
    34H     0.04437  0.10220   0.956  0.000  0.000
    35H     0.04379  0.10286   0.956  0.000  0.000
    36H     0.05721  0.11605   0.943  0.000  0.000
    37H     0.04572  0.10454   0.954  0.000  0.000
    38H     0.04315  0.10427   0.957  0.000  0.000
    39H     0.25436  0.46835   0.746  0.000  0.000
    40H     0.07998  0.13434   0.920  0.000  0.000
    41H     0.07857  0.13329   0.921  0.000  0.000
    42H     0.06901  0.12482   0.931  0.000  0.000

Wiberg/Mayer (AO) data.
largest (>0.10) Wiberg bond orders for each atom

 ---------------------------------------------------------------------------
     #   Z sym  total        # sym  WBO       # sym  WBO       # sym  WBO
 ---------------------------------------------------------------------------
     1   6 C    3.861 --    27 H    0.985    26 H    0.979    28 H    0.978
                             2 O    0.887
     2   8 O    2.228 --     3 C    1.147     1 C    0.887     4 O    0.146
     3   6 C    3.853 --     4 O    1.679     2 O    1.147     5 C    0.950
     4   8 O    1.943 --     3 C    1.679     2 O    0.146
     5   6 C    3.955 --    25 N    1.759     6 C    1.020     3 C    0.950
     6   6 C    3.881 --     7 O    1.731     5 C    1.020     8 C    0.974
     7   8 O    1.998 --     6 C    1.731
     8   6 C    3.904 --    10 N    1.692     9 O    1.110     6 C    0.974
     9   8 O    2.089 --     8 C    1.110    29 H    0.806    10 N    0.119
    10   7 N    3.039 --     8 C    1.692    11 C    0.995     9 O    0.119
    11   6 C    3.932 --    25 N    0.996    10 N    0.995    12 C    0.932
                            13 C    0.912
    12   6 C    3.983 --    30 H    0.983    32 H    0.982    31 H    0.980
                            11 C    0.932
    13   6 C    3.931 --    14 C    0.999    15 C    0.990    16 N    0.931
                            11 C    0.912
    14   6 C    3.989 --    13 C    0.999    34 H    0.984    35 H    0.983
                            33 H    0.977
    15   6 C    3.990 --    13 C    0.990    38 H    0.984    37 H    0.984
                            36 H    0.982
    16   7 N    3.353 --    17 C    1.259    13 C    0.931    39 H    0.887
                            18 O    0.176
    17   6 C    3.917 --    18 O    1.584    16 N    1.259    19 C    0.991
    18   8 O    1.899 --    17 C    1.584    16 N    0.176
    19   6 C    3.872 --    20 N    1.623    24 O    1.048    17 C    0.991
    20   7 N    2.999 --    19 C    1.623    21 N    1.198
    21   7 N    2.981 --    22 C    1.611    20 N    1.198
    22   6 C    3.869 --    21 N    1.611    24 O    1.073    23 C    1.032
    23   6 C    3.986 --    22 C    1.032    42 H    0.982    41 H    0.965
                            40 H    0.961
    24   8 O    2.317 --    22 C    1.073    19 C    1.048
    25   7 N    3.050 --     5 C    1.759    11 C    0.996
    26   1 H    1.006 --     1 C    0.979
    27   1 H    1.009 --     1 C    0.985
    28   1 H    1.004 --     1 C    0.978
    29   1 H    0.841 --     9 O    0.806
    30   1 H    1.001 --    12 C    0.983
    31   1 H    1.003 --    12 C    0.980
    32   1 H    1.001 --    12 C    0.982
    33   1 H    1.011 --    14 C    0.977
    34   1 H    1.002 --    14 C    0.984
    35   1 H    1.011 --    14 C    0.983
    36   1 H    1.005 --    15 C    0.982
    37   1 H    1.004 --    15 C    0.984
    38   1 H    1.004 --    15 C    0.984
    39   1 H    0.957 --    16 N    0.887
    40   1 H    0.997 --    23 C    0.961
    41   1 H    0.997 --    23 C    0.965
    42   1 H    0.999 --    23 C    0.982
 ---------------------------------------------------------------------------

Topologies differ in total number of bonds
Writing topology from bond orders to xtbtopo.mol

 dipole moment from electron density (au)
     X       Y       Z   
  -3.1264   2.7150   1.5435  total (Debye):   11.232

           -------------------------------------------------
          |                Geometry Summary                 |
           -------------------------------------------------

      molecular mass/u    :      351.3152409
   center of mass at/Å    :        0.0051469      -0.0360786      -0.0162022
  moments of inertia/u·Å² :        0.1591561E+04   0.3449738E+04   0.4622311E+04
rotational constants/cm⁻¹ :        0.1059189E-01   0.4886641E-02   0.3647014E-02

 * 36 selected distances

     #   Z          #   Z                                           value/Å
     1   6 C        2   8 O                                       1.4331332
     2   8 O        3   6 C                                       1.3197503
     3   6 C        4   8 O                                       1.2059750
     6   6 C        7   8 O                                       1.2123691
     8   6 C        9   8 O                                       1.3322358
     8   6 C       10   7 N                                       1.2734349
    11   6 C       12   6 C                                       1.5404277 (max)
    13   6 C       14   6 C                                       1.5293447
    13   6 C       15   6 C                                       1.5332478
    13   6 C       16   7 N                                       1.4618339
    16   7 N       17   6 C                                       1.3478757
    17   6 C       18   8 O                                       1.2203428
    19   6 C       20   7 N                                       1.2969262
    21   7 N       22   6 C                                       1.2967801
    22   6 C       23   6 C                                       1.4788744
    19   6 C       24   8 O                                       1.3511302
    22   6 C       24   8 O                                       1.3432643
     5   6 C       25   7 N                                       1.2788431
    11   6 C       25   7 N                                       1.4322141
     1   6 C       26   1 H                                       1.0920174
     1   6 C       27   1 H                                       1.0879078
     1   6 C       28   1 H                                       1.0919491
     9   8 O       29   1 H                                       0.9729554 (min)
    12   6 C       30   1 H                                       1.0878460
    12   6 C       31   1 H                                       1.0871554
    12   6 C       32   1 H                                       1.0870961
    14   6 C       33   1 H                                       1.0887587
    14   6 C       34   1 H                                       1.0884200
    14   6 C       35   1 H                                       1.0891786
    15   6 C       36   1 H                                       1.0890811
    15   6 C       37   1 H                                       1.0887189
    15   6 C       38   1 H                                       1.0889028
    16   7 N       39   1 H                                       1.0108941
    23   6 C       40   1 H                                       1.0900766
    23   6 C       41   1 H                                       1.0892775
    23   6 C       42   1 H                                       1.0872843

 * 6 distinct bonds (by element types)

   Z      Z             #   av. dist./Å        max./Å        min./Å
   1 H    6 C          15     1.0889113     1.0920174     1.0870961
   6 C    6 C           4     1.5204737     1.5404277     1.4788744
   1 H    7 N           1     1.0108941     1.0108941     1.0108941
   6 C    7 N           7     1.3411297     1.4618339     1.2734349
   1 H    8 O           1     0.9729554     0.9729554     0.9729554
   6 C    8 O           8     1.3022751     1.4331332     1.2059750


optimized geometry written to: xtbopt.xyz


           -------------------------------------------------
          | TOTAL ENERGY              -82.973028459058 Eh   |
          | GRADIENT NORM               0.000421584454 Eh/α |
          | HOMO-LUMO GAP               1.493439677899 eV   |
           -------------------------------------------------

------------------------------------------------------------------------
 * finished run on 2023/06/20 at 18:18:15.326     
------------------------------------------------------------------------
 total:
 * wall-time:     0 d,  0 h,  0 min,  8.158 sec
 *  cpu-time:     0 d,  0 h,  0 min,  7.837 sec
 * ratio c/w:     0.961 speedup
 SCF:
 * wall-time:     0 d,  0 h,  0 min,  0.200 sec
 *  cpu-time:     0 d,  0 h,  0 min,  0.172 sec
 * ratio c/w:     0.863 speedup
 ANC optimizer:
 * wall-time:     0 d,  0 h,  0 min,  7.853 sec
 *  cpu-time:     0 d,  0 h,  0 min,  7.611 sec
 * ratio c/w:     0.969 speedup

