      -----------------------------------------------------------      
     |                   =====================                   |     
     |                           x T B                           |     
     |                   =====================                   |     
     |                         S. Grimme                         |     
     |          Mulliken Center for Theoretical Chemistry        |     
     |                    University of Bonn                     |     
      -----------------------------------------------------------      

   * xtb version 6.5.1 (579679a) compiled by 'ehlert@majestix' on 2022-07-11

   xtb is free software: you can redistribute it and/or modify it under
   the terms of the GNU Lesser General Public License as published by
   the Free Software Foundation, either version 3 of the License, or
   (at your option) any later version.
   
   xtb is distributed in the hope that it will be useful,
   but WITHOUT ANY WARRANTY; without even the implied warranty of
   MERCHANTABILITY or FITNESS FOR A PARTICULAR PURPOSE.  See the
   GNU Lesser General Public License for more details.
   
   Cite this work as:
   * C. Bannwarth, E. Caldeweyher, S. Ehlert, A. Hansen, P. Pracht,
     J. Seibert, S. Spicher, S. Grimme, WIREs Comput. Mol. Sci., 2020, 11,
     e01493. DOI: 10.1002/wcms.1493
   
   for GFN2-xTB:
   * C. Bannwarth, S. Ehlert and S. Grimme., J. Chem. Theory Comput., 2019,
     15, 1652-1671. DOI: 10.1021/acs.jctc.8b01176
   for GFN1-xTB:
   * S. Grimme, C. Bannwarth, P. Shushkov, J. Chem. Theory Comput., 2017,
     13, 1989-2009. DOI: 10.1021/acs.jctc.7b00118
   for GFN0-xTB:
   * P. Pracht, E. Caldeweyher, S. Ehlert, S. Grimme, ChemRxiv, 2019, preprint.
     DOI: 10.26434/chemrxiv.8326202.v1
   for GFN-FF:
   * S. Spicher and S. Grimme, Angew. Chem. Int. Ed., 2020, 59, 15665-15673.
     DOI: 10.1002/anie.202004239
   
   for ALPB and GBSA implicit solvation:
   * S. Ehlert, M. Stahn, S. Spicher, S. Grimme, J. Chem. Theory Comput.,
     2021, 17, 4250-4261. DOI: 10.1021/acs.jctc.1c00471
   
   for DFT-D4:
   * E. Caldeweyher, C. Bannwarth and S. Grimme, J. Chem. Phys., 2017,
     147, 034112. DOI: 10.1063/1.4993215
   * E. Caldeweyher, S. Ehlert, A. Hansen, H. Neugebauer, S. Spicher,
     C. Bannwarth and S. Grimme, J. Chem. Phys., 2019, 150, 154122.
     DOI: 10.1063/1.5090222
   * E. Caldeweyher, J.-M. Mewes, S. Ehlert and S. Grimme, Phys. Chem. Chem. Phys.
     2020, 22, 8499-8512. DOI: 10.1039/D0CP00502A
   
   for sTDA-xTB:
   * S. Grimme and C. Bannwarth, J. Chem. Phys., 2016, 145, 054103.
     DOI: 10.1063/1.4959605
   
   in the mass-spec context:
   * V. Asgeirsson, C. Bauer and S. Grimme, Chem. Sci., 2017, 8, 4879.
     DOI: 10.1039/c7sc00601b
   * J. Koopman and S. Grimme, ACS Omega 2019, 4, 12, 15120-15133.
     DOI: 10.1021/acsomega.9b02011
   
   for metadynamics refer to:
   * S. Grimme, J. Chem. Theory Comput., 2019, 155, 2847-2862
     DOI: 10.1021/acs.jctc.9b00143
   
   for SPH calculations refer to:
   * S. Spicher and S. Grimme, J. Chem. Theory Comput., 2021, 17, 1701-1714
     DOI: 10.1021/acs.jctc.0c01306
   
   with help from (in alphabetical order)
   P. Atkinson, C. Bannwarth, F. Bohle, G. Brandenburg, E. Caldeweyher
   M. Checinski, S. Dohm, S. Ehlert, S. Ehrlich, I. Gerasimov, C. Hölzer
   A. Katbashev, J. Koopman, C. Lavigne, S. Lehtola, F. März, M. Müller,
   F. Musil, H. Neugebauer, J. Pisarek, C. Plett, P. Pracht, F. Pultar,
   J. Seibert, P. Shushkov, S. Spicher, M. Stahn, M. Steiner, T. Strunk,
   J. Stückrath, T. Rose, and J. Unsleber
   
 * started run on 2023/06/21 at 17:35:18.082     

           -------------------------------------------------
          |                Calculation Setup                |
           -------------------------------------------------

          program call               : /lustre/hpc/kemi/ree/PhD/git/ReactivityQM/dep/xtb-6.5.1/bin/xtb --gfn 1 /lustre/hpc/kemi/ree/PhD/git/ReactivityQM/calculations/R02oxygendeprot/reac01prodN15/conf12/R02oxygendeprot_reac01prodN15_conf12_gfn1.xyz --opt --vfukui --chrg 0 --uhf 0 --alpb DMSO
          hostname                   : node070
          coordinate file            : /lustre/hpc/kemi/ree/PhD/git/ReactivityQM/calculations/R02oxygendeprot/reac01prodN15/conf12/R02oxygendeprot_reac01prodN15_conf12_gfn1.xyz
          omp threads                :                     1

   ID    Z sym.   atoms
    1    6 C      1, 3, 5, 7-10, 12, 14, 17, 18, 21, 23, 24
    2    8 O      2, 4, 13, 19, 22, 25
    3    7 N      6, 11, 15, 16, 20
    4    1 H      26-42

           -------------------------------------------------
          |                 G F N 1 - x T B                 |
           -------------------------------------------------

        Reference                      10.1021/acs.jctc.7b00118
      * Hamiltonian:
        H0-scaling (s, p, d)           1.850000    2.250000    2.000000
        zeta-weighting                 0.000000
      * Dispersion:
        s8                             2.400000
        a1                             0.630000
        a2                             5.000000
        s9                             0.000000
      * Repulsion:
        kExp                           1.500000
        rExp                           1.000000
      * Coulomb:
        alpha                          2.000000
        third order                    atomic
        anisotropic                    false
      * Halogen bond correction:
        rad-scale                      1.300000
        damping                        0.440000

      * Solvation model:               ALPB
        Solvent                        DMSO
        Parameter file                 internal GFN1-xTB/ALPB
        Dielectric constant                4.6680E+01
        Reference state                gsolv [1 M gas/solution]
        Free energy shift                  7.6243E-03 Eh       4.7843E+00 kcal/mol
        Temperature                        2.9815E+02 K
        Density                            1.1000E+00 kg/L
        Solvent mass                       7.8130E+01 g/mol
        Interaction kernel             P16
        Born radius scaling (c1)           1.7672E+00
        Born radii integrator          GBOBC
        Born offset                        0.0000E+00 a0       0.0000E+00 AA
        H-bond correction              true
        Ion screening                  false
        Surface tension                    1.0000E-05 Eh       1.5569E+01 dyn/cm
        Grid points                               230 per atom

          ...................................................
          :                      SETUP                      :
          :.................................................:
          :  # basis functions                 134          :
          :  # atomic orbitals                 134          :
          :  # shells                           84          :
          :  # electrons                       134          :
          :  # halogen bonds                     0          :
          :  max. iterations                   250          :
          :  Hamiltonian                  GFN1-xTB          :
          :  restarted?                      false          :
          :  GBSA solvation                   true          :
          :  PC potential                    false          :
          :  electronic temp.          300.0000000     K    :
          :  accuracy                    1.0000000          :
          :  -> integral cutoff          0.2500000E+02      :
          :  -> integral neglect         0.1000000E-07      :
          :  -> SCF convergence          0.1000000E-05 Eh   :
          :  -> wf. convergence          0.2000000E-04 e    :
          :  Broyden damping             0.4000000          :
          ...................................................

 iter      E             dE          RMSdq      gap      omega  full diag
   1    -83.1996746 -0.831997E+02  0.843E+00    1.31       0.0  T
   2    -83.3290221 -0.129348E+00  0.551E+00    0.08       1.0  T
   3    -83.3916431 -0.626210E-01  0.319E+00    1.72       1.0  T
   4    -83.5757399 -0.184097E+00  0.125E+00    1.26       1.0  T
   5    -83.6278139 -0.520740E-01  0.551E-01    0.46       1.0  T
   6    -83.2653047  0.362509E+00  0.223E+00    0.10       1.0  T
   7    -83.6271940 -0.361889E+00  0.550E-01    0.46       1.0  T
   8    -83.6372803 -0.100863E-01  0.349E-01    0.27       1.0  T
   9    -83.6426574 -0.537706E-02  0.198E-01    0.19       1.0  T
  10    -83.6443186 -0.166119E-02  0.125E-01    0.17       1.0  T
  11    -83.6454657 -0.114718E-02  0.209E-02    0.14       1.0  T
  12    -83.6454944 -0.286753E-04  0.587E-03    0.14       2.6  T
  13    -83.6454844  0.100402E-04  0.130E-02    0.14       1.2  T
  14    -83.6454810  0.338732E-05  0.144E-02    0.14       1.1  T
  15    -83.6454947 -0.137393E-04  0.547E-03    0.14       2.8  T
  16    -83.6454970 -0.227496E-05  0.736E-04    0.14      21.0  T
  17    -83.6454970 -0.383466E-07  0.220E-04    0.14      70.2  T
  18    -83.6454971 -0.267434E-08  0.119E-04    0.14     129.8  T
  19    -83.6454971 -0.102162E-08  0.251E-05    0.14     614.9  T

   *** convergence criteria satisfied after 19 iterations ***

         #    Occupation            Energy/Eh            Energy/eV
      -------------------------------------------------------------
         1        2.0000           -0.8691126             -23.6498
       ...           ...                  ...                  ...
        61        2.0000           -0.4750697             -12.9273
        62        2.0000           -0.4708922             -12.8136
        63        2.0000           -0.4687467             -12.7552
        64        2.0000           -0.4514875             -12.2856
        65        2.0000           -0.4499374             -12.2434
        66        1.9996           -0.4206327             -11.4460
        67        1.8750           -0.4151598             -11.2971 (HOMO)
        68        0.1254           -0.4100179             -11.1572 (LUMO)
        69                         -0.3254999              -8.8573
        70                         -0.3243519              -8.8261
        71                         -0.2723452              -7.4109
        72                         -0.2633703              -7.1667
       ...                                ...                  ...
       134                          0.6832059              18.5910
      -------------------------------------------------------------
                  HL-Gap            0.0051419 Eh            0.1399 eV
             Fermi-level           -0.4125872 Eh          -11.2271 eV

 SCC (total)                   0 d,  0 h,  0 min,  0.189 sec
 SCC setup                      ...        0 min,  0.002 sec (  1.006%)
 Dispersion                     ...        0 min,  0.000 sec (  0.146%)
 classical contributions        ...        0 min,  0.000 sec (  0.052%)
 integral evaluation            ...        0 min,  0.025 sec ( 13.419%)
 iterations                     ...        0 min,  0.102 sec ( 53.708%)
 molecular gradient             ...        0 min,  0.059 sec ( 30.907%)
 printout                       ...        0 min,  0.001 sec (  0.750%)

         :::::::::::::::::::::::::::::::::::::::::::::::::::::
         ::                     SUMMARY                     ::
         :::::::::::::::::::::::::::::::::::::::::::::::::::::
         :: total energy             -82.895905258501 Eh    ::
         :: total w/o Gsasa/hb       -82.874964345407 Eh    ::
         :: gradient norm              0.121560088400 Eh/a0 ::
         :: HOMO-LUMO gap              0.139917659271 eV    ::
         ::.................................................::
         :: SCC energy               -83.645497053362 Eh    ::
         :: -> electrostatic           0.396902705392 Eh    ::
         :: -> Gsolv                  -0.067569367726 Eh    ::
         ::    -> Gelec               -0.046628454632 Eh    ::
         ::    -> Gsasa               -0.024062159888 Eh    ::
         ::    -> Ghb                 -0.004503032210 Eh    ::
         ::    -> Gshift               0.007624279005 Eh    ::
         :: repulsion energy           0.775575919146 Eh    ::
         :: dispersion energy         -0.025984124285 Eh    ::
         :: halogen bond corr.         0.000000000000 Eh    ::
         :: add. restraining           0.000000000000 Eh    ::
         :: total charge               0.000000000527 e     ::
         :::::::::::::::::::::::::::::::::::::::::::::::::::::

      ----------------------------------------------------------- 
     |                   =====================                   |
     |                        A N C O P T                        |
     |                   =====================                   |
     |               Approximate Normal Coordinate               |
     |                Rational Function Optimizer                |
      ----------------------------------------------------------- 

          ...................................................
          :                      SETUP                      :
          :.................................................:
          :   optimization level            normal          :
          :   max. optcycles                   200          :
          :   ANC micro-cycles                  20          :
          :   degrees of freedom               120          :
          :.................................................:
          :   RF solver                   davidson          :
          :   write xtbopt.log                true          :
          :   linear?                        false          :
          :   energy convergence         0.5000000E-05 Eh   :
          :   grad. convergence          0.1000000E-02 Eh/α :
          :   maximium RF displ.         1.0000000          :
          :   Hlow (freq-cutoff)         0.1000000E-01      :
          :   Hmax (freq-cutoff)         5.0000000          :
          :   S6 in model hess.         20.0000000          :
          ...................................................

generating ANC from model Hessian ...
Using Lindh-Hessian (1995)
 Shifting diagonal of input Hessian by   9.788943824655821E-003
 Lowest  eigenvalues of input Hessian
    0.000000    0.000000    0.000000    0.000000    0.000000    0.000000
    0.010000    0.010024    0.010690    0.011612    0.011906    0.012357
    0.012709    0.013931    0.014299    0.015913    0.016745    0.017742
 Highest eigenvalues
    1.967261    2.113207    2.146234    2.287754    2.347034    2.385674
 

........................................................................
.............................. CYCLE    1 ..............................
........................................................................
   1    -83.6454971 -0.836455E+02  0.222E-06    0.14       0.0  T
   2    -83.6454971  0.207478E-10  0.165E-05    0.14     936.1  T
   3    -83.6454971 -0.212168E-10  0.527E-07    0.14   29254.3  T
     SCC iter.                  ...        0 min,  0.016 sec
     gradient                   ...        0 min,  0.057 sec
 * total energy  :   -82.8959053 Eh     change       -0.4989431E-10 Eh
   gradient norm :     0.1215609 Eh/α   predicted     0.0000000E+00 (-100.00%)
   displ. norm   :     0.4243830 α      lambda       -0.2463753E-01
   maximum displ.:     0.1672104 α      in ANC's #19, #12, #40, ...

........................................................................
.............................. CYCLE    2 ..............................
........................................................................
   1    -83.6721000 -0.836721E+02  0.154E-01    0.50       0.0  T
   2    -83.6707590  0.134099E-02  0.184E-01    0.61       1.0  T
   3    -83.6730335 -0.227454E-02  0.648E-02    0.50       1.0  T
   4    -83.6732590 -0.225509E-03  0.157E-02    0.52       1.0  T
   5    -83.6732565  0.250360E-05  0.838E-03    0.52       1.8  T
   6    -83.6732598 -0.330546E-05  0.152E-03    0.52      10.2  T
   7    -83.6732599 -0.568506E-07  0.653E-04    0.52      23.6  T
   8    -83.6732599 -0.274149E-07  0.117E-04    0.52     132.4  T
   9    -83.6732599 -0.752038E-10  0.460E-05    0.52     335.4  T
     SCC iter.                  ...        0 min,  0.047 sec
     gradient                   ...        0 min,  0.059 sec
 * total energy  :   -82.9160957 Eh     change       -0.2019040E-01 Eh
   gradient norm :     0.0712614 Eh/α   predicted    -0.1458971E-01 ( -27.74%)
   displ. norm   :     0.6348434 α      lambda       -0.2676308E-01
   maximum displ.:     0.2066116 α      in ANC's #19, #39, #29, ...

........................................................................
.............................. CYCLE    3 ..............................
........................................................................
   1    -83.6980926 -0.836981E+02  0.354E-01    1.47       0.0  T
   2    -83.7003074 -0.221479E-02  0.242E-01    1.61       1.0  T
   3    -83.7046156 -0.430818E-02  0.555E-02    1.53       1.0  T
   4    -83.7046716 -0.559724E-04  0.278E-02    1.54       1.0  T
   5    -83.7046753 -0.369044E-05  0.117E-02    1.54       1.3  T
   6    -83.7046792 -0.397586E-05  0.131E-03    1.54      11.8  T
   7    -83.7046793 -0.496862E-07  0.447E-04    1.54      34.5  T
   8    -83.7046793 -0.414535E-08  0.242E-04    1.54      63.8  T
   9    -83.7046793 -0.116296E-08  0.926E-05    1.54     166.7  T
  10    -83.7046793 -0.300858E-09  0.144E-05    1.54    1072.2  T
     SCC iter.                  ...        0 min,  0.052 sec
     gradient                   ...        0 min,  0.059 sec
 * total energy  :   -82.9352724 Eh     change       -0.1917676E-01 Eh
   gradient norm :     0.0721293 Eh/α   predicted    -0.1877466E-01 (  -2.10%)
   displ. norm   :     0.5989533 α      lambda       -0.1914746E-01
   maximum displ.:     0.2049860 α      in ANC's #19, #39, #38, ...

........................................................................
.............................. CYCLE    4 ..............................
........................................................................
   1    -83.7238159 -0.837238E+02  0.344E-01    2.78       0.0  T
   2    -83.7293927 -0.557682E-02  0.114E-01    2.81       1.0  T
   3    -83.7300430 -0.650338E-03  0.394E-02    2.78       1.0  T
   4    -83.7300679 -0.248380E-04  0.183E-02    2.78       1.0  T
   5    -83.7300682 -0.345639E-06  0.499E-03    2.78       3.1  T
   6    -83.7300686 -0.344330E-06  0.108E-03    2.78      14.3  T
   7    -83.7300686 -0.404921E-07  0.390E-04    2.79      39.6  T
   8    -83.7300686 -0.129968E-08  0.150E-04    2.79     103.2  T
   9    -83.7300686 -0.190440E-09  0.358E-05    2.79     430.5  T
     SCC iter.                  ...        0 min,  0.047 sec
     gradient                   ...        0 min,  0.059 sec
 * total energy  :   -82.9552714 Eh     change       -0.1999899E-01 Eh
   gradient norm :     0.1310889 Eh/α   predicted    -0.1300826E-01 ( -34.96%)
   displ. norm   :     0.4970473 α      lambda       -0.2499508E-01
   maximum displ.:     0.1470184 α      in ANC's #19, #38, #67, ...

........................................................................
.............................. CYCLE    5 ..............................
........................................................................
   1    -83.7526014 -0.837526E+02  0.257E-01    3.48       0.0  T
   2    -83.7563966 -0.379516E-02  0.904E-02    3.56       1.0  T
   3    -83.7565886 -0.192006E-03  0.357E-02    3.54       1.0  T
   4    -83.7565977 -0.910704E-05  0.219E-02    3.55       1.0  T
   5    -83.7565991 -0.142224E-05  0.345E-03    3.55       4.5  T
   6    -83.7565993 -0.201461E-06  0.724E-04    3.55      21.3  T
   7    -83.7565994 -0.132967E-07  0.296E-04    3.55      52.2  T
   8    -83.7565994 -0.102932E-08  0.120E-04    3.55     128.6  T
   9    -83.7565994 -0.116557E-09  0.250E-05    3.55     617.5  T
     SCC iter.                  ...        0 min,  0.047 sec
     gradient                   ...        0 min,  0.059 sec
 * total energy  :   -82.9800861 Eh     change       -0.2481464E-01 Eh
   gradient norm :     0.1561594 Eh/α   predicted    -0.1558514E-01 ( -37.19%)
   displ. norm   :     0.7192156 α      lambda       -0.6281390E-01
   maximum displ.:     0.3032672 α      in ANC's #66, #67, #76, ...

........................................................................
.............................. CYCLE    6 ..............................
........................................................................
   1    -83.7194241 -0.837194E+02  0.699E-01    3.00       0.0  T
   2    -83.7517566 -0.323326E-01  0.273E-01    3.27       1.0  T
   3    -83.7538690 -0.211238E-02  0.120E-01    3.24       1.0  T
   4    -83.7538806 -0.116002E-04  0.602E-02    3.26       1.0  T
   5    -83.7538872 -0.660570E-05  0.747E-03    3.26       2.1  T
   6    -83.7538887 -0.150656E-05  0.128E-03    3.26      12.0  T
   7    -83.7538888 -0.281515E-07  0.401E-04    3.26      38.5  T
   8    -83.7538888 -0.296912E-08  0.105E-04    3.26     146.6  T
   9    -83.7538888 -0.172932E-09  0.399E-05    3.26     387.0  T
     SCC iter.                  ...        0 min,  0.047 sec
     gradient                   ...        0 min,  0.059 sec
 * total energy  :   -82.9037191 Eh     change        0.7636693E-01 Eh
   gradient norm :     0.6255113 Eh/α   predicted    -0.4765288E-01 (-162.40%)
   displ. norm   :     0.4650603 α      lambda       -0.2666394E+00
   maximum displ.:     0.1810828 α      in ANC's #76, #67, #66, ...

........................................................................
.............................. CYCLE    7 ..............................
........................................................................
   1    -83.7475876 -0.837476E+02  0.575E-01    3.54       0.0  T
   2    -83.7620924 -0.145048E-01  0.178E-01    3.49       1.0  T
   3    -83.7632557 -0.116330E-02  0.784E-02    3.52       1.0  T
   4    -83.7632702 -0.145061E-04  0.430E-02    3.51       1.0  T
   5    -83.7632703 -0.798326E-07  0.657E-03    3.50       2.3  T
   6    -83.7632717 -0.139049E-05  0.915E-04    3.50      16.9  T
   7    -83.7632717 -0.169669E-07  0.293E-04    3.50      52.6  T
   8    -83.7632717 -0.161573E-08  0.931E-05    3.50     165.7  T
   9    -83.7632717 -0.120693E-09  0.367E-05    3.50     420.6  T
     SCC iter.                  ...        0 min,  0.047 sec
     gradient                   ...        0 min,  0.058 sec
 * total energy  :   -82.9997446 Eh     change       -0.9602545E-01 Eh
   gradient norm :     0.0555066 Eh/α   predicted    -0.1621543E+00 (  68.87%)
   displ. norm   :     0.2968265 α      lambda       -0.8484703E-02
   maximum displ.:     0.1386106 α      in ANC's #27, #7, #6, ...

........................................................................
.............................. CYCLE    8 ..............................
........................................................................
   1    -83.7704800 -0.837705E+02  0.581E-02    3.60       0.0  T
   2    -83.7706780 -0.197953E-03  0.196E-02    3.60       1.0  T
   3    -83.7706826 -0.458694E-05  0.118E-02    3.60       1.3  T
   4    -83.7706827 -0.133413E-06  0.572E-03    3.60       2.7  T
   5    -83.7706828 -0.122918E-06  0.610E-04    3.60      25.3  T
   6    -83.7706828 -0.104637E-07  0.167E-04    3.60      92.2  T
   7    -83.7706828 -0.412243E-09  0.422E-05    3.60     365.9  T
     SCC iter.                  ...        0 min,  0.036 sec
     gradient                   ...        0 min,  0.058 sec
 * total energy  :   -83.0026666 Eh     change       -0.2922000E-02 Eh
   gradient norm :     0.0471540 Eh/α   predicted    -0.4616049E-02 (  57.98%)
   displ. norm   :     0.2182584 α      lambda       -0.5105945E-02
   maximum displ.:     0.0841768 α      in ANC's #5, #7, #40, ...

........................................................................
.............................. CYCLE    9 ..............................
........................................................................
   1    -83.7757348 -0.837757E+02  0.735E-02    3.57       0.0  T
   2    -83.7759502 -0.215422E-03  0.290E-02    3.59       1.0  T
   3    -83.7759582 -0.793326E-05  0.157E-02    3.58       1.0  T
   4    -83.7759582 -0.621076E-07  0.564E-03    3.58       2.7  T
   5    -83.7759585 -0.236669E-06  0.486E-04    3.58      31.8  T
   6    -83.7759585 -0.942006E-08  0.119E-04    3.58     129.2  T
   7    -83.7759585 -0.266851E-09  0.473E-05    3.58     326.0  T
     SCC iter.                  ...        0 min,  0.037 sec
     gradient                   ...        0 min,  0.059 sec
 * total energy  :   -83.0049141 Eh     change       -0.2247533E-02 Eh
   gradient norm :     0.0215242 Eh/α   predicted    -0.2674525E-02 (  19.00%)
   displ. norm   :     0.2543335 α      lambda       -0.1631224E-02
   maximum displ.:     0.1656174 α      in ANC's #5, #9, #10, ...

........................................................................
.............................. CYCLE   10 ..............................
........................................................................
   1    -83.7722628 -0.837723E+02  0.196E-02    3.60       0.0  T
   2    -83.7722780 -0.152056E-04  0.857E-03    3.59       1.8  T
   3    -83.7722792 -0.116689E-05  0.455E-03    3.59       3.4  T
   4    -83.7722792 -0.288462E-07  0.161E-03    3.59       9.6  T
   5    -83.7722793 -0.118307E-07  0.268E-04    3.59      57.6  T
   6    -83.7722793 -0.126141E-08  0.672E-05    3.59     229.8  T
   7    -83.7722793 -0.783018E-10  0.274E-05    3.59     563.9  T
     SCC iter.                  ...        0 min,  0.037 sec
     gradient                   ...        0 min,  0.059 sec
 * total energy  :   -83.0060416 Eh     change       -0.1127451E-02 Eh
   gradient norm :     0.0109312 Eh/α   predicted    -0.8684621E-03 ( -22.97%)
   displ. norm   :     0.3917405 α      lambda       -0.1364157E-02
   maximum displ.:     0.2526867 α      in ANC's #5, #7, #9, ...

........................................................................
.............................. CYCLE   11 ..............................
........................................................................
   1    -83.7710054 -0.837710E+02  0.178E-02    3.61       0.0  T
   2    -83.7710154 -0.998953E-05  0.705E-03    3.61       2.2  T
   3    -83.7710161 -0.767884E-06  0.417E-03    3.61       3.7  T
   4    -83.7710162 -0.358903E-07  0.888E-04    3.61      17.4  T
   5    -83.7710162 -0.116657E-07  0.264E-04    3.61      58.4  T
   6    -83.7710162 -0.108943E-08  0.512E-05    3.61     301.6  T
   7    -83.7710162 -0.377725E-10  0.198E-05    3.61     780.3  T
     SCC iter.                  ...        0 min,  0.037 sec
     gradient                   ...        0 min,  0.058 sec
 * total energy  :   -83.0070490 Eh     change       -0.1007462E-02 Eh
   gradient norm :     0.0136198 Eh/α   predicted    -0.7868075E-03 ( -21.90%)
   displ. norm   :     0.4769548 α      lambda       -0.1138272E-02
   maximum displ.:     0.3034937 α      in ANC's #5, #7, #10, ...

........................................................................
.............................. CYCLE   12 ..............................
........................................................................
   1    -83.7721128 -0.837721E+02  0.117E-02    3.61       0.0  T
   2    -83.7721178 -0.503943E-05  0.461E-03    3.61       3.3  T
   3    -83.7721181 -0.315623E-06  0.261E-03    3.61       5.9  T
   4    -83.7721181 -0.225843E-07  0.710E-04    3.61      21.7  T
   5    -83.7721182 -0.415062E-08  0.223E-04    3.61      69.1  T
   6    -83.7721182 -0.915918E-09  0.553E-05    3.61     278.9  T
   7    -83.7721182 -0.439115E-10  0.161E-05    3.61     959.2  T
     SCC iter.                  ...        0 min,  0.036 sec
     gradient                   ...        0 min,  0.059 sec
 * total energy  :   -83.0078881 Eh     change       -0.8391247E-03 Eh
   gradient norm :     0.0150987 Eh/α   predicted    -0.6986635E-03 ( -16.74%)
   displ. norm   :     0.4261453 α      lambda       -0.8449398E-03
   maximum displ.:     0.2712885 α      in ANC's #5, #7, #4, ...

........................................................................
.............................. CYCLE   13 ..............................
........................................................................
   1    -83.7763512 -0.837764E+02  0.929E-03    3.60       0.0  T
   2    -83.7763538 -0.265289E-05  0.389E-03    3.60       4.0  T
   3    -83.7763539 -0.736023E-07  0.210E-03    3.60       7.4  T
   4    -83.7763539 -0.809129E-08  0.631E-04    3.60      24.5  T
   5    -83.7763539 -0.339902E-08  0.117E-04    3.60     131.6  T
   6    -83.7763539 -0.259504E-09  0.425E-05    3.60     363.2  T
     SCC iter.                  ...        0 min,  0.031 sec
     gradient                   ...        0 min,  0.059 sec
 * total energy  :   -83.0084847 Eh     change       -0.5965788E-03 Eh
   gradient norm :     0.0110731 Eh/α   predicted    -0.4992220E-03 ( -16.32%)
   displ. norm   :     0.3518225 α      lambda       -0.4819767E-03
   maximum displ.:     0.2075560 α      in ANC's #5, #7, #6, ...

........................................................................
.............................. CYCLE   14 ..............................
........................................................................
   1    -83.7791185 -0.837791E+02  0.928E-03    3.59       0.0  T
   2    -83.7791210 -0.249786E-05  0.433E-03    3.59       3.6  T
   3    -83.7791211 -0.945882E-07  0.261E-03    3.59       5.9  T
   4    -83.7791211 -0.202382E-08  0.373E-04    3.59      41.4  T
   5    -83.7791211 -0.391087E-08  0.990E-05    3.59     155.9  T
   6    -83.7791211 -0.217028E-09  0.319E-05    3.59     483.1  T
     SCC iter.                  ...        0 min,  0.031 sec
     gradient                   ...        0 min,  0.059 sec
 * total energy  :   -83.0087837 Eh     change       -0.2989983E-03 Eh
   gradient norm :     0.0077047 Eh/α   predicted    -0.2708301E-03 (  -9.42%)
   displ. norm   :     0.2521089 α      lambda       -0.2424480E-03
   maximum displ.:     0.1542275 α      in ANC's #5, #4, #2, ...

........................................................................
.............................. CYCLE   15 ..............................
........................................................................
   1    -83.7809527 -0.837810E+02  0.121E-02    3.59       0.0  T
   2    -83.7809589 -0.617577E-05  0.393E-03    3.59       3.9  T
   3    -83.7809590 -0.117506E-06  0.246E-03    3.59       6.3  T
   4    -83.7809590 -0.165481E-08  0.637E-04    3.59      24.2  T
   5    -83.7809590 -0.738189E-08  0.107E-04    3.59     144.1  T
   6    -83.7809590 -0.305732E-09  0.444E-05    3.59     347.4  T
     SCC iter.                  ...        0 min,  0.032 sec
     gradient                   ...        0 min,  0.059 sec
 * total energy  :   -83.0089065 Eh     change       -0.1227510E-03 Eh
   gradient norm :     0.0072072 Eh/α   predicted    -0.1289314E-03 (   5.03%)
   displ. norm   :     0.1213182 α      lambda       -0.1167192E-03
   maximum displ.:     0.0668966 α      in ANC's #2, #4, #5, ...

........................................................................
.............................. CYCLE   16 ..............................
........................................................................
   1    -83.7816562 -0.837817E+02  0.596E-03    3.59       0.0  T
   2    -83.7816577 -0.150585E-05  0.255E-03    3.59       6.1  T
   3    -83.7816577 -0.535794E-07  0.149E-03    3.59      10.4  T
   4    -83.7816577 -0.224111E-08  0.444E-04    3.59      34.8  T
   5    -83.7816577 -0.150622E-08  0.837E-05    3.59     184.4  T
   6    -83.7816577 -0.236867E-09  0.149E-05    3.59    1036.8  T
     SCC iter.                  ...        0 min,  0.032 sec
     gradient                   ...        0 min,  0.060 sec
 * total energy  :   -83.0089895 Eh     change       -0.8301039E-04 Eh
   gradient norm :     0.0043280 Eh/α   predicted    -0.5921921E-04 ( -28.66%)
   displ. norm   :     0.1814816 α      lambda       -0.1274270E-03
   maximum displ.:     0.1020798 α      in ANC's #4, #2, #3, ...

........................................................................
.............................. CYCLE   17 ..............................
........................................................................
   1    -83.7802708 -0.837803E+02  0.601E-03    3.59       0.0  T
   2    -83.7802726 -0.177037E-05  0.235E-03    3.59       6.6  T
   3    -83.7802727 -0.492441E-07  0.125E-03    3.59      12.4  T
   4    -83.7802727 -0.517659E-09  0.385E-04    3.59      40.1  T
   5    -83.7802727 -0.128513E-08  0.558E-05    3.59     276.4  T
   6    -83.7802727 -0.927827E-10  0.206E-05    3.59     748.4  T
     SCC iter.                  ...        0 min,  0.032 sec
     gradient                   ...        0 min,  0.059 sec
 * total energy  :   -83.0090844 Eh     change       -0.9496132E-04 Eh
   gradient norm :     0.0062047 Eh/α   predicted    -0.6581302E-04 ( -30.69%)
   displ. norm   :     0.2697440 α      lambda       -0.1708914E-03
   maximum displ.:     0.1537855 α      in ANC's #2, #4, #3, ...

........................................................................
.............................. CYCLE   18 ..............................
........................................................................
   1    -83.7803058 -0.837803E+02  0.627E-03    3.60       0.0  T
   2    -83.7803071 -0.121917E-05  0.273E-03    3.60       5.7  T
   3    -83.7803072 -0.905272E-07  0.145E-03    3.60      10.6  T
   4    -83.7803072 -0.272860E-08  0.406E-04    3.60      38.0  T
   5    -83.7803072 -0.878060E-09  0.642E-05    3.60     240.2  T
   6    -83.7803072 -0.110148E-09  0.223E-05    3.60     692.0  T
     SCC iter.                  ...        0 min,  0.032 sec
     gradient                   ...        0 min,  0.059 sec
 * total energy  :   -83.0091997 Eh     change       -0.1152851E-03 Eh
   gradient norm :     0.0092724 Eh/α   predicted    -0.9166622E-04 ( -20.49%)
   displ. norm   :     0.3112135 α      lambda       -0.1725333E-03
   maximum displ.:     0.1839660 α      in ANC's #2, #4, #3, ...

........................................................................
.............................. CYCLE   19 ..............................
........................................................................
   1    -83.7772915 -0.837773E+02  0.948E-03    3.58       0.0  T
   2    -83.7772959 -0.435338E-05  0.354E-03    3.58       4.4  T
   3    -83.7772961 -0.206673E-06  0.173E-03    3.58       8.9  T
   4    -83.7772961 -0.335000E-08  0.689E-04    3.58      22.4  T
   5    -83.7772961 -0.284443E-08  0.135E-04    3.58     113.9  T
   6    -83.7772961 -0.384134E-09  0.268E-05    3.58     575.3  T
     SCC iter.                  ...        0 min,  0.032 sec
     gradient                   ...        0 min,  0.059 sec
 * total energy  :   -83.0093151 Eh     change       -0.1154084E-03 Eh
   gradient norm :     0.0095641 Eh/α   predicted    -0.9462269E-04 ( -18.01%)
   displ. norm   :     0.2180453 α      lambda       -0.1739532E-03
   maximum displ.:     0.1487472 α      in ANC's #2, #4, #3, ...

........................................................................
.............................. CYCLE   20 ..............................
........................................................................
   1    -83.7792322 -0.837792E+02  0.612E-03    3.59       0.0  T
   2    -83.7792333 -0.110535E-05  0.324E-03    3.59       4.8  T
   3    -83.7792333 -0.478544E-07  0.174E-03    3.59       8.8  T
   4    -83.7792333 -0.224260E-08  0.581E-04    3.59      26.6  T
   5    -83.7792333 -0.356897E-08  0.490E-05    3.59     315.2  T
   6    -83.7792333 -0.617888E-10  0.177E-05    3.59     871.0  T
     SCC iter.                  ...        0 min,  0.032 sec
     gradient                   ...        0 min,  0.059 sec
 * total energy  :   -83.0094456 Eh     change       -0.1304132E-03 Eh
   gradient norm :     0.0053109 Eh/α   predicted    -0.9111551E-04 ( -30.13%)
   displ. norm   :     0.3154715 α      lambda       -0.1825469E-03
   maximum displ.:     0.2183510 α      in ANC's #2, #4, #3, ...
 * RMSD in coord.:     0.6389302 α      energy gain  -0.1135403E+00 Eh

generating ANC from model Hessian ...
Using Lindh-Hessian (1995)
 Shifting diagonal of input Hessian by   9.759209595168399E-003
 Lowest  eigenvalues of input Hessian
    0.000000    0.000000    0.000000    0.000000    0.000000    0.000000
    0.010000    0.010023    0.010608    0.011274    0.011652    0.012232
    0.012889    0.013843    0.014091    0.015909    0.016945    0.017997
 Highest eigenvalues
    2.029414    2.183927    2.194821    2.396895    2.401553    2.403263
 

........................................................................
.............................. CYCLE   21 ..............................
........................................................................
   1    -83.7798864 -0.837799E+02  0.610E-03    3.58       0.0  T
   2    -83.7798880 -0.157384E-05  0.326E-03    3.58       4.7  T
   3    -83.7798881 -0.990002E-07  0.157E-03    3.58       9.8  T
   4    -83.7798881 -0.170026E-08  0.697E-04    3.58      22.1  T
   5    -83.7798881 -0.337246E-08  0.812E-05    3.58     190.0  T
   6    -83.7798881 -0.109296E-09  0.206E-05    3.58     749.9  T
     SCC iter.                  ...        0 min,  0.031 sec
     gradient                   ...        0 min,  0.059 sec
 * total energy  :   -83.0095810 Eh     change       -0.1354020E-03 Eh
   gradient norm :     0.0054431 Eh/α   predicted     0.0000000E+00 (-100.00%)
   displ. norm   :     0.0539783 α      lambda       -0.6514097E-04
   maximum displ.:     0.0248108 α      in ANC's #1, #2, #11, ...

........................................................................
.............................. CYCLE   22 ..............................
........................................................................
   1    -83.7812672 -0.837813E+02  0.390E-03    3.58       0.0  T
   2    -83.7812677 -0.481837E-06  0.188E-03    3.58       8.2  T
   3    -83.7812677 -0.355991E-07  0.101E-03    3.58      15.3  T
   4    -83.7812677 -0.108744E-08  0.237E-04    3.58      65.0  T
   5    -83.7812677 -0.488782E-09  0.465E-05    3.58     331.9  T
   6    -83.7812677 -0.362519E-10  0.118E-05    3.58    1306.2  T
     SCC iter.                  ...        0 min,  0.031 sec
     gradient                   ...        0 min,  0.058 sec
 * total energy  :   -83.0096417 Eh     change       -0.6069452E-04 Eh
   gradient norm :     0.0024549 Eh/α   predicted    -0.3840268E-04 ( -36.73%)
   displ. norm   :     0.1359073 α      lambda       -0.1049613E-03
   maximum displ.:     0.0665681 α      in ANC's #1, #2, #11, ...

........................................................................
.............................. CYCLE   23 ..............................
........................................................................
   1    -83.7825297 -0.837825E+02  0.562E-03    3.59       0.0  T
   2    -83.7825310 -0.131105E-05  0.273E-03    3.59       5.7  T
   3    -83.7825311 -0.978810E-07  0.138E-03    3.59      11.2  T
   4    -83.7825311 -0.120592E-08  0.433E-04    3.59      35.6  T
   5    -83.7825311 -0.114612E-08  0.680E-05    3.59     226.8  T
   6    -83.7825311 -0.908642E-10  0.195E-05    3.59     793.3  T
     SCC iter.                  ...        0 min,  0.031 sec
     gradient                   ...        0 min,  0.058 sec
 * total energy  :   -83.0097140 Eh     change       -0.7233827E-04 Eh
   gradient norm :     0.0025688 Eh/α   predicted    -0.5345130E-04 ( -26.11%)
   displ. norm   :     0.1434124 α      lambda       -0.6262893E-04
   maximum displ.:     0.0746345 α      in ANC's #1, #2, #3, ...

........................................................................
.............................. CYCLE   24 ..............................
........................................................................
   1    -83.7824986 -0.837825E+02  0.296E-03    3.59       0.0  T
   2    -83.7824990 -0.399679E-06  0.147E-03    3.59      10.5  T
   3    -83.7824990 -0.263577E-07  0.728E-04    3.59      21.2  T
   4    -83.7824990 -0.106880E-09  0.259E-04    3.59      59.5  T
   5    -83.7824990 -0.423540E-09  0.374E-05    3.59     412.2  T
   6    -83.7824990 -0.285780E-10  0.114E-05    3.59    1349.0  T
     SCC iter.                  ...        0 min,  0.031 sec
     gradient                   ...        0 min,  0.058 sec
 * total energy  :   -83.0097655 Eh     change       -0.5147100E-04 Eh
   gradient norm :     0.0038450 Eh/α   predicted    -0.3213417E-04 ( -37.57%)
   displ. norm   :     0.2197426 α      lambda       -0.8940314E-04
   maximum displ.:     0.1170541 α      in ANC's #1, #2, #3, ...

........................................................................
.............................. CYCLE   25 ..............................
........................................................................
   1    -83.7816730 -0.837817E+02  0.335E-03    3.58       0.0  T
   2    -83.7816733 -0.298133E-06  0.149E-03    3.58      10.4  T
   3    -83.7816733 -0.102881E-07  0.756E-04    3.58      20.4  T
   4    -83.7816733 -0.806324E-09  0.226E-04    3.58      68.2  T
   5    -83.7816733 -0.462876E-09  0.445E-05    3.58     347.0  T
   6    -83.7816733 -0.231779E-10  0.138E-05    3.58    1121.2  T
     SCC iter.                  ...        0 min,  0.032 sec
     gradient                   ...        0 min,  0.059 sec
 * total energy  :   -83.0098403 Eh     change       -0.7479041E-04 Eh
   gradient norm :     0.0039374 Eh/α   predicted    -0.4686036E-04 ( -37.34%)
   displ. norm   :     0.2892159 α      lambda       -0.1095370E-03
   maximum displ.:     0.1591598 α      in ANC's #1, #2, #3, ...

........................................................................
.............................. CYCLE   26 ..............................
........................................................................
   1    -83.7803473 -0.837803E+02  0.413E-03    3.58       0.0  T
   2    -83.7803476 -0.327848E-06  0.174E-03    3.58       8.9  T
   3    -83.7803476 -0.842567E-08  0.894E-04    3.58      17.3  T
   4    -83.7803476 -0.190886E-08  0.239E-04    3.58      64.6  T
   5    -83.7803476 -0.779963E-09  0.588E-05    3.58     262.6  T
   6    -83.7803476 -0.293454E-10  0.104E-05    3.58    1489.8  T
     SCC iter.                  ...        0 min,  0.031 sec
     gradient                   ...        0 min,  0.059 sec
 * total energy  :   -83.0099273 Eh     change       -0.8709467E-04 Eh
   gradient norm :     0.0039092 Eh/α   predicted    -0.5935456E-04 ( -31.85%)
   displ. norm   :     0.2782616 α      lambda       -0.1048552E-03
   maximum displ.:     0.1608370 α      in ANC's #1, #2, #3, ...

........................................................................
.............................. CYCLE   27 ..............................
........................................................................
   1    -83.7796125 -0.837796E+02  0.342E-03    3.57       0.0  T
   2    -83.7796129 -0.370649E-06  0.145E-03    3.57      10.7  T
   3    -83.7796129 -0.175441E-07  0.764E-04    3.57      20.2  T
   4    -83.7796129 -0.130957E-08  0.276E-04    3.57      55.9  T
   5    -83.7796129 -0.517886E-09  0.514E-05    3.57     300.0  T
   6    -83.7796129 -0.296723E-10  0.125E-05    3.57    1229.9  T
     SCC iter.                  ...        0 min,  0.031 sec
     gradient                   ...        0 min,  0.059 sec
 * total energy  :   -83.0100152 Eh     change       -0.8784906E-04 Eh
   gradient norm :     0.0044107 Eh/α   predicted    -0.5648746E-04 ( -35.70%)
   displ. norm   :     0.3009517 α      lambda       -0.1356048E-03
   maximum displ.:     0.1826172 α      in ANC's #1, #2, #3, ...

........................................................................
.............................. CYCLE   28 ..............................
........................................................................
   1    -83.7798427 -0.837798E+02  0.364E-03    3.57       0.0  T
   2    -83.7798432 -0.570616E-06  0.176E-03    3.57       8.8  T
   3    -83.7798433 -0.335376E-07  0.890E-04    3.57      17.3  T
   4    -83.7798433 -0.589452E-09  0.371E-04    3.57      41.6  T
   5    -83.7798433 -0.929120E-09  0.552E-05    3.57     279.6  T
   6    -83.7798433 -0.529781E-10  0.174E-05    3.57     885.4  T
     SCC iter.                  ...        0 min,  0.031 sec
     gradient                   ...        0 min,  0.059 sec
 * total energy  :   -83.0101303 Eh     change       -0.1151223E-03 Eh
   gradient norm :     0.0048300 Eh/α   predicted    -0.7394353E-04 ( -35.77%)
   displ. norm   :     0.3867613 α      lambda       -0.1742277E-03
   maximum displ.:     0.2411771 α      in ANC's #1, #2, #3, ...

........................................................................
.............................. CYCLE   29 ..............................
........................................................................
   1    -83.7803738 -0.837804E+02  0.433E-03    3.57       0.0  T
   2    -83.7803746 -0.719831E-06  0.201E-03    3.57       7.7  T
   3    -83.7803746 -0.430836E-07  0.101E-03    3.57      15.2  T
   4    -83.7803746 -0.688019E-09  0.395E-04    3.57      39.1  T
   5    -83.7803746 -0.132140E-08  0.650E-05    3.57     237.4  T
   6    -83.7803746 -0.650004E-10  0.165E-05    3.57     937.7  T
     SCC iter.                  ...        0 min,  0.031 sec
     gradient                   ...        0 min,  0.059 sec
 * total energy  :   -83.0102787 Eh     change       -0.1484219E-03 Eh
   gradient norm :     0.0052096 Eh/α   predicted    -0.1001484E-03 ( -32.52%)
   displ. norm   :     0.4666405 α      lambda       -0.1953255E-03
   maximum displ.:     0.2954992 α      in ANC's #1, #2, #3, ...

........................................................................
.............................. CYCLE   30 ..............................
........................................................................
   1    -83.7804605 -0.837805E+02  0.418E-03    3.57       0.0  T
   2    -83.7804612 -0.702264E-06  0.163E-03    3.57       9.5  T
   3    -83.7804612 -0.409117E-07  0.795E-04    3.57      19.4  T
   4    -83.7804612 -0.187548E-08  0.328E-04    3.57      47.1  T
   5    -83.7804612 -0.680330E-09  0.689E-05    3.57     224.0  T
   6    -83.7804612 -0.618599E-10  0.144E-05    3.57    1069.5  T
     SCC iter.                  ...        0 min,  0.031 sec
     gradient                   ...        0 min,  0.059 sec
 * total energy  :   -83.0104468 Eh     change       -0.1680203E-03 Eh
   gradient norm :     0.0051375 Eh/α   predicted    -0.1189558E-03 ( -29.20%)
   displ. norm   :     0.5001024 α      lambda       -0.2155724E-03
   maximum displ.:     0.3236215 α      in ANC's #1, #2, #3, ...

........................................................................
.............................. CYCLE   31 ..............................
........................................................................
   1    -83.7811756 -0.837812E+02  0.455E-03    3.57       0.0  T
   2    -83.7811764 -0.820632E-06  0.182E-03    3.57       8.5  T
   3    -83.7811765 -0.551992E-07  0.958E-04    3.57      16.1  T
   4    -83.7811765 -0.360106E-08  0.327E-04    3.57      47.2  T
   5    -83.7811765 -0.389804E-09  0.864E-05    3.57     178.6  T
   6    -83.7811765 -0.109708E-09  0.150E-05    3.57    1026.8  T
     SCC iter.                  ...        0 min,  0.031 sec
     gradient                   ...        0 min,  0.059 sec
 * total energy  :   -83.0106301 Eh     change       -0.1833086E-03 Eh
   gradient norm :     0.0040785 Eh/α   predicted    -0.1347457E-03 ( -26.49%)
   displ. norm   :     0.5673295 α      lambda       -0.2165731E-03
   maximum displ.:     0.3670345 α      in ANC's #1, #2, #3, ...

........................................................................
.............................. CYCLE   32 ..............................
........................................................................
   1    -83.7802820 -0.837803E+02  0.483E-03    3.56       0.0  T
   2    -83.7802829 -0.886414E-06  0.224E-03    3.57       6.9  T
   3    -83.7802829 -0.476980E-07  0.121E-03    3.57      12.7  T
   4    -83.7802830 -0.308641E-08  0.348E-04    3.57      44.3  T
   5    -83.7802830 -0.658233E-09  0.942E-05    3.57     163.7  T
   6    -83.7802830 -0.174239E-09  0.197E-05    3.57     784.1  T
     SCC iter.                  ...        0 min,  0.030 sec
     gradient                   ...        0 min,  0.060 sec
 * total energy  :   -83.0108092 Eh     change       -0.1791207E-03 Eh
   gradient norm :     0.0042434 Eh/α   predicted    -0.1431403E-03 ( -20.09%)
   displ. norm   :     0.5508490 α      lambda       -0.2539230E-03
   maximum displ.:     0.3643412 α      in ANC's #1, #2, #5, ...

........................................................................
.............................. CYCLE   33 ..............................
........................................................................
   1    -83.7839589 -0.837840E+02  0.953E-03    3.57       0.0  T
   2    -83.7839611 -0.211329E-05  0.465E-03    3.57       3.3  T
   3    -83.7839612 -0.168959E-06  0.249E-03    3.57       6.2  T
   4    -83.7839612 -0.132813E-07  0.475E-04    3.57      32.5  T
   5    -83.7839612 -0.218398E-08  0.139E-04    3.57     111.0  T
   6    -83.7839612 -0.306471E-09  0.260E-05    3.57     592.6  T
     SCC iter.                  ...        0 min,  0.032 sec
     gradient                   ...        0 min,  0.060 sec
 * total energy  :   -83.0109579 Eh     change       -0.1486848E-03 Eh
   gradient norm :     0.0056263 Eh/α   predicted    -0.1654897E-03 (  11.30%)
   displ. norm   :     0.6004244 α      lambda       -0.2003642E-03
   maximum displ.:     0.3873078 α      in ANC's #1, #2, #3, ...

........................................................................
.............................. CYCLE   34 ..............................
........................................................................
   1    -83.7793933 -0.837794E+02  0.101E-02    3.56       0.0  T
   2    -83.7793943 -0.103617E-05  0.504E-03    3.56       3.1  T
   3    -83.7793944 -0.237214E-07  0.216E-03    3.56       7.1  T
   4    -83.7793944 -0.193710E-07  0.422E-04    3.56      36.6  T
   5    -83.7793944 -0.146903E-08  0.101E-04    3.56     152.7  T
   6    -83.7793944 -0.122498E-09  0.254E-05    3.56     607.3  T
     SCC iter.                  ...        0 min,  0.032 sec
     gradient                   ...        0 min,  0.060 sec
 * total energy  :   -83.0110716 Eh     change       -0.1137104E-03 Eh
   gradient norm :     0.0064974 Eh/α   predicted    -0.1362989E-03 (  19.86%)
   displ. norm   :     0.2407257 α      lambda       -0.1009969E-03
   maximum displ.:     0.1581881 α      in ANC's #2, #1, #5, ...

........................................................................
.............................. CYCLE   35 ..............................
........................................................................
   1    -83.7809729 -0.837810E+02  0.392E-03    3.56       0.0  T
   2    -83.7809732 -0.384637E-06  0.183E-03    3.56       8.4  T
   3    -83.7809733 -0.195405E-07  0.101E-03    3.56      15.2  T
   4    -83.7809733 -0.783217E-09  0.179E-04    3.56      86.0  T
   5    -83.7809733 -0.696360E-09  0.460E-05    3.56     335.6  T
     SCC iter.                  ...        0 min,  0.027 sec
     gradient                   ...        0 min,  0.060 sec
 * total energy  :   -83.0111559 Eh     change       -0.8432982E-04 Eh
   gradient norm :     0.0051448 Eh/α   predicted    -0.5342677E-04 ( -36.65%)
   displ. norm   :     0.5064030 α      lambda       -0.1986051E-03
   maximum displ.:     0.3348342 α      in ANC's #2, #1, #5, ...

........................................................................
.............................. CYCLE   36 ..............................
........................................................................
   1    -83.7830805 -0.837831E+02  0.750E-03    3.56       0.0  T
   2    -83.7830815 -0.922059E-06  0.340E-03    3.56       4.5  T
   3    -83.7830815 -0.447923E-07  0.180E-03    3.56       8.6  T
   4    -83.7830815 -0.103402E-07  0.354E-04    3.56      43.6  T
   5    -83.7830815 -0.201807E-08  0.114E-04    3.56     135.4  T
   6    -83.7830815 -0.154543E-09  0.236E-05    3.56     654.5  T
     SCC iter.                  ...        0 min,  0.032 sec
     gradient                   ...        0 min,  0.060 sec
 * total energy  :   -83.0112890 Eh     change       -0.1330917E-03 Eh
   gradient norm :     0.0042014 Eh/α   predicted    -0.1247717E-03 (  -6.25%)
   displ. norm   :     0.6079576 α      lambda       -0.1378230E-03
   maximum displ.:     0.4022300 α      in ANC's #2, #1, #5, ...

........................................................................
.............................. CYCLE   37 ..............................
........................................................................
   1    -83.7815344 -0.837815E+02  0.640E-03    3.55       0.0  T
   2    -83.7815353 -0.845870E-06  0.277E-03    3.55       5.6  T
   3    -83.7815353 -0.454101E-07  0.156E-03    3.55       9.9  T
   4    -83.7815353 -0.119861E-07  0.355E-04    3.55      43.5  T
   5    -83.7815353 -0.917709E-09  0.731E-05    3.55     211.2  T
   6    -83.7815353 -0.493969E-10  0.194E-05    3.55     796.0  T
     SCC iter.                  ...        0 min,  0.032 sec
     gradient                   ...        0 min,  0.060 sec
 * total energy  :   -83.0113858 Eh     change       -0.9683176E-04 Eh
   gradient norm :     0.0045403 Eh/α   predicted    -0.9438523E-04 (  -2.53%)
   displ. norm   :     0.4245181 α      lambda       -0.1003783E-03
   maximum displ.:     0.2830862 α      in ANC's #2, #1, #5, ...

........................................................................
.............................. CYCLE   38 ..............................
........................................................................
   1    -83.7830463 -0.837830E+02  0.518E-03    3.55       0.0  T
   2    -83.7830471 -0.800601E-06  0.218E-03    3.55       7.1  T
   3    -83.7830471 -0.532599E-07  0.126E-03    3.55      12.2  T
   4    -83.7830472 -0.432502E-08  0.395E-04    3.55      39.0  T
   5    -83.7830472 -0.819355E-09  0.566E-05    3.55     272.7  T
   6    -83.7830472 -0.683542E-10  0.128E-05    3.55    1205.6  T
     SCC iter.                  ...        0 min,  0.032 sec
     gradient                   ...        0 min,  0.060 sec
 * total energy  :   -83.0114567 Eh     change       -0.7086337E-04 Eh
   gradient norm :     0.0041053 Eh/α   predicted    -0.5923464E-04 ( -16.41%)
   displ. norm   :     0.5779957 α      lambda       -0.9223979E-04
   maximum displ.:     0.3900487 α      in ANC's #2, #1, #5, ...

........................................................................
.............................. CYCLE   39 ..............................
........................................................................
   1    -83.7802755 -0.837803E+02  0.619E-03    3.55       0.0  T
   2    -83.7802760 -0.476796E-06  0.306E-03    3.55       5.0  T
   3    -83.7802760 -0.157642E-07  0.153E-03    3.55      10.1  T
   4    -83.7802760 -0.103230E-07  0.309E-04    3.55      50.0  T
   5    -83.7802760 -0.137476E-08  0.456E-05    3.55     338.5  T
   6    -83.7802760 -0.330971E-10  0.144E-05    3.55    1071.7  T
     SCC iter.                  ...        0 min,  0.032 sec
     gradient                   ...        0 min,  0.052 sec
 * total energy  :   -83.0114995 Eh     change       -0.4280153E-04 Eh
   gradient norm :     0.0046006 Eh/α   predicted    -0.6152830E-04 (  43.75%)
   displ. norm   :     0.1394601 α      lambda       -0.9618163E-04
   maximum displ.:     0.0873137 α      in ANC's #2, #1, #23, ...

........................................................................
.............................. CYCLE   40 ..............................
........................................................................
   1    -83.7842513 -0.837843E+02  0.847E-03    3.55       0.0  T
   2    -83.7842530 -0.171736E-05  0.413E-03    3.55       3.7  T
   3    -83.7842531 -0.887223E-07  0.219E-03    3.55       7.0  T
   4    -83.7842531 -0.772373E-08  0.496E-04    3.55      31.1  T
   5    -83.7842531 -0.244827E-08  0.823E-05    3.55     187.6  T
   6    -83.7842531 -0.768239E-10  0.179E-05    3.55     863.1  T
     SCC iter.                  ...        0 min,  0.024 sec
     gradient                   ...        0 min,  0.044 sec
 * total energy  :   -83.0115401 Eh     change       -0.4058947E-04 Eh
   gradient norm :     0.0033475 Eh/α   predicted    -0.4902694E-04 (  20.79%)
   displ. norm   :     0.2274851 α      lambda       -0.3858023E-04
   maximum displ.:     0.1544042 α      in ANC's #2, #1, #5, ...

........................................................................
.............................. CYCLE   41 ..............................
........................................................................
   1    -83.7833034 -0.837833E+02  0.314E-03    3.55       0.0  T
   2    -83.7833035 -0.178266E-06  0.165E-03    3.55       9.4  T
   3    -83.7833035 -0.486106E-08  0.777E-04    3.55      19.9  T
   4    -83.7833036 -0.233091E-08  0.156E-04    3.55      99.0  T
   5    -83.7833036 -0.251887E-09  0.354E-05    3.55     436.0  T
     SCC iter.                  ...        0 min,  0.023 sec
     gradient                   ...        0 min,  0.058 sec
 * total energy  :   -83.0115664 Eh     change       -0.2633427E-04 Eh
   gradient norm :     0.0020299 Eh/α   predicted    -0.2029340E-04 ( -22.94%)
   displ. norm   :     0.2191921 α      lambda       -0.2913359E-04
   maximum displ.:     0.1507673 α      in ANC's #2, #1, #6, ...

........................................................................
.............................. CYCLE   42 ..............................
........................................................................
   1    -83.7826324 -0.837826E+02  0.229E-03    3.55       0.0  T
   2    -83.7826326 -0.211060E-06  0.110E-03    3.55      14.0  T
   3    -83.7826326 -0.852738E-08  0.628E-04    3.55      24.6  T
   4    -83.7826326 -0.323155E-09  0.150E-04    3.55     103.0  T
   5    -83.7826326 -0.174879E-09  0.232E-05    3.55     666.1  T
     SCC iter.                  ...        0 min,  0.026 sec
     gradient                   ...        0 min,  0.057 sec
 * total energy  :   -83.0115871 Eh     change       -0.2071104E-04 Eh
   gradient norm :     0.0023078 Eh/α   predicted    -0.1526880E-04 ( -26.28%)
   displ. norm   :     0.1723509 α      lambda       -0.2867333E-04
   maximum displ.:     0.1173928 α      in ANC's #2, #1, #4, ...
 * RMSD in coord.:     1.1215596 α      energy gain  -0.2141582E-02 Eh

generating ANC from model Hessian ...
Using Lindh-Hessian (1995)
 Shifting diagonal of input Hessian by   9.757307556943868E-003
 Lowest  eigenvalues of input Hessian
    0.000000    0.000000    0.000000    0.000000    0.000000    0.000000
    0.010000    0.010063    0.010506    0.011369    0.011924    0.012330
    0.012812    0.013730    0.014045    0.016204    0.017082    0.017871
 Highest eigenvalues
    2.032208    2.187811    2.197303    2.395453    2.398513    2.402262
 

........................................................................
.............................. CYCLE   43 ..............................
........................................................................
   1    -83.7829881 -0.837830E+02  0.260E-03    3.55       0.0  T
   2    -83.7829884 -0.282891E-06  0.113E-03    3.55      13.7  T
   3    -83.7829884 -0.204489E-07  0.592E-04    3.55      26.0  T
   4    -83.7829884 -0.194376E-09  0.161E-04    3.55      95.9  T
   5    -83.7829884 -0.221661E-09  0.311E-05    3.55     496.4  T
     SCC iter.                  ...        0 min,  0.027 sec
     gradient                   ...        0 min,  0.058 sec
 * total energy  :   -83.0116067 Eh     change       -0.1960946E-04 Eh
   gradient norm :     0.0024122 Eh/α   predicted     0.0000000E+00 (-100.00%)
   displ. norm   :     0.0190439 α      lambda       -0.1256719E-04
   maximum displ.:     0.0105077 α      in ANC's #4, #5, #19, ...

........................................................................
.............................. CYCLE   44 ..............................
........................................................................
   1    -83.7835977 -0.837836E+02  0.191E-03    3.55       0.0  T
   2    -83.7835978 -0.878075E-07  0.918E-04    3.55      16.8  T
   3    -83.7835978 -0.299902E-08  0.485E-04    3.55      31.8  T
   4    -83.7835978 -0.442697E-09  0.101E-04    3.55     152.5  T
   5    -83.7835978 -0.127216E-09  0.206E-05    3.55     747.7  T
     SCC iter.                  ...        0 min,  0.026 sec
     gradient                   ...        0 min,  0.060 sec
 * total energy  :   -83.0116173 Eh     change       -0.1050756E-04 Eh
   gradient norm :     0.0012030 Eh/α   predicted    -0.6843938E-05 ( -34.87%)
   displ. norm   :     0.0684537 α      lambda       -0.1609151E-04
   maximum displ.:     0.0395773 α      in ANC's #4, #5, #2, ...

........................................................................
.............................. CYCLE   45 ..............................
........................................................................
   1    -83.7844594 -0.837845E+02  0.388E-03    3.55       0.0  T
   2    -83.7844598 -0.467542E-06  0.192E-03    3.55       8.0  T
   3    -83.7844598 -0.162213E-07  0.101E-03    3.55      15.3  T
   4    -83.7844598 -0.109318E-08  0.257E-04    3.55      60.1  T
   5    -83.7844598 -0.655490E-09  0.434E-05    3.55     355.3  T
   6    -83.7844598 -0.381277E-10  0.129E-05    3.55    1194.2  T
     SCC iter.                  ...        0 min,  0.032 sec
     gradient                   ...        0 min,  0.060 sec
 * total energy  :   -83.0116299 Eh     change       -0.1261999E-04 Eh
   gradient norm :     0.0017802 Eh/α   predicted    -0.8062635E-05 ( -36.11%)
   displ. norm   :     0.0449136 α      lambda       -0.7229000E-05
   maximum displ.:     0.0253875 α      in ANC's #4, #5, #2, ...

........................................................................
.............................. CYCLE   46 ..............................
........................................................................
   1    -83.7841669 -0.837842E+02  0.110E-03    3.55       0.0  T
   2    -83.7841669 -0.454682E-07  0.591E-04    3.55      26.1  T
   3    -83.7841669 -0.486895E-08  0.277E-04    3.55      55.7  T
   4    -83.7841669 -0.347171E-10  0.860E-05    3.55     179.3  T
   5    -83.7841669 -0.512728E-10  0.162E-05    3.55     952.6  T
     SCC iter.                  ...        0 min,  0.028 sec
     gradient                   ...        0 min,  0.058 sec
 * total energy  :   -83.0116397 Eh     change       -0.9781241E-05 Eh
   gradient norm :     0.0015582 Eh/α   predicted    -0.3704940E-05 ( -62.12%)
   displ. norm   :     0.1725386 α      lambda       -0.2446043E-04
   maximum displ.:     0.0915041 α      in ANC's #4, #2, #5, ...

........................................................................
.............................. CYCLE   47 ..............................
........................................................................
   1    -83.7831756 -0.837832E+02  0.394E-03    3.55       0.0  T
   2    -83.7831762 -0.587917E-06  0.176E-03    3.55       8.8  T
   3    -83.7831763 -0.687041E-07  0.773E-04    3.55      20.0  T
   4    -83.7831763 -0.831037E-09  0.256E-04    3.55      60.4  T
   5    -83.7831763 -0.268344E-09  0.521E-05    3.55     296.3  T
   6    -83.7831763 -0.351719E-10  0.154E-05    3.55    1003.5  T
     SCC iter.                  ...        0 min,  0.033 sec
     gradient                   ...        0 min,  0.059 sec
 * total energy  :   -83.0116619 Eh     change       -0.2227745E-04 Eh
   gradient norm :     0.0016881 Eh/α   predicted    -0.1240163E-04 ( -44.33%)
   displ. norm   :     0.0817322 α      lambda       -0.7053742E-05
   maximum displ.:     0.0404796 α      in ANC's #4, #2, #17, ...

........................................................................
.............................. CYCLE   48 ..............................
........................................................................
   1    -83.7832224 -0.837832E+02  0.179E-03    3.55       0.0  T
   2    -83.7832226 -0.140312E-06  0.552E-04    3.55      27.9  T
   3    -83.7832226 -0.895245E-08  0.283E-04    3.55      54.6  T
   4    -83.7832226 -0.409571E-09  0.129E-04    3.55     119.2  T
   5    -83.7832226 -0.259490E-10  0.179E-05    3.55     861.5  T
     SCC iter.                  ...        0 min,  0.028 sec
     gradient                   ...        0 min,  0.059 sec
 * total energy  :   -83.0116693 Eh     change       -0.7320304E-05 Eh
   gradient norm :     0.0013723 Eh/α   predicted    -0.3544711E-05 ( -51.58%)
   displ. norm   :     0.0883123 α      lambda       -0.7965154E-05
   maximum displ.:     0.0378831 α      in ANC's #2, #17, #4, ...

........................................................................
.............................. CYCLE   49 ..............................
........................................................................
   1    -83.7835449 -0.837835E+02  0.168E-03    3.55       0.0  T
   2    -83.7835449 -0.660582E-07  0.709E-04    3.55      21.8  T
   3    -83.7835449 -0.477519E-08  0.425E-04    3.55      36.3  T
   4    -83.7835449 -0.565549E-09  0.809E-05    3.55     190.8  T
   5    -83.7835449 -0.850235E-10  0.257E-05    3.55     601.1  T
     SCC iter.                  ...        0 min,  0.027 sec
     gradient                   ...        0 min,  0.060 sec
 * total energy  :   -83.0116779 Eh     change       -0.8671603E-05 Eh
   gradient norm :     0.0007139 Eh/α   predicted    -0.3997127E-05 ( -53.91%)
   displ. norm   :     0.0926399 α      lambda       -0.7178741E-05
   maximum displ.:     0.0457016 α      in ANC's #17, #2, #11, ...

........................................................................
.............................. CYCLE   50 ..............................
........................................................................
   1    -83.7838405 -0.837838E+02  0.161E-03    3.55       0.0  T
   2    -83.7838406 -0.782422E-07  0.747E-04    3.55      20.7  T
   3    -83.7838406 -0.308165E-08  0.408E-04    3.55      37.9  T
   4    -83.7838406 -0.145960E-09  0.928E-05    3.55     166.3  T
   5    -83.7838406 -0.989502E-10  0.223E-05    3.55     692.5  T
     SCC iter.                  ...        0 min,  0.028 sec
     gradient                   ...        0 min,  0.061 sec
 * total energy  :   -83.0116853 Eh     change       -0.7354864E-05 Eh
   gradient norm :     0.0008636 Eh/α   predicted    -0.3606281E-05 ( -50.97%)
   displ. norm   :     0.0801851 α      lambda       -0.4806329E-05
   maximum displ.:     0.0421477 α      in ANC's #17, #2, #16, ...

........................................................................
.............................. CYCLE   51 ..............................
........................................................................
   1    -83.7838622 -0.837839E+02  0.868E-04    3.55       0.0  T
   2    -83.7838622 -0.269490E-07  0.466E-04    3.55      33.1  T
   3    -83.7838622 -0.143631E-08  0.242E-04    3.55      63.7  T
   4    -83.7838622 -0.113332E-09  0.777E-05    3.55     198.7  T
   5    -83.7838622 -0.430447E-10  0.166E-05    3.55     931.0  T
     SCC iter.                  ...        0 min,  0.054 sec
     gradient                   ...        0 min,  0.093 sec
 * total energy  :   -83.0116904 Eh     change       -0.5127771E-05 Eh
   gradient norm :     0.0009646 Eh/α   predicted    -0.2414181E-05 ( -52.92%)
   displ. norm   :     0.0783497 α      lambda       -0.5190507E-05
   maximum displ.:     0.0414011 α      in ANC's #17, #2, #5, ...

........................................................................
.............................. CYCLE   52 ..............................
........................................................................
   1    -83.7840582 -0.837841E+02  0.101E-03    3.55       0.0  T
   2    -83.7840582 -0.330143E-07  0.526E-04    3.55      29.3  T
   3    -83.7840582 -0.410419E-08  0.285E-04    3.55      54.1  T
   4    -83.7840582 -0.215081E-09  0.658E-05    3.55     234.6  T
   5    -83.7840582 -0.184741E-10  0.189E-05    3.55     817.3  T
     SCC iter.                  ...        0 min,  0.030 sec
     gradient                   ...        0 min,  0.066 sec
 * total energy  :   -83.0116957 Eh     change       -0.5336485E-05 Eh
   gradient norm :     0.0008401 Eh/α   predicted    -0.2603629E-05 ( -51.21%)
   displ. norm   :     0.0759839 α      lambda       -0.4129582E-05
   maximum displ.:     0.0401693 α      in ANC's #17, #2, #5, ...

........................................................................
.............................. CYCLE   53 ..............................
........................................................................
   1    -83.7837704 -0.837838E+02  0.128E-03    3.55       0.0  T
   2    -83.7837704 -0.445277E-07  0.524E-04    3.55      29.5  T
   3    -83.7837704 -0.459058E-08  0.297E-04    3.55      51.9  T
   4    -83.7837704 -0.174524E-09  0.574E-05    3.55     268.6  T
   5    -83.7837704 -0.426468E-10  0.172E-05    3.55     896.7  T
     SCC iter.                  ...        0 min,  0.048 sec
     gradient                   ...        0 min,  0.066 sec
 * total energy  :   -83.0116993 Eh     change       -0.3599235E-05 Eh
   gradient norm :     0.0006575 Eh/α   predicted    -0.2072362E-05 ( -42.42%)
   displ. norm   :     0.0395808 α      lambda       -0.2576464E-05
   maximum displ.:     0.0240996 α      in ANC's #4, #3, #5, ...

   *** GEOMETRY OPTIMIZATION CONVERGED AFTER 53 ITERATIONS ***

------------------------------------------------------------------------
 total energy gain   :        -0.1157941 Eh      -72.6619 kcal/mol
 total RMSD          :         1.5211497 a0        0.8050 Å
 total power (kW/mol):        -5.7361759 (step)  -46.1140 (real)
------------------------------------------------------------------------

 ANCopt (total)                0 d,  0 h,  0 min,  6.593 sec
 optimizer setup                ...        0 min,  0.001 sec (  0.014%)
 model hessian                  ...        0 min,  0.061 sec (  0.927%)
 ANC generation                 ...        0 min,  0.008 sec (  0.115%)
 coordinate transformation      ...        0 min,  0.001 sec (  0.019%)
 single point calculation       ...        0 min,  6.500 sec ( 98.594%)
 optimization log               ...        0 min,  0.011 sec (  0.165%)
 hessian update                 ...        0 min,  0.001 sec (  0.019%)
 rational function              ...        0 min,  0.007 sec (  0.102%)

================
 final structure:
================
42
 xtb: 6.5.1 (579679a)
C            4.96919759071126       -2.25678205527216        0.03625395416799
O            3.83971246309028       -1.38096697627630        0.14747771375657
C            4.05627732659615       -0.10100271419856       -0.10355246742096
O            5.12422360459701        0.35894759980605       -0.42297098923096
C            2.78059698645573        0.71630377502305        0.02552539636162
N            1.75229945214368        0.08535885055779        0.76128786764637
C            0.57169075289737        0.55804479545787        0.69513092234560
C           -0.52789529643733       -0.00430881199960        1.57173359170693
C           -0.81188471350067        0.99093093351410        2.70024821676918
C           -0.12420686290258       -1.37238435306640        2.12695234786248
N           -1.74467721112506       -0.13011307399955        0.76688652459978
C           -1.73160657401997       -0.79038378531806       -0.41445626001275
O           -0.71925680407237       -1.18976190105853       -0.96504307269683
C           -3.08012485482931       -0.94692782609895       -1.00628402485350
N           -3.39251297062814       -1.49436984721534       -2.13962340412684
N           -4.74655129262193       -1.40978743912579       -2.25688359843157
C           -5.17867500883303       -0.81624925099627       -1.18773673083646
C           -6.57551493798279       -0.48548755079231       -0.83402910170568
O           -4.17444173766098       -0.49662745506036       -0.35521569670352
N            0.19771223167214        1.58803381558403       -0.14245699753880
C            0.97842626138340        2.03444837048329       -1.18001708162901
O            0.50593718424209        2.60992511522758       -2.13726695577633
C            2.44132305810059        1.74013300383492       -1.02224926048376
C            3.29881547673479        2.01419135563168       -2.23392141200023
O            2.95852920587433        2.08528487637994        0.23885789031440
H            5.73983622152867       -1.96237896611373        0.75143283415569
H            4.60765059006149       -3.25818324460059        0.25757767615310
H            5.37630251730299       -2.21156726598040       -0.97596316775115
H           -1.61035372190321        0.61067421659861        3.33388676890899
H           -1.11402077319449        1.95193563866442        2.28775905467979
H            0.08358377458962        1.12838775847572        3.30440037856546
H            0.09580767794610       -2.05639256546735        1.30819656872885
H            0.76491037847960       -1.26539361700533        2.74638063570521
H           -0.93511595183148       -1.77796887955186        2.72764384965745
H           -2.62493070058623        0.07893592837424        1.20511597616828
H           -6.68138220521242        0.59212847423268       -0.71067284124505
H           -7.24497055100927       -0.83185121640838       -1.61766018390344
H           -6.84003281065605       -0.95874403806220        0.11113310379840
H           -0.78802838852057        1.79353257599172       -0.20979919795407
H            3.11898192234767        1.25741517829897       -2.99619120444532
H            3.03327494948610        2.98931441007025       -2.64232406277724
H            4.35109474130504        2.01370916144156       -1.96032456053827
 
 Bond Distances (Angstroems)
 ---------------------------
C1-O2=1.4336         C1-H26=1.0918        C1-H27=1.0874        C1-H28=1.0920        O2-C1=1.4336         O2-C3=1.3222         
C3-O2=1.3222         C3-O4=1.2059         C3-C5=1.5205         O4-C3=1.2059         C5-C3=1.5205         C5-N6=1.4131         
C5-C23=1.5037        C5-O25=1.3969        N6-C5=1.4131         N6-C7=1.2734         C7-N6=1.2734         C7-C8=1.5145         
C7-N20=1.3792        C8-C7=1.5145         C8-C9=1.5312         C8-C10=1.5306        C8-N11=1.4643        C9-C8=1.5312         
C9-H29=1.0880        C9-H30=1.0886        C9-H31=1.0889        C10-C8=1.5306        C10-H32=1.0893       C10-H33=1.0889       
C10-H34=1.0876       N11-C8=1.4643        N11-C12=1.3534       N11-H35=1.0053       C12-N11=1.3534       C12-O13=1.2196       
C12-C14=1.4810       O13-C12=1.2196       C14-C12=1.4810       C14-N15=1.2968       C14-O19=1.3506       N15-C14=1.2968       
N15-N16=1.3617       N16-N15=1.3617       N16-C17=1.2970       C17-N16=1.2970       C17-C18=1.4784       C17-O19=1.3430       
C18-C17=1.4784       C18-H36=1.0898       C18-H37=1.0873       C18-H38=1.0896       O19-C14=1.3506       O19-C17=1.3430       
N20-C7=1.3792        N20-C21=1.3731       N20-H39=1.0092       C21-N20=1.3731       C21-O22=1.2127       C21-C23=1.5005       
O22-C21=1.2127       C23-C5=1.5037        C23-C21=1.5005       C23-C24=1.5095       C23-O25=1.4061       C24-C23=1.5095       
C24-H40=1.0891       C24-H41=1.0900       C24-H42=1.0873       O25-C5=1.3969        O25-C23=1.4061       H26-C1=1.0918        
H27-C1=1.0874        H28-C1=1.0920        H29-C9=1.0880        H30-C9=1.0886        H31-C9=1.0889        H32-C10=1.0893       
H33-C10=1.0889       H34-C10=1.0876       H35-N11=1.0053       H36-C18=1.0898       H37-C18=1.0873       H38-C18=1.0896       
H39-N20=1.0092       H40-C24=1.0891       H41-C24=1.0900       H42-C24=1.0873       
 C  H  Rav=1.0890 sigma=0.0014  Rmin=1.0873  Rmax=1.0920    15
 C  C  Rav=1.5078 sigma=0.0181  Rmin=1.4784  Rmax=1.5312     9
 N  H  Rav=1.0072 sigma=0.0020  Rmin=1.0053  Rmax=1.0092     2
 N  C  Rav=1.3563 sigma=0.0609  Rmin=1.2734  Rmax=1.4643     8
 N  N  Rav=1.3617 sigma=0.0000  Rmin=1.3617  Rmax=1.3617     1
 O  C  Rav=1.3212 sigma=0.0832  Rmin=1.2059  Rmax=1.4336     9
 
 selected bond angles (degree)
 --------------------
H26-C1-O2=109.91               H27-C1-O2=106.55               H27-C1-H26=110.47              H28-C1-O2=109.90               
H28-C1-H26=109.44              H28-C1-H27=110.53              C3-O2-C1=116.59                O4-C3-O2=124.37                
C5-C3-O2=111.52                C5-C3-O4=124.09                N6-C5-C3=114.50                C23-C5-C3=119.74               
C23-C5-N6=120.17               O25-C5-C3=115.65               O25-C5-N6=116.79               O25-C5-C23= 57.85              
C7-N6-C5=118.81                C8-C7-N6=120.35                N20-C7-N6=124.06               N20-C7-C8=115.59               
C9-C8-C7=108.66                C10-C8-C7=110.51               C10-C8-C9=111.25               N11-C8-C7=108.49               
N11-C8-C9=107.87               N11-C8-C10=109.98              H29-C9-C8=109.77               H30-C9-C8=110.24               
H30-C9-H29=109.00              H31-C9-C8=109.78               H31-C9-H29=108.94              H31-C9-H30=109.09              
H32-C10-C8=109.99              H33-C10-C8=109.50              H33-C10-H32=108.93             H34-C10-C8=109.69              
H34-C10-H32=109.36             H34-C10-H33=109.35             
 
 selected dihedral angles (degree)
 ---------------------------------
C3-O2-C1-H26= 61.22           C3-O2-C1-H27=180.93           C3-O2-C1-H28=300.72           O4-C3-O2-C1=  0.55            
C5-C3-O2-C1=179.07            N6-C5-C3-O2= 18.58            N6-C5-C3-O4=197.11            C23-C5-C3-O2=224.87           
C23-C5-C3-O4= 43.39           O25-C5-C3-O2=158.79           O25-C5-C3-O4=337.31           C7-N6-C5-C3=194.17            
C7-N6-C5-C23=347.76           C7-N6-C5-O25= 54.43           C8-C7-N6-C5=186.01            N20-C7-N6-C5=  5.76           
C9-C8-C7-N6=105.12            C9-C8-C7-N20=285.35           C10-C8-C7-N6=342.79           C10-C8-C7-N20=163.02          
N11-C8-C7-N6=222.14           N11-C8-C7-N20= 42.38          H29-C9-C8-C7=179.20           H29-C9-C8-C10=301.07          
H29-C9-C8-N11= 61.78          H30-C9-C8-C7= 59.12           H30-C9-C8-C10=180.99          H30-C9-C8-N11=301.70          
H31-C9-C8-C7=298.91           H31-C9-C8-C10= 60.79          H31-C9-C8-N11=181.50          H32-C10-C8-C7=302.14          
H32-C10-C8-C9=181.35          H32-C10-C8-N11= 61.89         H33-C10-C8-C7= 61.81          H33-C10-C8-C9=301.02          
H33-C10-C8-N11=181.56         H34-C10-C8-C7=181.82          H34-C10-C8-C9= 61.02          H34-C10-C8-N11=301.57         
           -------------------------------------------------
          |                Final Singlepoint                |
           -------------------------------------------------

          ...................................................
          :                      SETUP                      :
          :.................................................:
          :  # basis functions                 134          :
          :  # atomic orbitals                 134          :
          :  # shells                           84          :
          :  # electrons                       134          :
          :  # halogen bonds                     0          :
          :  max. iterations                   250          :
          :  Hamiltonian                  GFN1-xTB          :
          :  restarted?                      false          :
          :  GBSA solvation                   true          :
          :  PC potential                    false          :
          :  electronic temp.          300.0000000     K    :
          :  accuracy                    1.0000000          :
          :  -> integral cutoff          0.2500000E+02      :
          :  -> integral neglect         0.1000000E-07      :
          :  -> SCF convergence          0.1000000E-05 Eh   :
          :  -> wf. convergence          0.2000000E-04 e    :
          :  Broyden damping             0.4000000          :
          ...................................................

 iter      E             dE          RMSdq      gap      omega  full diag
   1    -83.7837704 -0.837838E+02  0.482E-06    3.55       0.0  T
   2    -83.7837704 -0.426326E-13  0.239E-06    3.55    6455.5  T
   3    -83.7837704 -0.284217E-13  0.959E-07    3.55   16088.4  T

   *** convergence criteria satisfied after 3 iterations ***

         #    Occupation            Energy/Eh            Energy/eV
      -------------------------------------------------------------
         1        2.0000           -0.8669698             -23.5914
       ...           ...                  ...                  ...
        61        2.0000           -0.4708312             -12.8120
        62        2.0000           -0.4673062             -12.7160
        63        2.0000           -0.4636028             -12.6153
        64        2.0000           -0.4607886             -12.5387
        65        2.0000           -0.4541095             -12.3569
        66        2.0000           -0.4533649             -12.3367
        67        2.0000           -0.4450037             -12.1092 (HOMO)
        68                         -0.3144721              -8.5572 (LUMO)
        69                         -0.3008522              -8.1866
        70                         -0.2871022              -7.8124
        71                         -0.2579004              -7.0178
        72                         -0.2572764              -7.0008
       ...                                ...                  ...
       134                          0.7200230              19.5928
      -------------------------------------------------------------
                  HL-Gap            0.1305316 Eh            3.5519 eV
             Fermi-level           -0.3797379 Eh          -10.3332 eV

 SCC (total)                   0 d,  0 h,  0 min,  0.115 sec
 SCC setup                      ...        0 min,  0.002 sec (  1.431%)
 Dispersion                     ...        0 min,  0.000 sec (  0.238%)
 classical contributions        ...        0 min,  0.000 sec (  0.080%)
 integral evaluation            ...        0 min,  0.029 sec ( 25.584%)
 iterations                     ...        0 min,  0.020 sec ( 17.167%)
 molecular gradient             ...        0 min,  0.063 sec ( 54.385%)
 printout                       ...        0 min,  0.001 sec (  1.077%)

         :::::::::::::::::::::::::::::::::::::::::::::::::::::
         ::                     SUMMARY                     ::
         :::::::::::::::::::::::::::::::::::::::::::::::::::::
         :: total energy             -83.011699341820 Eh    ::
         :: total w/o Gsasa/hb       -82.990687830277 Eh    ::
         :: gradient norm              0.000658162337 Eh/a0 ::
         :: HOMO-LUMO gap              3.551945231373 eV    ::
         ::.................................................::
         :: SCC energy               -83.783770446543 Eh    ::
         :: -> electrostatic           0.361336175006 Eh    ::
         :: -> Gsolv                  -0.060373170171 Eh    ::
         ::    -> Gelec               -0.039361658628 Eh    ::
         ::    -> Gsasa               -0.024046284787 Eh    ::
         ::    -> Ghb                 -0.004589505760 Eh    ::
         ::    -> Gshift               0.007624279005 Eh    ::
         :: repulsion energy           0.798165744801 Eh    ::
         :: dispersion energy         -0.026094640078 Eh    ::
         :: halogen bond corr.         0.000000000000 Eh    ::
         :: add. restraining           0.000000000000 Eh    ::
         :: total charge               0.000000000000 e     ::
         :::::::::::::::::::::::::::::::::::::::::::::::::::::

           -------------------------------------------------
          |                Property Printout                |
           -------------------------------------------------

    * Orbital Energies and Occupations

         #    Occupation            Energy/Eh            Energy/eV
      -------------------------------------------------------------
         1        2.0000           -0.8669698             -23.5914
       ...           ...                  ...                  ...
        55        2.0000           -0.5078906             -13.8204
        56        2.0000           -0.5067026             -13.7881
        57        2.0000           -0.5045029             -13.7282
        58        2.0000           -0.5017298             -13.6528
        59        2.0000           -0.4823999             -13.1268
        60        2.0000           -0.4767588             -12.9733
        61        2.0000           -0.4708312             -12.8120
        62        2.0000           -0.4673062             -12.7160
        63        2.0000           -0.4636028             -12.6153
        64        2.0000           -0.4607886             -12.5387
        65        2.0000           -0.4541095             -12.3569
        66        2.0000           -0.4533649             -12.3367
        67        2.0000           -0.4450037             -12.1092 (HOMO)
        68                         -0.3144721              -8.5572 (LUMO)
        69                         -0.3008522              -8.1866
        70                         -0.2871022              -7.8124
        71                         -0.2579004              -7.0178
        72                         -0.2572764              -7.0008
        73                         -0.2014200              -5.4809
        74                         -0.1437707              -3.9122
        75                         -0.1418752              -3.8606
        76                         -0.1348377              -3.6691
        77                         -0.1301674              -3.5420
        78                         -0.1260656              -3.4304
       ...                                ...                  ...
       134                          0.7200230              19.5928
      -------------------------------------------------------------
                  HL-Gap            0.1305316 Eh            3.5519 eV
             Fermi-level           -0.3797379 Eh          -10.3332 eV

  Mulliken/CM5 charges         n(s)   n(p)   n(d)
     1C     0.16128  0.04019   0.983  2.856  0.000
     2O    -0.40163 -0.48441   1.683  4.719  0.000
     3C     0.57429  0.64199   0.972  2.454  0.000
     4O    -0.54266 -0.59365   1.722  4.821  0.000
     5C     0.31916  0.40983   1.002  2.678  0.000
     6N    -0.39842 -0.58074   1.527  3.871  0.000
     7C     0.31763  0.47224   1.019  2.664  0.000
     8C     0.15148  0.19189   1.064  2.784  0.000
     9C    -0.11237 -0.25295   1.023  3.089  0.000
    10C    -0.10068 -0.23896   1.017  3.083  0.000
    11N    -0.35475 -0.71315   1.438  3.917  0.000
    12C     0.46800  0.57724   0.979  2.553  0.000
    13O    -0.58186 -0.62162   1.727  4.855  0.000
    14C     0.33147  0.45726   1.005  2.663  0.000
    15N    -0.21889 -0.32277   1.566  3.653  0.000
    16N    -0.26616 -0.37382   1.563  3.703  0.000
    17C     0.39324  0.50183   1.008  2.599  0.000
    18C    -0.11229 -0.24972   1.012  3.100  0.000
    19O    -0.35640 -0.41300   1.696  4.660  0.000
    20N    -0.30365 -0.64814   1.433  3.871  0.000
    21C     0.47387  0.57653   0.995  2.531  0.000
    22O    -0.55256 -0.59594   1.726  4.827  0.000
    23C     0.19758  0.22078   1.047  2.756  0.000
    24C    -0.10680 -0.24772   1.014  3.093  0.000
    25O    -0.45885 -0.51096   1.740  4.719  0.000
    26H     0.05838  0.11997   0.942  0.000  0.000
    27H     0.05984  0.12021   0.940  0.000  0.000
    28H     0.05774  0.11955   0.942  0.000  0.000
    29H     0.06317  0.11874   0.937  0.000  0.000
    30H     0.05513  0.11323   0.945  0.000  0.000
    31H     0.05732  0.11204   0.943  0.000  0.000
    32H     0.05618  0.11762   0.944  0.000  0.000
    33H     0.04821  0.10562   0.952  0.000  0.000
    34H     0.05000  0.10585   0.950  0.000  0.000
    35H     0.27500  0.48044   0.725  0.000  0.000
    36H     0.08146  0.13599   0.919  0.000  0.000
    37H     0.07055  0.12632   0.929  0.000  0.000
    38H     0.08115  0.13575   0.919  0.000  0.000
    39H     0.27432  0.48278   0.726  0.000  0.000
    40H     0.05520  0.10971   0.945  0.000  0.000
    41H     0.06735  0.12391   0.933  0.000  0.000
    42H     0.06900  0.13007   0.931  0.000  0.000

Wiberg/Mayer (AO) data.
largest (>0.10) Wiberg bond orders for each atom

 ---------------------------------------------------------------------------
     #   Z sym  total        # sym  WBO       # sym  WBO       # sym  WBO
 ---------------------------------------------------------------------------
     1   6 C    3.862 --    27 H    0.986    28 H    0.980    26 H    0.979
                             2 O    0.886
     2   8 O    2.220 --     3 C    1.144     1 C    0.886     4 O    0.141
     3   6 C    3.849 --     4 O    1.680     2 O    1.144     5 C    0.939
     4   8 O    1.949 --     3 C    1.680     2 O    0.141
     5   6 C    3.869 --     6 N    1.030     3 C    0.939    25 O    0.904
                            23 C    0.832
     6   7 N    3.022 --     7 C    1.707     5 C    1.030
     7   6 C    3.929 --     6 N    1.707    20 N    1.108     8 C    0.975
     8   6 C    3.937 --    10 C    0.990     9 C    0.983     7 C    0.975
                            11 N    0.927
     9   6 C    3.990 --    30 H    0.984    31 H    0.983     8 C    0.983
                            29 H    0.981
    10   6 C    3.988 --     8 C    0.990    34 H    0.985    33 H    0.984
                            32 H    0.982
    11   7 N    3.337 --    12 C    1.242     8 C    0.927    35 H    0.889
                            13 O    0.173
    12   6 C    3.915 --    13 O    1.590    11 N    1.242    14 C    0.997
    13   8 O    1.892 --    12 C    1.590    11 N    0.173
    14   6 C    3.874 --    15 N    1.619    19 O    1.047    12 C    0.997
    15   7 N    3.002 --    14 C    1.619    16 N    1.201
    16   7 N    2.982 --    17 C    1.607    15 N    1.201
    17   6 C    3.868 --    16 N    1.607    19 O    1.074    18 C    1.032
    18   6 C    3.986 --    17 C    1.032    37 H    0.982    38 H    0.963
                            36 H    0.962
    19   8 O    2.317 --    17 C    1.074    14 C    1.047
    20   7 N    3.420 --    21 C    1.148     7 C    1.108    39 H    0.885
                            22 O    0.127
    21   6 C    3.893 --    22 O    1.652    20 N    1.148    23 C    0.979
    22   8 O    1.930 --    21 C    1.652    20 N    0.127
    23   6 C    3.860 --    24 C    1.002    21 C    0.979    25 O    0.894
                             5 C    0.832
    24   6 C    3.985 --    23 C    1.002    40 H    0.980    42 H    0.979
                            41 H    0.975
    25   8 O    1.964 --     5 C    0.904    23 C    0.894
    26   1 H    1.005 --     1 C    0.979
    27   1 H    1.009 --     1 C    0.986
    28   1 H    1.005 --     1 C    0.980
    29   1 H    0.996 --     9 C    0.981
    30   1 H    0.998 --     9 C    0.984
    31   1 H    0.999 --     9 C    0.983
    32   1 H    1.009 --    10 C    0.982
    33   1 H    1.008 --    10 C    0.984
    34   1 H    1.001 --    10 C    0.985
    35   1 H    0.930 --    11 N    0.889
    36   1 H    0.996 --    18 C    0.962
    37   1 H    0.998 --    18 C    0.982
    38   1 H    0.996 --    18 C    0.963
    39   1 H    0.935 --    20 N    0.885
    40   1 H    1.000 --    24 C    0.980
    41   1 H    1.003 --    24 C    0.975
    42   1 H    1.010 --    24 C    0.979
 ---------------------------------------------------------------------------

Topologies differ in total number of bonds
Writing topology from bond orders to xtbtopo.mol

 dipole moment from electron density (au)
     X       Y       Z   
  -3.7198  -0.2958   3.4911  total (Debye):   12.988

           -------------------------------------------------
          |                Geometry Summary                 |
           -------------------------------------------------

      molecular mass/u    :      351.3152409
   center of mass at/Å    :        0.0613727       0.0745334      -0.2875648
  moments of inertia/u·Å² :        0.1165640E+04   0.4306029E+04   0.4497126E+04
rotational constants/cm⁻¹ :        0.1446213E-01   0.3914890E-02   0.3748534E-02

 * 39 selected distances

     #   Z          #   Z                                           value/Å
     1   6 C        2   8 O                                       1.4335829
     2   8 O        3   6 C                                       1.3222047
     3   6 C        4   8 O                                       1.2058574
     5   6 C        6   7 N                                       1.4130938
     6   7 N        7   6 C                                       1.2734386
     8   6 C        9   6 C                                       1.5312406 (max)
     8   6 C       10   6 C                                       1.5306415
     8   6 C       11   7 N                                       1.4642965
    11   7 N       12   6 C                                       1.3534029
    12   6 C       13   8 O                                       1.2196315
    14   6 C       15   7 N                                       1.2968182
    16   7 N       17   6 C                                       1.2969556
    17   6 C       18   6 C                                       1.4784027
    14   6 C       19   8 O                                       1.3506258
    17   6 C       19   8 O                                       1.3430317
     7   6 C       20   7 N                                       1.3792357
    20   7 N       21   6 C                                       1.3730738
    21   6 C       22   8 O                                       1.2127436
     5   6 C       23   6 C                                       1.5037171
    23   6 C       24   6 C                                       1.5094870
     5   6 C       25   8 O                                       1.3968823
    23   6 C       25   8 O                                       1.4060667
     1   6 C       26   1 H                                       1.0918050
     1   6 C       27   1 H                                       1.0874305
     1   6 C       28   1 H                                       1.0919535
     9   6 C       29   1 H                                       1.0879549
     9   6 C       30   1 H                                       1.0885604
     9   6 C       31   1 H                                       1.0889253
    10   6 C       32   1 H                                       1.0893277
    10   6 C       33   1 H                                       1.0888839
    10   6 C       34   1 H                                       1.0876134
    11   7 N       35   1 H                                       1.0052825 (min)
    18   6 C       36   1 H                                       1.0898079
    18   6 C       37   1 H                                       1.0872978
    18   6 C       38   1 H                                       1.0896207
    20   7 N       39   1 H                                       1.0091826
    24   6 C       40   1 H                                       1.0890848
    24   6 C       41   1 H                                       1.0900320
    24   6 C       42   1 H                                       1.0872660

 * 5 distinct bonds (by element types)

   Z      Z             #   av. dist./Å        max./Å        min./Å
   1 H    6 C          15     1.0890376     1.0919535     1.0872660
   6 C    6 C           5     1.5106978     1.5312406     1.4784027
   1 H    7 N           2     1.0072325     1.0091826     1.0052825
   6 C    7 N           8     1.3562894     1.4642965     1.2734386
   6 C    8 O           9     1.3211807     1.4335829     1.2058574


optimized geometry written to: xtbopt.xyz


           -------------------------------------------------
          | TOTAL ENERGY              -83.011699341820 Eh   |
          | GRADIENT NORM               0.000658162337 Eh/α |
          | HOMO-LUMO GAP               3.551945231373 eV   |
           -------------------------------------------------

------------------------------------------------------------------------
 * finished run on 2023/06/21 at 17:35:25.117     
------------------------------------------------------------------------
 total:
 * wall-time:     0 d,  0 h,  0 min,  7.034 sec
 *  cpu-time:     0 d,  0 h,  0 min,  6.829 sec
 * ratio c/w:     0.971 speedup
 SCF:
 * wall-time:     0 d,  0 h,  0 min,  0.190 sec
 *  cpu-time:     0 d,  0 h,  0 min,  0.189 sec
 * ratio c/w:     0.995 speedup
 ANC optimizer:
 * wall-time:     0 d,  0 h,  0 min,  6.714 sec
 *  cpu-time:     0 d,  0 h,  0 min,  6.601 sec
 * ratio c/w:     0.983 speedup

