      -----------------------------------------------------------      
     |                   =====================                   |     
     |                           x T B                           |     
     |                   =====================                   |     
     |                         S. Grimme                         |     
     |          Mulliken Center for Theoretical Chemistry        |     
     |                    University of Bonn                     |     
      -----------------------------------------------------------      

   * xtb version 6.5.1 (579679a) compiled by 'ehlert@majestix' on 2022-07-11

   xtb is free software: you can redistribute it and/or modify it under
   the terms of the GNU Lesser General Public License as published by
   the Free Software Foundation, either version 3 of the License, or
   (at your option) any later version.
   
   xtb is distributed in the hope that it will be useful,
   but WITHOUT ANY WARRANTY; without even the implied warranty of
   MERCHANTABILITY or FITNESS FOR A PARTICULAR PURPOSE.  See the
   GNU Lesser General Public License for more details.
   
   Cite this work as:
   * C. Bannwarth, E. Caldeweyher, S. Ehlert, A. Hansen, P. Pracht,
     J. Seibert, S. Spicher, S. Grimme, WIREs Comput. Mol. Sci., 2020, 11,
     e01493. DOI: 10.1002/wcms.1493
   
   for GFN2-xTB:
   * C. Bannwarth, S. Ehlert and S. Grimme., J. Chem. Theory Comput., 2019,
     15, 1652-1671. DOI: 10.1021/acs.jctc.8b01176
   for GFN1-xTB:
   * S. Grimme, C. Bannwarth, P. Shushkov, J. Chem. Theory Comput., 2017,
     13, 1989-2009. DOI: 10.1021/acs.jctc.7b00118
   for GFN0-xTB:
   * P. Pracht, E. Caldeweyher, S. Ehlert, S. Grimme, ChemRxiv, 2019, preprint.
     DOI: 10.26434/chemrxiv.8326202.v1
   for GFN-FF:
   * S. Spicher and S. Grimme, Angew. Chem. Int. Ed., 2020, 59, 15665-15673.
     DOI: 10.1002/anie.202004239
   
   for ALPB and GBSA implicit solvation:
   * S. Ehlert, M. Stahn, S. Spicher, S. Grimme, J. Chem. Theory Comput.,
     2021, 17, 4250-4261. DOI: 10.1021/acs.jctc.1c00471
   
   for DFT-D4:
   * E. Caldeweyher, C. Bannwarth and S. Grimme, J. Chem. Phys., 2017,
     147, 034112. DOI: 10.1063/1.4993215
   * E. Caldeweyher, S. Ehlert, A. Hansen, H. Neugebauer, S. Spicher,
     C. Bannwarth and S. Grimme, J. Chem. Phys., 2019, 150, 154122.
     DOI: 10.1063/1.5090222
   * E. Caldeweyher, J.-M. Mewes, S. Ehlert and S. Grimme, Phys. Chem. Chem. Phys.
     2020, 22, 8499-8512. DOI: 10.1039/D0CP00502A
   
   for sTDA-xTB:
   * S. Grimme and C. Bannwarth, J. Chem. Phys., 2016, 145, 054103.
     DOI: 10.1063/1.4959605
   
   in the mass-spec context:
   * V. Asgeirsson, C. Bauer and S. Grimme, Chem. Sci., 2017, 8, 4879.
     DOI: 10.1039/c7sc00601b
   * J. Koopman and S. Grimme, ACS Omega 2019, 4, 12, 15120-15133.
     DOI: 10.1021/acsomega.9b02011
   
   for metadynamics refer to:
   * S. Grimme, J. Chem. Theory Comput., 2019, 155, 2847-2862
     DOI: 10.1021/acs.jctc.9b00143
   
   for SPH calculations refer to:
   * S. Spicher and S. Grimme, J. Chem. Theory Comput., 2021, 17, 1701-1714
     DOI: 10.1021/acs.jctc.0c01306
   
   with help from (in alphabetical order)
   P. Atkinson, C. Bannwarth, F. Bohle, G. Brandenburg, E. Caldeweyher
   M. Checinski, S. Dohm, S. Ehlert, S. Ehrlich, I. Gerasimov, C. Hölzer
   A. Katbashev, J. Koopman, C. Lavigne, S. Lehtola, F. März, M. Müller,
   F. Musil, H. Neugebauer, J. Pisarek, C. Plett, P. Pracht, F. Pultar,
   J. Seibert, P. Shushkov, S. Spicher, M. Stahn, M. Steiner, T. Strunk,
   J. Stückrath, T. Rose, and J. Unsleber
   
 * started run on 2023/06/20 at 15:43:11.730     

           -------------------------------------------------
          |                Calculation Setup                |
           -------------------------------------------------

          program call               : /lustre/hpc/kemi/ree/PhD/git/ReactivityQM/dep/xtb-6.5.1/bin/xtb --gfn 1 /lustre/hpc/kemi/ree/PhD/git/ReactivityQM/calculations/R02/reac01prodN16/conf02/R02_reac01prodN16_conf02_gfn1.xyz --opt --vfukui --chrg 1 --uhf 0 --alpb DMSO
          hostname                   : node315
          coordinate file            : /lustre/hpc/kemi/ree/PhD/git/ReactivityQM/calculations/R02/reac01prodN16/conf02/R02_reac01prodN16_conf02_gfn1.xyz
          omp threads                :                     1

   ID    Z sym.   atoms
    1    6 C      1, 2, 5, 6, 9-12, 14, 15, 18-20, 22
    2    7 N      3, 4, 8, 13, 24
    3    8 O      7, 16, 17, 21, 23, 25
    4    1 H      26-43

           -------------------------------------------------
          |                 G F N 1 - x T B                 |
           -------------------------------------------------

        Reference                      10.1021/acs.jctc.7b00118
      * Hamiltonian:
        H0-scaling (s, p, d)           1.850000    2.250000    2.000000
        zeta-weighting                 0.000000
      * Dispersion:
        s8                             2.400000
        a1                             0.630000
        a2                             5.000000
        s9                             0.000000
      * Repulsion:
        kExp                           1.500000
        rExp                           1.000000
      * Coulomb:
        alpha                          2.000000
        third order                    atomic
        anisotropic                    false
      * Halogen bond correction:
        rad-scale                      1.300000
        damping                        0.440000

      * Solvation model:               ALPB
        Solvent                        DMSO
        Parameter file                 internal GFN1-xTB/ALPB
        Dielectric constant                4.6680E+01
        Reference state                gsolv [1 M gas/solution]
        Free energy shift                  7.6243E-03 Eh       4.7843E+00 kcal/mol
        Temperature                        2.9815E+02 K
        Density                            1.1000E+00 kg/L
        Solvent mass                       7.8130E+01 g/mol
        Interaction kernel             P16
        Born radius scaling (c1)           1.7672E+00
        Born radii integrator          GBOBC
        Born offset                        0.0000E+00 a0       0.0000E+00 AA
        H-bond correction              true
        Ion screening                  false
        Surface tension                    1.0000E-05 Eh       1.5569E+01 dyn/cm
        Grid points                               230 per atom

          ...................................................
          :                      SETUP                      :
          :.................................................:
          :  # basis functions                 136          :
          :  # atomic orbitals                 136          :
          :  # shells                           86          :
          :  # electrons                       134          :
          :  # halogen bonds                     0          :
          :  max. iterations                   250          :
          :  Hamiltonian                  GFN1-xTB          :
          :  restarted?                      false          :
          :  GBSA solvation                   true          :
          :  PC potential                    false          :
          :  electronic temp.          300.0000000     K    :
          :  accuracy                    1.0000000          :
          :  -> integral cutoff          0.2500000E+02      :
          :  -> integral neglect         0.1000000E-07      :
          :  -> SCF convergence          0.1000000E-05 Eh   :
          :  -> wf. convergence          0.2000000E-04 e    :
          :  Broyden damping             0.4000000          :
          ...................................................

 iter      E             dE          RMSdq      gap      omega  full diag
   1    -83.5297806 -0.835298E+02  0.834E+00    2.88       0.0  T
   2    -83.8570460 -0.327265E+00  0.498E+00    2.03       1.0  T
   3    -83.8423562  0.146898E-01  0.173E+00    2.02       1.0  T
   4    -83.8767053 -0.343491E-01  0.180E-01    1.76       1.0  T
   5    -83.8778791 -0.117386E-02  0.524E-02    1.85       1.0  T
   6    -83.8780010 -0.121829E-03  0.170E-02    1.85       1.0  T
   7    -83.8780100 -0.906612E-05  0.582E-03    1.86       2.6  T
   8    -83.8780103 -0.270367E-06  0.178E-03    1.86       8.6  T
   9    -83.8780104 -0.558181E-07  0.398E-04    1.86      38.3  T
  10    -83.8780104 -0.250482E-08  0.160E-04    1.86      95.5  T
  11    -83.8780104 -0.346589E-09  0.299E-05    1.86     509.8  T

   *** convergence criteria satisfied after 11 iterations ***

         #    Occupation            Energy/Eh            Energy/eV
      -------------------------------------------------------------
         1        2.0000           -0.9304861             -25.3198
       ...           ...                  ...                  ...
        61        2.0000           -0.4882138             -13.2850
        62        2.0000           -0.4817393             -13.1088
        63        2.0000           -0.4713597             -12.8264
        64        2.0000           -0.4648135             -12.6482
        65        2.0000           -0.4624648             -12.5843
        66        2.0000           -0.4501846             -12.2501
        67        2.0000           -0.4491325             -12.2215 (HOMO)
        68                         -0.3807162             -10.3598 (LUMO)
        69                         -0.3250564              -8.8452
        70                         -0.3184638              -8.6658
        71                         -0.2945310              -8.0146
        72                         -0.2623295              -7.1383
       ...                                ...                  ...
       136                          0.6879549              18.7202
      -------------------------------------------------------------
                  HL-Gap            0.0684163 Eh            1.8617 eV
             Fermi-level           -0.4149244 Eh          -11.2907 eV

 SCC (total)                   0 d,  0 h,  0 min,  0.163 sec
 SCC setup                      ...        0 min,  0.002 sec (  1.323%)
 Dispersion                     ...        0 min,  0.000 sec (  0.250%)
 classical contributions        ...        0 min,  0.000 sec (  0.079%)
 integral evaluation            ...        0 min,  0.036 sec ( 21.803%)
 iterations                     ...        0 min,  0.041 sec ( 24.965%)
 molecular gradient             ...        0 min,  0.083 sec ( 50.957%)
 printout                       ...        0 min,  0.001 sec (  0.598%)

         :::::::::::::::::::::::::::::::::::::::::::::::::::::
         ::                     SUMMARY                     ::
         :::::::::::::::::::::::::::::::::::::::::::::::::::::
         :: total energy             -83.104477034926 Eh    ::
         :: total w/o Gsasa/hb       -83.077746761247 Eh    ::
         :: gradient norm              0.124625659822 Eh/a0 ::
         :: HOMO-LUMO gap              1.861703049924 eV    ::
         ::.................................................::
         :: SCC energy               -83.878010367185 Eh    ::
         :: -> electrostatic           0.410021122616 Eh    ::
         :: -> Gsolv                  -0.114630985813 Eh    ::
         ::    -> Gelec               -0.087900712134 Eh    ::
         ::    -> Gsasa               -0.024988196016 Eh    ::
         ::    -> Ghb                 -0.009366356668 Eh    ::
         ::    -> Gshift               0.007624279005 Eh    ::
         :: repulsion energy           0.799801648994 Eh    ::
         :: dispersion energy         -0.026268316735 Eh    ::
         :: halogen bond corr.         0.000000000000 Eh    ::
         :: add. restraining           0.000000000000 Eh    ::
         :: total charge               1.000000000000 e     ::
         :::::::::::::::::::::::::::::::::::::::::::::::::::::

      ----------------------------------------------------------- 
     |                   =====================                   |
     |                        A N C O P T                        |
     |                   =====================                   |
     |               Approximate Normal Coordinate               |
     |                Rational Function Optimizer                |
      ----------------------------------------------------------- 

          ...................................................
          :                      SETUP                      :
          :.................................................:
          :   optimization level            normal          :
          :   max. optcycles                   200          :
          :   ANC micro-cycles                  20          :
          :   degrees of freedom               123          :
          :.................................................:
          :   RF solver                   davidson          :
          :   write xtbopt.log                true          :
          :   linear?                        false          :
          :   energy convergence         0.5000000E-05 Eh   :
          :   grad. convergence          0.1000000E-02 Eh/α :
          :   maximium RF displ.         1.0000000          :
          :   Hlow (freq-cutoff)         0.1000000E-01      :
          :   Hmax (freq-cutoff)         5.0000000          :
          :   S6 in model hess.         20.0000000          :
          ...................................................

generating ANC from model Hessian ...
Using Lindh-Hessian (1995)
 Shifting diagonal of input Hessian by   9.856861699338327E-003
 Lowest  eigenvalues of input Hessian
    0.000000    0.000000    0.000000    0.000000    0.000000    0.000000
    0.010000    0.010148    0.010819    0.011095    0.012055    0.012317
    0.012684    0.012953    0.014662    0.016018    0.016461    0.017577
 Highest eigenvalues
    2.002238    2.162494    2.185075    2.226623    2.354084    2.466681
 

........................................................................
.............................. CYCLE    1 ..............................
........................................................................
   1    -83.8780104 -0.838780E+02  0.134E-05    1.86       0.0  T
   2    -83.8780104 -0.115108E-11  0.635E-06    1.86    2401.2  T
   3    -83.8780104 -0.341061E-12  0.381E-06    1.86    3997.4  T
     SCC iter.                  ...        0 min,  0.011 sec
     gradient                   ...        0 min,  0.083 sec
 * total energy  :   -83.1044770 Eh     change       -0.1989520E-10 Eh
   gradient norm :     0.1246254 Eh/α   predicted     0.0000000E+00 (-100.00%)
   displ. norm   :     0.3530438 α      lambda       -0.1853848E-01
   maximum displ.:     0.1204662 α      in ANC's #22, #33, #8, ...

........................................................................
.............................. CYCLE    2 ..............................
........................................................................
   1    -83.9033747 -0.839034E+02  0.973E-02    2.15       0.0  T
   2    -83.9038140 -0.439304E-03  0.433E-02    2.10       1.0  T
   3    -83.9038796 -0.656165E-04  0.165E-02    2.10       1.0  T
   4    -83.9038802 -0.619454E-06  0.778E-03    2.09       2.0  T
   5    -83.9038807 -0.463948E-06  0.240E-03    2.08       6.4  T
   6    -83.9038808 -0.124467E-06  0.430E-04    2.08      35.5  T
   7    -83.9038808 -0.448760E-08  0.145E-04    2.09     105.0  T
   8    -83.9038808 -0.380098E-09  0.325E-05    2.09     468.6  T
     SCC iter.                  ...        0 min,  0.028 sec
     gradient                   ...        0 min,  0.083 sec
 * total energy  :   -83.1178839 Eh     change       -0.1340684E-01 Eh
   gradient norm :     0.0613286 Eh/α   predicted    -0.1045238E-01 ( -22.04%)
   displ. norm   :     0.3561428 α      lambda       -0.8091276E-02
   maximum displ.:     0.1700352 α      in ANC's #22, #6, #8, ...

........................................................................
.............................. CYCLE    3 ..............................
........................................................................
   1    -83.9205977 -0.839206E+02  0.922E-02    2.29       0.0  T
   2    -83.9209677 -0.369954E-03  0.401E-02    2.26       1.0  T
   3    -83.9210257 -0.579581E-04  0.141E-02    2.26       1.1  T
   4    -83.9210262 -0.548821E-06  0.669E-03    2.25       2.3  T
   5    -83.9210267 -0.484397E-06  0.201E-03    2.24       7.6  T
   6    -83.9210267 -0.649068E-07  0.402E-04    2.24      37.9  T
   7    -83.9210268 -0.400958E-08  0.140E-04    2.25     109.3  T
   8    -83.9210268 -0.320640E-09  0.294E-05    2.25     519.5  T
     SCC iter.                  ...        0 min,  0.027 sec
     gradient                   ...        0 min,  0.083 sec
 * total energy  :   -83.1227284 Eh     change       -0.4844483E-02 Eh
   gradient norm :     0.0221513 Eh/α   predicted    -0.4558778E-02 (  -5.90%)
   displ. norm   :     0.2721750 α      lambda       -0.1580389E-02
   maximum displ.:     0.1591174 α      in ANC's #6, #8, #22, ...

........................................................................
.............................. CYCLE    4 ..............................
........................................................................
   1    -83.9233738 -0.839234E+02  0.294E-02    2.26       0.0  T
   2    -83.9234056 -0.318311E-04  0.142E-02    2.26       1.1  T
   3    -83.9234116 -0.599456E-05  0.602E-03    2.26       2.5  T
   4    -83.9234117 -0.617949E-07  0.230E-03    2.26       6.6  T
   5    -83.9234117 -0.829214E-07  0.642E-04    2.25      23.8  T
   6    -83.9234117 -0.825703E-08  0.142E-04    2.25     107.6  T
   7    -83.9234117 -0.386038E-09  0.506E-05    2.26     301.5  T
     SCC iter.                  ...        0 min,  0.025 sec
     gradient                   ...        0 min,  0.083 sec
 * total energy  :   -83.1238617 Eh     change       -0.1133387E-02 Eh
   gradient norm :     0.0122119 Eh/α   predicted    -0.8487934E-03 ( -25.11%)
   displ. norm   :     0.3764378 α      lambda       -0.1237822E-02
   maximum displ.:     0.2449463 α      in ANC's #6, #8, #2, ...

........................................................................
.............................. CYCLE    5 ..............................
........................................................................
   1    -83.9246065 -0.839246E+02  0.267E-02    2.25       0.0  T
   2    -83.9246343 -0.277766E-04  0.119E-02    2.25       1.3  T
   3    -83.9246377 -0.340858E-05  0.570E-03    2.25       2.7  T
   4    -83.9246379 -0.150708E-06  0.234E-03    2.25       6.5  T
   5    -83.9246379 -0.539250E-07  0.598E-04    2.25      25.5  T
   6    -83.9246379 -0.100258E-07  0.145E-04    2.25     105.0  T
   7    -83.9246379 -0.462151E-09  0.546E-05    2.25     279.3  T
     SCC iter.                  ...        0 min,  0.025 sec
     gradient                   ...        0 min,  0.086 sec
 * total energy  :   -83.1247868 Eh     change       -0.9250135E-03 Eh
   gradient norm :     0.0106300 Eh/α   predicted    -0.7066409E-03 ( -23.61%)
   displ. norm   :     0.4385498 α      lambda       -0.9987896E-03
   maximum displ.:     0.2890349 α      in ANC's #6, #8, #2, ...

........................................................................
.............................. CYCLE    6 ..............................
........................................................................
   1    -83.9246986 -0.839247E+02  0.225E-02    2.22       0.0  T
   2    -83.9247234 -0.247289E-04  0.103E-02    2.23       1.5  T
   3    -83.9247263 -0.294775E-05  0.484E-03    2.22       3.2  T
   4    -83.9247264 -0.122088E-06  0.224E-03    2.22       6.8  T
   5    -83.9247265 -0.353896E-07  0.528E-04    2.22      28.9  T
   6    -83.9247265 -0.874307E-08  0.126E-04    2.22     121.4  T
   7    -83.9247265 -0.340464E-09  0.514E-05    2.22     296.8  T
     SCC iter.                  ...        0 min,  0.026 sec
     gradient                   ...        0 min,  0.089 sec
 * total energy  :   -83.1255614 Eh     change       -0.7746357E-03 Eh
   gradient norm :     0.0135368 Eh/α   predicted    -0.5954417E-03 ( -23.13%)
   displ. norm   :     0.4449367 α      lambda       -0.8410988E-03
   maximum displ.:     0.2873504 α      in ANC's #6, #8, #2, ...

........................................................................
.............................. CYCLE    7 ..............................
........................................................................
   1    -83.9249499 -0.839249E+02  0.185E-02    2.20       0.0  T
   2    -83.9249688 -0.188886E-04  0.912E-03    2.20       1.7  T
   3    -83.9249717 -0.292096E-05  0.382E-03    2.20       4.0  T
   4    -83.9249718 -0.568365E-07  0.195E-03    2.20       7.8  T
   5    -83.9249718 -0.230696E-07  0.455E-04    2.20      33.5  T
   6    -83.9249718 -0.648298E-08  0.948E-05    2.20     160.9  T
   7    -83.9249718 -0.161762E-09  0.439E-05    2.20     347.5  T
     SCC iter.                  ...        0 min,  0.025 sec
     gradient                   ...        0 min,  0.083 sec
 * total energy  :   -83.1262290 Eh     change       -0.6676487E-03 Eh
   gradient norm :     0.0133768 Eh/α   predicted    -0.5038056E-03 ( -24.54%)
   displ. norm   :     0.4686095 α      lambda       -0.7622929E-03
   maximum displ.:     0.2960206 α      in ANC's #6, #8, #2, ...

........................................................................
.............................. CYCLE    8 ..............................
........................................................................
   1    -83.9258784 -0.839259E+02  0.158E-02    2.18       0.0  T
   2    -83.9258912 -0.127335E-04  0.864E-03    2.18       1.8  T
   3    -83.9258938 -0.263646E-05  0.357E-03    2.18       4.3  T
   4    -83.9258938 -0.250691E-07  0.168E-03    2.18       9.1  T
   5    -83.9258938 -0.227007E-07  0.409E-04    2.18      37.3  T
   6    -83.9258939 -0.478762E-08  0.894E-05    2.18     170.6  T
   7    -83.9258939 -0.108827E-09  0.403E-05    2.18     378.4  T
     SCC iter.                  ...        0 min,  0.025 sec
     gradient                   ...        0 min,  0.084 sec
 * total energy  :   -83.1268067 Eh     change       -0.5776707E-03 Eh
   gradient norm :     0.0105001 Eh/α   predicted    -0.4648454E-03 ( -19.53%)
   displ. norm   :     0.4102898 α      lambda       -0.5235944E-03
   maximum displ.:     0.2502554 α      in ANC's #6, #2, #8, ...

........................................................................
.............................. CYCLE    9 ..............................
........................................................................
   1    -83.9274598 -0.839275E+02  0.108E-02    2.16       0.0  T
   2    -83.9274647 -0.483898E-05  0.634E-03    2.16       2.4  T
   3    -83.9274660 -0.137500E-05  0.276E-03    2.16       5.5  T
   4    -83.9274660 -0.172225E-07  0.970E-04    2.16      15.7  T
   5    -83.9274661 -0.945158E-08  0.296E-04    2.16      51.6  T
   6    -83.9274661 -0.208425E-08  0.720E-05    2.16     211.7  T
   7    -83.9274661 -0.560760E-10  0.214E-05    2.16     714.2  T
     SCC iter.                  ...        0 min,  0.024 sec
     gradient                   ...        0 min,  0.092 sec
 * total energy  :   -83.1271888 Eh     change       -0.3820642E-03 Eh
   gradient norm :     0.0073243 Eh/α   predicted    -0.3058685E-03 ( -19.94%)
   displ. norm   :     0.3183115 α      lambda       -0.3237934E-03
   maximum displ.:     0.1779794 α      in ANC's #6, #2, #8, ...

........................................................................
.............................. CYCLE   10 ..............................
........................................................................
   1    -83.9295017 -0.839295E+02  0.766E-03    2.15       0.0  T
   2    -83.9295034 -0.175160E-05  0.385E-03    2.15       4.0  T
   3    -83.9295037 -0.263692E-06  0.199E-03    2.15       7.7  T
   4    -83.9295037 -0.157593E-07  0.672E-04    2.15      22.7  T
   5    -83.9295037 -0.573390E-08  0.208E-04    2.15      73.2  T
   6    -83.9295037 -0.109442E-08  0.552E-05    2.15     276.1  T
   7    -83.9295037 -0.580371E-10  0.163E-05    2.15     933.4  T
     SCC iter.                  ...        0 min,  0.024 sec
     gradient                   ...        0 min,  0.084 sec
 * total energy  :   -83.1274305 Eh     change       -0.2417588E-03 Eh
   gradient norm :     0.0056954 Eh/α   predicted    -0.1783008E-03 ( -26.25%)
   displ. norm   :     0.3091678 α      lambda       -0.2410932E-03
   maximum displ.:     0.1757692 α      in ANC's #2, #6, #8, ...

........................................................................
.............................. CYCLE   11 ..............................
........................................................................
   1    -83.9296526 -0.839297E+02  0.760E-03    2.13       0.0  T
   2    -83.9296550 -0.237871E-05  0.319E-03    2.13       4.8  T
   3    -83.9296552 -0.234803E-06  0.150E-03    2.13      10.2  T
   4    -83.9296552 -0.118410E-07  0.682E-04    2.13      22.3  T
   5    -83.9296552 -0.414676E-08  0.200E-04    2.13      76.1  T
   6    -83.9296552 -0.683201E-09  0.474E-05    2.13     322.1  T
   7    -83.9296552 -0.674731E-10  0.183E-05    2.13     833.7  T
     SCC iter.                  ...        0 min,  0.024 sec
     gradient                   ...        0 min,  0.084 sec
 * total energy  :   -83.1276104 Eh     change       -0.1798664E-03 Eh
   gradient norm :     0.0054155 Eh/α   predicted    -0.1320697E-03 ( -26.57%)
   displ. norm   :     0.2566285 α      lambda       -0.2065523E-03
   maximum displ.:     0.1736146 α      in ANC's #2, #4, #6, ...

........................................................................
.............................. CYCLE   12 ..............................
........................................................................
   1    -83.9323785 -0.839324E+02  0.934E-03    2.14       0.0  T
   2    -83.9323820 -0.347960E-05  0.499E-03    2.13       3.1  T
   3    -83.9323824 -0.427822E-06  0.242E-03    2.13       6.3  T
   4    -83.9323824 -0.477391E-08  0.104E-03    2.13      14.7  T
   5    -83.9323824 -0.139634E-07  0.209E-04    2.13      72.9  T
   6    -83.9323824 -0.176088E-08  0.561E-05    2.13     271.8  T
   7    -83.9323824 -0.534470E-10  0.229E-05    2.13     666.3  T
     SCC iter.                  ...        0 min,  0.025 sec
     gradient                   ...        0 min,  0.084 sec
 * total energy  :   -83.1277500 Eh     change       -0.1395704E-03 Eh
   gradient norm :     0.0077880 Eh/α   predicted    -0.1100788E-03 ( -21.13%)
   displ. norm   :     0.3087308 α      lambda       -0.1929348E-03
   maximum displ.:     0.1996226 α      in ANC's #2, #4, #6, ...

........................................................................
.............................. CYCLE   13 ..............................
........................................................................
   1    -83.9292327 -0.839292E+02  0.105E-02    2.11       0.0  T
   2    -83.9292374 -0.473463E-05  0.475E-03    2.11       3.2  T
   3    -83.9292378 -0.411992E-06  0.257E-03    2.11       5.9  T
   4    -83.9292379 -0.476408E-07  0.112E-03    2.11      13.6  T
   5    -83.9292379 -0.127995E-07  0.241E-04    2.11      63.3  T
   6    -83.9292379 -0.923322E-09  0.408E-05    2.11     373.7  T
   7    -83.9292379 -0.587050E-10  0.177E-05    2.11     861.6  T
     SCC iter.                  ...        0 min,  0.025 sec
     gradient                   ...        0 min,  0.083 sec
 * total energy  :   -83.1278645 Eh     change       -0.1145655E-03 Eh
   gradient norm :     0.0069246 Eh/α   predicted    -0.1056657E-03 (  -7.77%)
   displ. norm   :     0.1970648 α      lambda       -0.1841429E-03
   maximum displ.:     0.1358206 α      in ANC's #2, #3, #4, ...

........................................................................
.............................. CYCLE   14 ..............................
........................................................................
   1    -83.9303495 -0.839303E+02  0.788E-03    2.11       0.0  T
   2    -83.9303526 -0.308455E-05  0.367E-03    2.11       4.2  T
   3    -83.9303528 -0.201578E-06  0.188E-03    2.11       8.1  T
   4    -83.9303528 -0.272048E-08  0.858E-04    2.11      17.8  T
   5    -83.9303528 -0.771968E-08  0.186E-04    2.11      82.1  T
   6    -83.9303528 -0.931394E-09  0.459E-05    2.11     332.2  T
     SCC iter.                  ...        0 min,  0.021 sec
     gradient                   ...        0 min,  0.084 sec
 * total energy  :   -83.1280003 Eh     change       -0.1357597E-03 Eh
   gradient norm :     0.0058453 Eh/α   predicted    -0.9568258E-04 ( -29.52%)
   displ. norm   :     0.3307544 α      lambda       -0.2444195E-03
   maximum displ.:     0.2250237 α      in ANC's #2, #4, #3, ...

........................................................................
.............................. CYCLE   15 ..............................
........................................................................
   1    -83.9310468 -0.839310E+02  0.910E-03    2.14       0.0  T
   2    -83.9310491 -0.233364E-05  0.463E-03    2.13       3.3  T
   3    -83.9310494 -0.283456E-06  0.244E-03    2.13       6.3  T
   4    -83.9310494 -0.730812E-08  0.874E-04    2.13      17.4  T
   5    -83.9310495 -0.111851E-07  0.173E-04    2.13      88.1  T
   6    -83.9310495 -0.134307E-08  0.462E-05    2.13     329.8  T
     SCC iter.                  ...        0 min,  0.021 sec
     gradient                   ...        0 min,  0.083 sec
 * total energy  :   -83.1281596 Eh     change       -0.1592991E-03 Eh
   gradient norm :     0.0067487 Eh/α   predicted    -0.1355814E-03 ( -14.89%)
   displ. norm   :     0.2878044 α      lambda       -0.1805621E-03
   maximum displ.:     0.2012948 α      in ANC's #2, #3, #4, ...

........................................................................
.............................. CYCLE   16 ..............................
........................................................................
   1    -83.9298889 -0.839299E+02  0.833E-03    2.12       0.0  T
   2    -83.9298932 -0.431030E-05  0.441E-03    2.13       3.5  T
   3    -83.9298940 -0.751575E-06  0.161E-03    2.13       9.5  T
   4    -83.9298940 -0.750424E-08  0.946E-04    2.13      16.1  T
   5    -83.9298940 -0.463353E-08  0.195E-04    2.13      78.2  T
   6    -83.9298940 -0.840870E-09  0.387E-05    2.13     394.4  T
     SCC iter.                  ...        0 min,  0.034 sec
     gradient                   ...        0 min,  0.054 sec
 * total energy  :   -83.1282899 Eh     change       -0.1303062E-03 Eh
   gradient norm :     0.0063710 Eh/α   predicted    -0.9776693E-04 ( -24.97%)
   displ. norm   :     0.2859175 α      lambda       -0.1535550E-03
   maximum displ.:     0.2088264 α      in ANC's #2, #3, #4, ...

........................................................................
.............................. CYCLE   17 ..............................
........................................................................
   1    -83.9292964 -0.839293E+02  0.642E-03    2.12       0.0  T
   2    -83.9292981 -0.170693E-05  0.321E-03    2.12       4.7  T
   3    -83.9292984 -0.284789E-06  0.137E-03    2.12      11.2  T
   4    -83.9292984 -0.724478E-08  0.638E-04    2.12      23.9  T
   5    -83.9292984 -0.513893E-08  0.144E-04    2.12     106.1  T
   6    -83.9292984 -0.406104E-09  0.361E-05    2.12     422.9  T
     SCC iter.                  ...        0 min,  0.015 sec
     gradient                   ...        0 min,  0.044 sec
 * total energy  :   -83.1284068 Eh     change       -0.1169439E-03 Eh
   gradient norm :     0.0062568 Eh/α   predicted    -0.8305446E-04 ( -28.98%)
   displ. norm   :     0.2867076 α      lambda       -0.1577876E-03
   maximum displ.:     0.2147466 α      in ANC's #2, #3, #4, ...

........................................................................
.............................. CYCLE   18 ..............................
........................................................................
   1    -83.9296431 -0.839296E+02  0.894E-03    2.12       0.0  T
   2    -83.9296465 -0.336159E-05  0.420E-03    2.12       3.6  T
   3    -83.9296468 -0.290331E-06  0.200E-03    2.12       7.6  T
   4    -83.9296468 -0.113614E-07  0.912E-04    2.12      16.7  T
   5    -83.9296468 -0.127703E-07  0.217E-04    2.12      70.2  T
   6    -83.9296468 -0.115890E-08  0.593E-05    2.12     257.4  T
   7    -83.9296468 -0.682121E-10  0.273E-05    2.12     559.1  T
     SCC iter.                  ...        0 min,  0.018 sec
     gradient                   ...        0 min,  0.044 sec
 * total energy  :   -83.1285218 Eh     change       -0.1149109E-03 Eh
   gradient norm :     0.0050229 Eh/α   predicted    -0.8538027E-04 ( -25.70%)
   displ. norm   :     0.3534794 α      lambda       -0.1308102E-03
   maximum displ.:     0.2700333 α      in ANC's #2, #3, #4, ...

........................................................................
.............................. CYCLE   19 ..............................
........................................................................
   1    -83.9286616 -0.839287E+02  0.844E-03    2.11       0.0  T
   2    -83.9286645 -0.290142E-05  0.359E-03    2.11       4.3  T
   3    -83.9286647 -0.192789E-06  0.182E-03    2.11       8.4  T
   4    -83.9286647 -0.135861E-07  0.828E-04    2.11      18.4  T
   5    -83.9286647 -0.824380E-08  0.180E-04    2.11      84.7  T
   6    -83.9286647 -0.108535E-08  0.524E-05    2.11     290.9  T
     SCC iter.                  ...        0 min,  0.015 sec
     gradient                   ...        0 min,  0.044 sec
 * total energy  :   -83.1286054 Eh     change       -0.8363056E-04 Eh
   gradient norm :     0.0058533 Eh/α   predicted    -0.7358000E-04 ( -12.02%)
   displ. norm   :     0.2761375 α      lambda       -0.1783224E-03
   maximum displ.:     0.2032812 α      in ANC's #2, #1, #6, ...

........................................................................
.............................. CYCLE   20 ..............................
........................................................................
   1    -83.9325600 -0.839326E+02  0.143E-02    2.11       0.0  T
   2    -83.9325670 -0.704619E-05  0.650E-03    2.11       2.3  T
   3    -83.9325675 -0.424303E-06  0.340E-03    2.11       4.5  T
   4    -83.9325675 -0.254274E-07  0.126E-03    2.11      12.1  T
   5    -83.9325675 -0.215032E-07  0.246E-04    2.11      61.9  T
   6    -83.9325675 -0.219316E-08  0.832E-05    2.11     183.4  T
   7    -83.9325675 -0.196707E-09  0.361E-05    2.11     422.1  T
     SCC iter.                  ...        0 min,  0.017 sec
     gradient                   ...        0 min,  0.044 sec
 * total energy  :   -83.1286740 Eh     change       -0.6864788E-04 Eh
   gradient norm :     0.0069599 Eh/α   predicted    -0.9596280E-04 (  39.79%)
   displ. norm   :     0.2730758 α      lambda       -0.1202479E-03
   maximum displ.:     0.2088511 α      in ANC's #2, #3, #4, ...
 * RMSD in coord.:     0.7526236 α      energy gain  -0.2419700E-01 Eh

generating ANC from model Hessian ...
Using Lindh-Hessian (1995)
 Shifting diagonal of input Hessian by   9.865811063892373E-003
 Lowest  eigenvalues of input Hessian
    0.000000    0.000000    0.000000    0.000000    0.000000    0.000000
    0.010000    0.010211    0.010685    0.011342    0.011896    0.012326
    0.012721    0.012824    0.015143    0.015940    0.016448    0.018734
 Highest eigenvalues
    2.032077    2.196955    2.240524    2.387587    2.393447    2.478174
 

........................................................................
.............................. CYCLE   21 ..............................
........................................................................
   1    -83.9300144 -0.839300E+02  0.697E-03    2.10       0.0  T
   2    -83.9300152 -0.752306E-06  0.356E-03    2.10       4.3  T
   3    -83.9300152 -0.476928E-07  0.194E-03    2.10       7.9  T
   4    -83.9300153 -0.376475E-07  0.510E-04    2.10      29.9  T
   5    -83.9300153 -0.609937E-08  0.124E-04    2.10     123.1  T
   6    -83.9300153 -0.328029E-09  0.335E-05    2.10     454.6  T
     SCC iter.                  ...        0 min,  0.015 sec
     gradient                   ...        0 min,  0.044 sec
 * total energy  :   -83.1287478 Eh     change       -0.7373324E-04 Eh
   gradient norm :     0.0059979 Eh/α   predicted     0.0000000E+00 (-100.00%)
   displ. norm   :     0.0401125 α      lambda       -0.6594398E-04
   maximum displ.:     0.0150127 α      in ANC's #5, #13, #10, ...

........................................................................
.............................. CYCLE   22 ..............................
........................................................................
   1    -83.9312443 -0.839312E+02  0.475E-03    2.10       0.0  T
   2    -83.9312450 -0.765412E-06  0.216E-03    2.11       7.1  T
   3    -83.9312451 -0.602955E-07  0.116E-03    2.11      13.1  T
   4    -83.9312451 -0.751695E-08  0.451E-04    2.11      33.8  T
   5    -83.9312451 -0.314724E-08  0.104E-04    2.11     146.5  T
   6    -83.9312451 -0.243261E-09  0.297E-05    2.11     513.3  T
     SCC iter.                  ...        0 min,  0.015 sec
     gradient                   ...        0 min,  0.044 sec
 * total energy  :   -83.1288033 Eh     change       -0.5556758E-04 Eh
   gradient norm :     0.0032459 Eh/α   predicted    -0.3690674E-04 ( -33.58%)
   displ. norm   :     0.0825766 α      lambda       -0.6962203E-04
   maximum displ.:     0.0365296 α      in ANC's #5, #1, #13, ...

........................................................................
.............................. CYCLE   23 ..............................
........................................................................
   1    -83.9320565 -0.839321E+02  0.726E-03    2.11       0.0  T
   2    -83.9320588 -0.226311E-05  0.292E-03    2.11       5.2  T
   3    -83.9320589 -0.139740E-06  0.145E-03    2.11      10.5  T
   4    -83.9320589 -0.100286E-07  0.652E-04    2.11      23.4  T
   5    -83.9320590 -0.479653E-08  0.171E-04    2.11      89.4  T
   6    -83.9320590 -0.624851E-09  0.497E-05    2.11     307.0  T
     SCC iter.                  ...        0 min,  0.015 sec
     gradient                   ...        0 min,  0.044 sec
 * total energy  :   -83.1288503 Eh     change       -0.4694817E-04 Eh
   gradient norm :     0.0022181 Eh/α   predicted    -0.3504864E-04 ( -25.35%)
   displ. norm   :     0.0882346 α      lambda       -0.3783776E-04
   maximum displ.:     0.0439606 α      in ANC's #5, #1, #2, ...

........................................................................
.............................. CYCLE   24 ..............................
........................................................................
   1    -83.9318689 -0.839319E+02  0.543E-03    2.11       0.0  T
   2    -83.9318702 -0.133402E-05  0.214E-03    2.11       7.1  T
   3    -83.9318703 -0.700793E-07  0.101E-03    2.12      15.1  T
   4    -83.9318703 -0.523612E-08  0.457E-04    2.12      33.4  T
   5    -83.9318703 -0.142484E-08  0.899E-05    2.12     169.7  T
   6    -83.9318703 -0.812577E-10  0.309E-05    2.12     494.3  T
     SCC iter.                  ...        0 min,  0.015 sec
     gradient                   ...        0 min,  0.044 sec
 * total energy  :   -83.1288794 Eh     change       -0.2911173E-04 Eh
   gradient norm :     0.0026096 Eh/α   predicted    -0.1913706E-04 ( -34.26%)
   displ. norm   :     0.1424822 α      lambda       -0.4744821E-04
   maximum displ.:     0.0767180 α      in ANC's #5, #1, #2, ...

........................................................................
.............................. CYCLE   25 ..............................
........................................................................
   1    -83.9309656 -0.839310E+02  0.610E-03    2.12       0.0  T
   2    -83.9309672 -0.160086E-05  0.271E-03    2.12       5.6  T
   3    -83.9309673 -0.112424E-06  0.129E-03    2.12      11.8  T
   4    -83.9309673 -0.866811E-08  0.608E-04    2.12      25.1  T
   5    -83.9309673 -0.472163E-08  0.147E-04    2.12     103.9  T
   6    -83.9309673 -0.497820E-09  0.537E-05    2.12     284.0  T
     SCC iter.                  ...        0 min,  0.015 sec
     gradient                   ...        0 min,  0.044 sec
 * total energy  :   -83.1289137 Eh     change       -0.3426099E-04 Eh
   gradient norm :     0.0029979 Eh/α   predicted    -0.2422538E-04 ( -29.29%)
   displ. norm   :     0.1318571 α      lambda       -0.3710907E-04
   maximum displ.:     0.0725997 α      in ANC's #5, #1, #2, ...

........................................................................
.............................. CYCLE   26 ..............................
........................................................................
   1    -83.9302043 -0.839302E+02  0.368E-03    2.12       0.0  T
   2    -83.9302049 -0.520515E-06  0.197E-03    2.12       7.7  T
   3    -83.9302050 -0.990232E-07  0.922E-04    2.13      16.5  T
   4    -83.9302050 -0.535580E-08  0.374E-04    2.13      40.8  T
   5    -83.9302050 -0.169405E-08  0.958E-05    2.13     159.3  T
   6    -83.9302050 -0.188578E-09  0.289E-05    2.13     527.3  T
     SCC iter.                  ...        0 min,  0.015 sec
     gradient                   ...        0 min,  0.045 sec
 * total energy  :   -83.1289435 Eh     change       -0.2988343E-04 Eh
   gradient norm :     0.0030253 Eh/α   predicted    -0.1887744E-04 ( -36.83%)
   displ. norm   :     0.1707534 α      lambda       -0.5072661E-04
   maximum displ.:     0.0924679 α      in ANC's #5, #1, #2, ...

........................................................................
.............................. CYCLE   27 ..............................
........................................................................
   1    -83.9296274 -0.839296E+02  0.420E-03    2.13       0.0  T
   2    -83.9296281 -0.666149E-06  0.220E-03    2.13       6.9  T
   3    -83.9296283 -0.189285E-06  0.902E-04    2.13      16.9  T
   4    -83.9296283 -0.470273E-08  0.366E-04    2.13      41.7  T
   5    -83.9296283 -0.716270E-09  0.804E-05    2.13     189.7  T
   6    -83.9296283 -0.130825E-09  0.239E-05    2.13     638.6  T
     SCC iter.                  ...        0 min,  0.018 sec
     gradient                   ...        0 min,  0.044 sec
 * total energy  :   -83.1289840 Eh     change       -0.4043959E-04 Eh
   gradient norm :     0.0031336 Eh/α   predicted    -0.2610808E-04 ( -35.44%)
   displ. norm   :     0.2264627 α      lambda       -0.6093921E-04
   maximum displ.:     0.1205891 α      in ANC's #5, #1, #2, ...

........................................................................
.............................. CYCLE   28 ..............................
........................................................................
   1    -83.9291517 -0.839292E+02  0.509E-03    2.13       0.0  T
   2    -83.9291527 -0.103177E-05  0.234E-03    2.13       6.5  T
   3    -83.9291529 -0.247618E-06  0.829E-04    2.13      18.4  T
   4    -83.9291529 -0.658264E-08  0.393E-04    2.13      38.8  T
   5    -83.9291529 -0.627054E-09  0.111E-04    2.13     136.9  T
   6    -83.9291529 -0.207805E-09  0.249E-05    2.13     611.7  T
     SCC iter.                  ...        0 min,  0.015 sec
     gradient                   ...        0 min,  0.060 sec
 * total energy  :   -83.1290301 Eh     change       -0.4608076E-04 Eh
   gradient norm :     0.0037098 Eh/α   predicted    -0.3203325E-04 ( -30.48%)
   displ. norm   :     0.2284505 α      lambda       -0.5653671E-04
   maximum displ.:     0.1183072 α      in ANC's #5, #1, #2, ...

........................................................................
.............................. CYCLE   29 ..............................
........................................................................
   1    -83.9293058 -0.839293E+02  0.430E-03    2.13       0.0  T
   2    -83.9293065 -0.695870E-06  0.178E-03    2.13       8.6  T
   3    -83.9293066 -0.112726E-06  0.792E-04    2.13      19.3  T
   4    -83.9293066 -0.598351E-08  0.344E-04    2.13      44.3  T
   5    -83.9293066 -0.771323E-09  0.978E-05    2.13     155.9  T
   6    -83.9293066 -0.174239E-09  0.195E-05    2.13     781.3  T
     SCC iter.                  ...        0 min,  0.023 sec
     gradient                   ...        0 min,  0.083 sec
 * total energy  :   -83.1290731 Eh     change       -0.4308388E-04 Eh
   gradient norm :     0.0037896 Eh/α   predicted    -0.2974390E-04 ( -30.96%)
   displ. norm   :     0.2337143 α      lambda       -0.5569557E-04
   maximum displ.:     0.1176960 α      in ANC's #1, #5, #2, ...

........................................................................
.............................. CYCLE   30 ..............................
........................................................................
   1    -83.9299877 -0.839300E+02  0.337E-03    2.13       0.0  T
   2    -83.9299880 -0.313026E-06  0.141E-03    2.13      10.8  T
   3    -83.9299880 -0.160929E-07  0.763E-04    2.13      20.0  T
   4    -83.9299880 -0.207251E-08  0.266E-04    2.13      57.3  T
   5    -83.9299880 -0.126563E-08  0.627E-05    2.13     243.1  T
   6    -83.9299880 -0.704148E-10  0.186E-05    2.13     820.4  T
     SCC iter.                  ...        0 min,  0.021 sec
     gradient                   ...        0 min,  0.073 sec
 * total energy  :   -83.1291149 Eh     change       -0.4176530E-04 Eh
   gradient norm :     0.0031977 Eh/α   predicted    -0.2937404E-04 ( -29.67%)
   displ. norm   :     0.2329288 α      lambda       -0.4665062E-04
   maximum displ.:     0.1200885 α      in ANC's #1, #2, #5, ...

........................................................................
.............................. CYCLE   31 ..............................
........................................................................
   1    -83.9304673 -0.839305E+02  0.315E-03    2.13       0.0  T
   2    -83.9304676 -0.270225E-06  0.131E-03    2.13      11.7  T
   3    -83.9304676 -0.188258E-07  0.692E-04    2.13      22.0  T
   4    -83.9304676 -0.189127E-08  0.303E-04    2.13      50.3  T
   5    -83.9304676 -0.195291E-08  0.582E-05    2.13     262.1  T
   6    -83.9304676 -0.636646E-10  0.185E-05    2.13     825.3  T
     SCC iter.                  ...        0 min,  0.019 sec
     gradient                   ...        0 min,  0.084 sec
 * total energy  :   -83.1291503 Eh     change       -0.3539553E-04 Eh
   gradient norm :     0.0024635 Eh/α   predicted    -0.2459241E-04 ( -30.52%)
   displ. norm   :     0.2231506 α      lambda       -0.3702524E-04
   maximum displ.:     0.1188807 α      in ANC's #1, #2, #5, ...

........................................................................
.............................. CYCLE   32 ..............................
........................................................................
   1    -83.9311785 -0.839312E+02  0.409E-03    2.14       0.0  T
   2    -83.9311790 -0.536398E-06  0.160E-03    2.14       9.6  T
   3    -83.9311791 -0.759731E-07  0.623E-04    2.14      24.5  T
   4    -83.9311791 -0.195050E-08  0.293E-04    2.14      52.0  T
   5    -83.9311791 -0.115024E-08  0.900E-05    2.14     169.4  T
   6    -83.9311791 -0.191633E-09  0.179E-05    2.14     852.8  T
     SCC iter.                  ...        0 min,  0.021 sec
     gradient                   ...        0 min,  0.084 sec
 * total energy  :   -83.1291765 Eh     change       -0.2617248E-04 Eh
   gradient norm :     0.0017400 Eh/α   predicted    -0.1943973E-04 ( -25.72%)
   displ. norm   :     0.3141803 α      lambda       -0.2000958E-04
   maximum displ.:     0.1654176 α      in ANC's #1, #2, #5, ...

........................................................................
.............................. CYCLE   33 ..............................
........................................................................
   1    -83.9288247 -0.839288E+02  0.582E-03    2.14       0.0  T
   2    -83.9288252 -0.515461E-06  0.274E-03    2.14       5.6  T
   3    -83.9288252 -0.278028E-07  0.151E-03    2.14      10.1  T
   4    -83.9288252 -0.106016E-07  0.324E-04    2.14      47.1  T
   5    -83.9288252 -0.134015E-08  0.684E-05    2.14     223.0  T
   6    -83.9288252 -0.130356E-09  0.275E-05    2.14     554.9  T
     SCC iter.                  ...        0 min,  0.021 sec
     gradient                   ...        0 min,  0.084 sec
 * total energy  :   -83.1291795 Eh     change       -0.3017116E-05 Eh
   gradient norm :     0.0041610 Eh/α   predicted    -0.1044776E-04 ( 246.28%)
   displ. norm   :     0.0544836 α      lambda       -0.3544089E-04
   maximum displ.:     0.0258312 α      in ANC's #1, #2, #3, ...

........................................................................
.............................. CYCLE   34 ..............................
........................................................................
   1    -83.9316590 -0.839317E+02  0.644E-03    2.15       0.0  T
   2    -83.9316599 -0.875784E-06  0.274E-03    2.15       5.6  T
   3    -83.9316600 -0.120660E-06  0.151E-03    2.15      10.1  T
   4    -83.9316600 -0.462509E-08  0.198E-04    2.15      76.9  T
   5    -83.9316600 -0.577884E-09  0.635E-05    2.15     240.2  T
     SCC iter.                  ...        0 min,  0.013 sec
     gradient                   ...        0 min,  0.064 sec
 * total energy  :   -83.1291935 Eh     change       -0.1403841E-04 Eh
   gradient norm :     0.0024003 Eh/α   predicted    -0.1777336E-04 (  26.61%)
   displ. norm   :     0.0333148 α      lambda       -0.8883313E-05
   maximum displ.:     0.0151331 α      in ANC's #1, #2, #5, ...

........................................................................
.............................. CYCLE   35 ..............................
........................................................................
   1    -83.9313608 -0.839314E+02  0.227E-03    2.15       0.0  T
   2    -83.9313610 -0.177310E-06  0.934E-04    2.15      16.3  T
   3    -83.9313610 -0.300340E-07  0.338E-04    2.15      45.2  T
   4    -83.9313610 -0.515570E-09  0.167E-04    2.15      91.0  T
   5    -83.9313610 -0.342098E-09  0.537E-05    2.15     283.9  T
     SCC iter.                  ...        0 min,  0.014 sec
     gradient                   ...        0 min,  0.065 sec
 * total energy  :   -83.1292001 Eh     change       -0.6521276E-05 Eh
   gradient norm :     0.0012785 Eh/α   predicted    -0.4448164E-05 ( -31.79%)
   displ. norm   :     0.0449045 α      lambda       -0.8132286E-05
   maximum displ.:     0.0219133 α      in ANC's #3, #11, #9, ...

........................................................................
.............................. CYCLE   36 ..............................
........................................................................
   1    -83.9311933 -0.839312E+02  0.405E-03    2.15       0.0  T
   2    -83.9311939 -0.639838E-06  0.189E-03    2.14       8.1  T
   3    -83.9311941 -0.147563E-06  0.650E-04    2.14      23.5  T
   4    -83.9311941 -0.289464E-08  0.327E-04    2.14      46.7  T
   5    -83.9311941 -0.863793E-09  0.903E-05    2.15     168.9  T
   6    -83.9311941 -0.159559E-09  0.141E-05    2.15    1081.1  T
     SCC iter.                  ...        0 min,  0.018 sec
     gradient                   ...        0 min,  0.069 sec
 * total energy  :   -83.1292068 Eh     change       -0.6751279E-05 Eh
   gradient norm :     0.0007671 Eh/α   predicted    -0.4070284E-05 ( -39.71%)
   displ. norm   :     0.0681436 α      lambda       -0.3733176E-05
   maximum displ.:     0.0396431 α      in ANC's #1, #2, #3, ...

........................................................................
.............................. CYCLE   37 ..............................
........................................................................
   1    -83.9312741 -0.839313E+02  0.146E-03    2.15       0.0  T
   2    -83.9312742 -0.952034E-07  0.644E-04    2.15      23.7  T
   3    -83.9312742 -0.104377E-07  0.302E-04    2.15      50.4  T
   4    -83.9312742 -0.467907E-09  0.145E-04    2.15     105.3  T
   5    -83.9312742 -0.226109E-09  0.380E-05    2.15     401.2  T
     SCC iter.                  ...        0 min,  0.014 sec
     gradient                   ...        0 min,  0.083 sec
 * total energy  :   -83.1292116 Eh     change       -0.4825326E-05 Eh
   gradient norm :     0.0009083 Eh/α   predicted    -0.1872894E-05 ( -61.19%)
   displ. norm   :     0.1147823 α      lambda       -0.6999385E-05
   maximum displ.:     0.0659614 α      in ANC's #1, #3, #2, ...

   *** GEOMETRY OPTIMIZATION CONVERGED AFTER 37 ITERATIONS ***

------------------------------------------------------------------------
 total energy gain   :        -0.0247346 Eh      -15.5212 kcal/mol
 total RMSD          :         0.9188099 a0        0.4862 Å
 total power (kW/mol):        -1.7551533 (step)  -14.2640 (real)
------------------------------------------------------------------------

 ANCopt (total)                0 d,  0 h,  0 min,  4.553 sec
 optimizer setup                ...        0 min,  0.001 sec (  0.018%)
 model hessian                  ...        0 min,  0.042 sec (  0.916%)
 ANC generation                 ...        0 min,  0.004 sec (  0.095%)
 coordinate transformation      ...        0 min,  0.001 sec (  0.025%)
 single point calculation       ...        0 min,  4.488 sec ( 98.580%)
 optimization log               ...        0 min,  0.009 sec (  0.189%)
 hessian update                 ...        0 min,  0.001 sec (  0.021%)
 rational function              ...        0 min,  0.004 sec (  0.096%)

================
 final structure:
================
43
 xtb: 6.5.1 (579679a)
C            6.74104205876289        1.73862679734962       -0.80026960603351
C            5.80556528676829        0.69791174240265       -1.27743850432684
N            5.94924423431845       -0.10238774761712       -2.28848648232839
N            4.83550107695508       -0.88120495848127       -2.33557347000914
C            4.07655800708374       -0.50988653100044       -1.35190496634936
C            2.76138380230816       -1.06098413559362       -0.96404969173874
O            2.24944601127850       -1.99471809747715       -1.57121945972700
N            2.21093395846888       -0.41767253549991        0.08365311512737
C            1.00792605472078       -0.83066811449550        0.81666840895629
C            1.08640162698213       -2.32161790149236        1.17858969293908
C            0.94974072792276        0.01854000122089        2.08761626622490
C           -0.24061017426684       -0.58395742968759       -0.01368903624845
N           -1.22132139027315        0.07029796211311        0.51429537617505
C           -2.38916809196705        0.24983011785485       -0.19417112530330
C           -3.35075706172846        1.04659877887059        0.53424937557298
O           -3.23802642526210        1.68158517745798        1.52386374481925
O           -4.69314293943217        1.10939058724396       -0.15040595273167
C           -5.45925788517855        2.29064523251429        0.22683046824810
C           -5.47338901675639       -0.12315148501638       -0.10770170057343
C           -2.51120158341264       -0.24253212694890       -1.47252037051884
O           -3.58383542790265       -0.10452014096115       -2.23496338191752
C           -1.39266706227721       -0.98176035424934       -2.08122194006391
O           -1.46776294680644       -1.42939870493432       -3.21054651064692
N           -0.30620829103974       -1.11464579675593       -1.26655547170595
O            4.64002050509494        0.49173480511601       -0.64257853998840
H            7.66112112843339        1.70084029951951       -1.37904652823238
H            6.96073361981485        1.58179990257524        0.25519064325203
H            6.28431019316661        2.72288374882314       -0.90539916404548
H            2.73565692500587        0.34017021454966        0.49246357046147
H            1.98419068477771       -2.50230100320191        1.76724546962675
H            1.11497489119459       -2.94055786397232        0.28458750656031
H            0.21211581739157       -2.59306927998949        1.76762766962359
H            0.08138961628040       -0.26621290609203        2.67894418970327
H            1.85012744212971       -0.13897909896341        2.67802336412208
H            0.86586481975658        1.07352147033384        1.83217952001051
H           -4.81386936770274        3.14897511119315        0.05573393760358
H           -5.75112125086287        2.21846626573072        1.27425857331158
H           -6.32633589231426        2.31516838888381       -0.42750649168761
H           -6.16779067755933       -0.07752762812902       -0.94308870323902
H           -4.78226102803566       -0.95190028128366       -0.22817399142299
H           -5.99458866237817       -0.18412258139151        0.84718352572787
H           -3.41315301876125       -0.51461227744257       -3.10989135186846
H            0.51222270540379       -1.62859862294914       -1.62197197719417
 
 Bond Distances (Angstroems)
 ---------------------------
C1-C2=1.4785         C1-H26=1.0876        C1-H27=1.0894        C1-H28=1.0901        C2-C1=1.4785         C2-N3=1.2974         
C2-O25=1.3431        N3-C2=1.2974         N3-N4=1.3599         N4-N3=1.3599         N4-C5=1.2967         C5-N4=1.2967         
C5-C6=1.4778         C5-O25=1.3505        C6-C5=1.4778         C6-O7=1.2258         C6-N8=1.3470         O7-C6=1.2258         
N8-C6=1.3470         N8-C9=1.4680         N8-H29=1.0084        C9-N8=1.4680         C9-C10=1.5363        C9-C11=1.5297        
C9-C12=1.5196        C10-C9=1.5363        C10-H30=1.0887       C10-H31=1.0877       C10-H32=1.0886       C11-C9=1.5297        
C11-H33=1.0885       C11-H34=1.0882       C11-H35=1.0887       C12-C9=1.5196        C12-N13=1.2917       C12-N24=1.3622       
N13-C12=1.2917       N13-C14=1.3777       C14-N13=1.3777       C14-C15=1.4457       C14-C20=1.3753       C15-C14=1.4457       
C15-O16=1.1812       C15-O17=1.5082       O16-C15=1.1812       O17-C15=1.5082       O17-C18=1.4576       O17-C19=1.4594       
C18-O17=1.4576       C18-H36=1.0874       C18-H37=1.0897       C18-H38=1.0865       C19-O17=1.4594       C19-H39=1.0873       
C19-H40=1.0858       C19-H41=1.0896       C20-C14=1.3753       C20-O21=1.3232       C20-C22=1.4724       O21-C20=1.3232       
O21-H42=0.9812       C22-C20=1.4724       C22-O23=1.2171       C22-N24=1.3645       O23-C22=1.2171       N24-C12=1.3622       
N24-C22=1.3645       N24-H43=1.0297       O25-C2=1.3431        O25-C5=1.3505        H26-C1=1.0876        H27-C1=1.0894        
H28-C1=1.0901        H29-N8=1.0084        H30-C10=1.0887       H31-C10=1.0877       H32-C10=1.0886       H33-C11=1.0885       
H34-C11=1.0882       H35-C11=1.0887       H36-C18=1.0874       H37-C18=1.0897       H38-C18=1.0865       H39-C19=1.0873       
H40-C19=1.0858       H41-C19=1.0896       H42-O21=0.9812       H43-N24=1.0297       
 C  H  Rav=1.0883 sigma=0.0012  Rmin=1.0858  Rmax=1.0901    15
 C  C  Rav=1.4794 sigma=0.0492  Rmin=1.3753  Rmax=1.5363     8
 N  H  Rav=1.0190 sigma=0.0107  Rmin=1.0084  Rmax=1.0297     2
 N  C  Rav=1.3507 sigma=0.0548  Rmin=1.2917  Rmax=1.4680     8
 N  N  Rav=1.3599 sigma=0.0000  Rmin=1.3599  Rmax=1.3599     1
 O  H  Rav=0.9812 sigma=0.0000  Rmin=0.9812  Rmax=0.9812     1
 O  C  Rav=1.3407 sigma=0.1106  Rmin=1.1812  Rmax=1.5082     9
 
 selected bond angles (degree)
 --------------------
H26-C1-C2=109.82               H27-C1-C2=109.81               H27-C1-H26=109.87              H28-C1-C2=109.84               
H28-C1-H26=109.54              H28-C1-H27=107.93              N3-C2-C1=128.00                O25-C2-C1=120.30               
O25-C2-N3=111.70               N4-N3-C2=106.83                C5-N4-N3=106.80                C6-C5-N4=127.82                
O25-C5-N4=111.51               O25-C5-C6=120.67               O7-C6-C5=121.72                N8-C6-C5=112.94                
N8-C6-O7=125.34                C9-N8-C6=126.08                H29-N8-C6=117.49               H29-N8-C9=115.81               
C10-C9-N8=110.41               C11-C9-N8=106.85               C11-C9-C10=110.18              C12-C9-N8=110.78               
C12-C9-C10=109.16              C12-C9-C11=109.43              H30-C10-C9=109.30              H31-C10-C9=111.10              
H31-C10-H30=109.17             H32-C10-C9=109.18              H32-C10-H30=109.17             H32-C10-H31=108.90             
 
 selected dihedral angles (degree)
 ---------------------------------
N3-C2-C1-H26=354.98           N3-C2-C1-H27=234.06           N3-C2-C1-H28=115.51           O25-C2-C1-H26=175.05          
O25-C2-C1-H27= 54.12          O25-C2-C1-H28=295.58          N4-N3-C2-C1=179.97            N4-N3-C2-O25=359.91           
C5-N4-N3-C2=  0.08            C6-C5-N4-N3=180.83            O25-C5-N4-N3=359.96           O7-C6-C5-N4=  1.14            
O7-C6-C5-O25=182.08           N8-C6-C5-N4=182.16            N8-C6-C5-O25=  3.09           C9-N8-C6-C5=188.69            
C9-N8-C6-O7=  9.75            H29-N8-C6-C5=359.25           H29-N8-C6-O7=180.32           C10-C9-N8-C6= 48.03           
C10-C9-N8-H29=237.33          C11-C9-N8-C6=167.86           C11-C9-N8-H29=357.15          C12-C9-N8-C6=286.98           
C12-C9-N8-H29=116.27          H30-C10-C9-N8= 57.56          H30-C10-C9-C11=299.77         H30-C10-C9-C12=179.58         
H31-C10-C9-N8=297.03          H31-C10-C9-C11=179.24         H31-C10-C9-C12= 59.04         H32-C10-C9-N8=176.91          
H32-C10-C9-C11= 59.12         H32-C10-C9-C12=298.93         
           -------------------------------------------------
          |                Final Singlepoint                |
           -------------------------------------------------

          ...................................................
          :                      SETUP                      :
          :.................................................:
          :  # basis functions                 136          :
          :  # atomic orbitals                 136          :
          :  # shells                           86          :
          :  # electrons                       134          :
          :  # halogen bonds                     0          :
          :  max. iterations                   250          :
          :  Hamiltonian                  GFN1-xTB          :
          :  restarted?                      false          :
          :  GBSA solvation                   true          :
          :  PC potential                    false          :
          :  electronic temp.          300.0000000     K    :
          :  accuracy                    1.0000000          :
          :  -> integral cutoff          0.2500000E+02      :
          :  -> integral neglect         0.1000000E-07      :
          :  -> SCF convergence          0.1000000E-05 Eh   :
          :  -> wf. convergence          0.2000000E-04 e    :
          :  Broyden damping             0.4000000          :
          ...................................................

 iter      E             dE          RMSdq      gap      omega  full diag
   1    -83.9312742 -0.839313E+02  0.783E-06    2.15       0.0  T
   2    -83.9312742 -0.980549E-12  0.415E-06    2.15    3678.7  T
   3    -83.9312742 -0.284217E-12  0.210E-06    2.15    7257.9  T

   *** convergence criteria satisfied after 3 iterations ***

         #    Occupation            Energy/Eh            Energy/eV
      -------------------------------------------------------------
         1        2.0000           -0.9293611             -25.2892
       ...           ...                  ...                  ...
        61        2.0000           -0.4857321             -13.2174
        62        2.0000           -0.4800210             -13.0620
        63        2.0000           -0.4748468             -12.9212
        64        2.0000           -0.4694411             -12.7741
        65        2.0000           -0.4616515             -12.5622
        66        2.0000           -0.4583900             -12.4734
        67        2.0000           -0.4569856             -12.4352 (HOMO)
        68                         -0.3781461             -10.2899 (LUMO)
        69                         -0.3218171              -8.7571
        70                         -0.3116893              -8.4815
        71                         -0.2869872              -7.8093
        72                         -0.2616806              -7.1207
       ...                                ...                  ...
       136                          0.7492013              20.3868
      -------------------------------------------------------------
                  HL-Gap            0.0788395 Eh            2.1453 eV
             Fermi-level           -0.4175658 Eh          -11.3625 eV

 SCC (total)                   0 d,  0 h,  0 min,  0.134 sec
 SCC setup                      ...        0 min,  0.002 sec (  1.364%)
 Dispersion                     ...        0 min,  0.000 sec (  0.248%)
 classical contributions        ...        0 min,  0.000 sec (  0.085%)
 integral evaluation            ...        0 min,  0.035 sec ( 26.414%)
 iterations                     ...        0 min,  0.011 sec (  8.276%)
 molecular gradient             ...        0 min,  0.084 sec ( 62.975%)
 printout                       ...        0 min,  0.001 sec (  0.609%)

         :::::::::::::::::::::::::::::::::::::::::::::::::::::
         ::                     SUMMARY                     ::
         :::::::::::::::::::::::::::::::::::::::::::::::::::::
         :: total energy             -83.129211631198 Eh    ::
         :: total w/o Gsasa/hb       -83.103085841090 Eh    ::
         :: gradient norm              0.000908425156 Eh/a0 ::
         :: HOMO-LUMO gap              2.145332558491 eV    ::
         ::.................................................::
         :: SCC energy               -83.931274206433 Eh    ::
         :: -> electrostatic           0.404815522508 Eh    ::
         :: -> Gsolv                  -0.113697918724 Eh    ::
         ::    -> Gelec               -0.087572128616 Eh    ::
         ::    -> Gsasa               -0.024950398579 Eh    ::
         ::    -> Ghb                 -0.008799670534 Eh    ::
         ::    -> Gshift               0.007624279005 Eh    ::
         :: repulsion energy           0.828520412817 Eh    ::
         :: dispersion energy         -0.026457837582 Eh    ::
         :: halogen bond corr.         0.000000000000 Eh    ::
         :: add. restraining           0.000000000000 Eh    ::
         :: total charge               1.000000000000 e     ::
         :::::::::::::::::::::::::::::::::::::::::::::::::::::

           -------------------------------------------------
          |                Property Printout                |
           -------------------------------------------------

    * Orbital Energies and Occupations

         #    Occupation            Energy/Eh            Energy/eV
      -------------------------------------------------------------
         1        2.0000           -0.9293611             -25.2892
       ...           ...                  ...                  ...
        55        2.0000           -0.5277963             -14.3621
        56        2.0000           -0.5221702             -14.2090
        57        2.0000           -0.5157726             -14.0349
        58        2.0000           -0.5113458             -13.9144
        59        2.0000           -0.5105548             -13.8929
        60        2.0000           -0.4932143             -13.4210
        61        2.0000           -0.4857321             -13.2174
        62        2.0000           -0.4800210             -13.0620
        63        2.0000           -0.4748468             -12.9212
        64        2.0000           -0.4694411             -12.7741
        65        2.0000           -0.4616515             -12.5622
        66        2.0000           -0.4583900             -12.4734
        67        2.0000           -0.4569856             -12.4352 (HOMO)
        68                         -0.3781461             -10.2899 (LUMO)
        69                         -0.3218171              -8.7571
        70                         -0.3116893              -8.4815
        71                         -0.2869872              -7.8093
        72                         -0.2616806              -7.1207
        73                         -0.2088609              -5.6834
        74                         -0.1955653              -5.3216
        75                         -0.1808865              -4.9222
        76                         -0.1723050              -4.6887
        77                         -0.1441348              -3.9221
        78                         -0.1361804              -3.7057
       ...                                ...                  ...
       136                          0.7492013              20.3868
      -------------------------------------------------------------
                  HL-Gap            0.0788395 Eh            2.1453 eV
             Fermi-level           -0.4175658 Eh          -11.3625 eV

  Mulliken/CM5 charges         n(s)   n(p)   n(d)
     1C    -0.11226 -0.24964   1.013  3.100  0.000
     2C     0.39446  0.50295   1.009  2.596  0.000
     3N    -0.26216 -0.36972   1.562  3.700  0.000
     4N    -0.21159 -0.31560   1.565  3.647  0.000
     5C     0.33310  0.45894   1.002  2.665  0.000
     6C     0.46963  0.57790   0.978  2.552  0.000
     7O    -0.57752 -0.63923   1.723  4.854  0.000
     8N    -0.34344 -0.69692   1.435  3.909  0.000
     9C     0.15083  0.19030   1.065  2.784  0.000
    10C    -0.11065 -0.25047   1.023  3.087  0.000
    11C    -0.10890 -0.24810   1.022  3.087  0.000
    12C     0.29426  0.44624   1.024  2.681  0.000
    13N    -0.36516 -0.55061   1.523  3.842  0.000
    14C     0.07946  0.15424   1.024  2.896  0.000
    15C     0.57134  0.63080   1.018  2.410  0.000
    16O    -0.43798 -0.48650   1.712  4.726  0.000
    17O    -0.27611 -0.40039   1.682  4.594  0.000
    18C     0.14365  0.01836   1.009  2.847  0.000
    19C     0.14270  0.01689   1.011  2.846  0.000
    20C     0.25663  0.29051   1.037  2.706  0.000
    21O    -0.48908 -0.68571   1.699  4.791  0.000
    22C     0.45828  0.56209   0.977  2.564  0.000
    23O    -0.55295 -0.59991   1.723  4.830  0.000
    24N    -0.27806 -0.61748   1.443  3.835  0.000
    25O    -0.35679 -0.41423   1.696  4.661  0.000
    26H     0.07237  0.12806   0.928  0.000  0.000
    27H     0.08218  0.13691   0.918  0.000  0.000
    28H     0.08243  0.13683   0.918  0.000  0.000
    29H     0.27515  0.48090   0.725  0.000  0.000
    30H     0.06329  0.11934   0.937  0.000  0.000
    31H     0.06513  0.12814   0.935  0.000  0.000
    32H     0.05421  0.10907   0.946  0.000  0.000
    33H     0.05713  0.11506   0.943  0.000  0.000
    34H     0.06085  0.11682   0.939  0.000  0.000
    35H     0.05636  0.11511   0.944  0.000  0.000
    36H     0.09931  0.16287   0.901  0.000  0.000
    37H     0.08935  0.15194   0.911  0.000  0.000
    38H     0.09610  0.15716   0.904  0.000  0.000
    39H     0.10218  0.16407   0.898  0.000  0.000
    40H     0.09055  0.15738   0.909  0.000  0.000
    41H     0.08957  0.14988   0.910  0.000  0.000
    42H     0.43733  0.61453   0.563  0.000  0.000
    43H     0.31483  0.53122   0.685  0.000  0.000

Wiberg/Mayer (AO) data.
largest (>0.10) Wiberg bond orders for each atom

 ---------------------------------------------------------------------------
     #   Z sym  total        # sym  WBO       # sym  WBO       # sym  WBO
 ---------------------------------------------------------------------------
     1   6 C    3.985 --     2 C    1.033    26 H    0.982    27 H    0.964
                            28 H    0.960
     2   6 C    3.866 --     3 N    1.604    25 O    1.073     1 C    1.033
     3   7 N    2.983 --     2 C    1.604     4 N    1.206
     4   7 N    3.003 --     5 C    1.615     3 N    1.206
     5   6 C    3.876 --     4 N    1.615    25 O    1.046     6 C    1.005
     6   6 C    3.913 --     7 O    1.548     8 N    1.269     5 C    1.005
     7   8 O    1.924 --     6 C    1.548     8 N    0.170
     8   7 N    3.349 --     6 C    1.269     9 C    0.922    29 H    0.888
                             7 O    0.170
     9   6 C    3.933 --    11 C    1.000    10 C    0.975    12 C    0.973
                             8 N    0.922
    10   6 C    3.984 --    32 H    0.984    30 H    0.982    31 H    0.979
                             9 C    0.975
    11   6 C    3.988 --     9 C    1.000    34 H    0.984    35 H    0.983
                            33 H    0.982
    12   6 C    3.924 --    13 N    1.587    24 N    1.185     9 C    0.973
    13   7 N    3.020 --    12 C    1.587    14 C    1.153
    14   6 C    3.959 --    20 C    1.443    13 N    1.153    15 C    1.101
    15   6 C    3.800 --    16 O    1.823    14 C    1.101    17 O    0.736
    16   8 O    2.086 --    15 C    1.823
    17   8 O    2.481 --    18 C    0.816    19 C    0.809    15 C    0.736
    18   6 C    3.787 --    37 H    0.979    38 H    0.977    36 H    0.976
                            17 O    0.816
    19   6 C    3.785 --    41 H    0.980    39 H    0.976    40 H    0.976
                            17 O    0.809
    20   6 C    3.910 --    14 C    1.443    21 O    1.152    22 C    1.030
    21   8 O    2.129 --    20 C    1.152    42 H    0.779
    22   6 C    3.918 --    23 O    1.599    24 N    1.167    20 C    1.030
    23   8 O    1.926 --    22 C    1.599    24 N    0.143
    24   7 N    3.485 --    12 C    1.185    22 C    1.167    43 H    0.815
                            23 O    0.143
    25   8 O    2.317 --     2 C    1.073     5 C    1.046
    26   1 H    0.998 --     1 C    0.982
    27   1 H    0.996 --     1 C    0.964
    28   1 H    0.996 --     1 C    0.960
    29   1 H    0.932 --     8 N    0.888
    30   1 H    0.997 --    10 C    0.982
    31   1 H    1.006 --    10 C    0.979
    32   1 H    0.999 --    10 C    0.984
    33   1 H    1.006 --    11 C    0.982
    34   1 H    0.997 --    11 C    0.984
    35   1 H    1.001 --    11 C    0.983
    36   1 H    0.995 --    18 C    0.976
    37   1 H    0.996 --    18 C    0.979
    38   1 H    0.994 --    18 C    0.977
    39   1 H    0.997 --    19 C    0.976
    40   1 H    1.000 --    19 C    0.976
    41   1 H    0.992 --    19 C    0.980
    42   1 H    0.822 --    21 O    0.779
    43   1 H    0.914 --    24 N    0.815
 ---------------------------------------------------------------------------

Topologies differ in total number of bonds
Writing topology from bond orders to xtbtopo.mol

 dipole moment from electron density (au)
     X       Y       Z   
  -5.9812   2.6096   1.7161  total (Debye):   17.151

           -------------------------------------------------
          |                Geometry Summary                 |
           -------------------------------------------------

      molecular mass/u    :      352.3231817
   center of mass at/Å    :        0.2141670      -0.1198187      -0.5971987
  moments of inertia/u·Å² :        0.1052474E+04   0.5187220E+04   0.5507739E+04
rotational constants/cm⁻¹ :        0.1601715E-01   0.3249839E-02   0.3060718E-02

 * 38 selected distances

     #   Z          #   Z                                           value/Å
     1   6 C        2   6 C                                       1.4784773
     2   6 C        3   7 N                                       1.2974364
     4   7 N        5   6 C                                       1.2967174
     6   6 C        7   8 O                                       1.2258037
     6   6 C        8   7 N                                       1.3470436
     8   7 N        9   6 C                                       1.4680277
     9   6 C       10   6 C                                       1.5362543 (max)
     9   6 C       11   6 C                                       1.5296564
    12   6 C       13   7 N                                       1.2917478
    15   6 C       16   8 O                                       1.1812082
    15   6 C       17   8 O                                       1.5082095
    17   8 O       18   6 C                                       1.4576016
    17   8 O       19   6 C                                       1.4593725
    14   6 C       20   6 C                                       1.3753145
    20   6 C       21   8 O                                       1.3232197
    22   6 C       23   8 O                                       1.2171252
    12   6 C       24   7 N                                       1.3622070
    22   6 C       24   7 N                                       1.3644534
     2   6 C       25   8 O                                       1.3431497
     5   6 C       25   8 O                                       1.3505109
     1   6 C       26   1 H                                       1.0876379
     1   6 C       27   1 H                                       1.0894290
     1   6 C       28   1 H                                       1.0901459
     8   7 N       29   1 H                                       1.0083581
    10   6 C       30   1 H                                       1.0886631
    10   6 C       31   1 H                                       1.0877239
    10   6 C       32   1 H                                       1.0885897
    11   6 C       33   1 H                                       1.0884791
    11   6 C       34   1 H                                       1.0881587
    11   6 C       35   1 H                                       1.0887007
    18   6 C       36   1 H                                       1.0874423
    18   6 C       37   1 H                                       1.0897247
    18   6 C       38   1 H                                       1.0865462
    19   6 C       39   1 H                                       1.0872658
    19   6 C       40   1 H                                       1.0858159
    19   6 C       41   1 H                                       1.0895745
    21   8 O       42   1 H                                       0.9812274 (min)
    24   7 N       43   1 H                                       1.0297077

 * 6 distinct bonds (by element types)

   Z      Z             #   av. dist./Å        max./Å        min./Å
   1 H    6 C          15     1.0882598     1.0901459     1.0858159
   6 C    6 C           4     1.4799256     1.5362543     1.3753145
   1 H    7 N           2     1.0190329     1.0297077     1.0083581
   6 C    7 N           7     1.3468047     1.4680277     1.2917478
   1 H    8 O           1     0.9812274     0.9812274     0.9812274
   6 C    8 O           9     1.3406890     1.5082095     1.1812082


optimized geometry written to: xtbopt.xyz


           -------------------------------------------------
          | TOTAL ENERGY              -83.129211631198 Eh   |
          | GRADIENT NORM               0.000908425156 Eh/α |
          | HOMO-LUMO GAP               2.145332558491 eV   |
           -------------------------------------------------

------------------------------------------------------------------------
 * finished run on 2023/06/20 at 15:43:16.721     
------------------------------------------------------------------------
 total:
 * wall-time:     0 d,  0 h,  0 min,  4.991 sec
 *  cpu-time:     0 d,  0 h,  0 min,  4.857 sec
 * ratio c/w:     0.973 speedup
 SCF:
 * wall-time:     0 d,  0 h,  0 min,  0.164 sec
 *  cpu-time:     0 d,  0 h,  0 min,  0.163 sec
 * ratio c/w:     0.997 speedup
 ANC optimizer:
 * wall-time:     0 d,  0 h,  0 min,  4.693 sec
 *  cpu-time:     0 d,  0 h,  0 min,  4.643 sec
 * ratio c/w:     0.989 speedup

