42
 energy: -83.616968832261 gnorm: 0.000556962409 xtb: 6.5.1 (579679a)
C            6.75362488285004       -0.08119983876714        1.94067621442862
O            5.75121404528664        0.63480439732374        1.23814535046498
C            4.57030860433669       -0.02180468549725        1.06549217491149
O            4.42606785691507       -1.15612271705890        1.51272266670518
C            3.55941546779218        0.72026068262175        0.33394854977173
N            2.38121986204321        0.00604266256037        0.17780144204041
C            1.38857255978223        0.51961368514563       -0.44972791386744
C            0.10285605653691       -0.24811629036515       -0.68170144522916
C           -0.08582085207457       -1.29925292247333        0.42304337486107
C            0.19883451084432       -0.92987639679622       -2.05489962437208
N           -0.99463374694629        0.74093186369731       -0.70398573146750
C           -2.32127972785703        0.17376649487549       -0.84083678007460
O           -2.87067741211429        0.30136414601488       -2.14844314429877
C           -3.51522231536420       -0.85873062379882       -2.63003662635575
C           -3.10172119255266        0.12542001214328        0.28552088577900
N           -2.63500278947434        0.20969860728947        1.55635765955043
N           -3.72294075945867       -0.02597471642319        2.37533637799157
C           -4.74434658349578       -0.24127945130456        1.62767450278906
C           -6.13533191650514       -0.54561961711122        2.05965699221704
O           -4.45670991802577       -0.16980778634408        0.28201720297331
N            1.45263316542443        1.78410366718714       -0.99682682622977
C            2.54328488322895        2.59996785816373       -0.91583597324340
O            2.51448842632867        3.72200724799454       -1.42681671501944
C            3.73545311333121        2.03121443880486       -0.17935105486244
O            4.76267134543950        2.73402304133045       -0.07679109137329
H            7.01231829180964       -1.00603990754158        1.41474265851030
H            7.62942574130044        0.56398978729534        1.99852952671635
H            6.41637050445870       -0.33579596003263        2.95093050730685
H           -0.28934433581773       -0.80909917599959        1.37641899824184
H            0.81667001232446       -1.90364969154435        0.51626002807459
H           -0.92611803865549       -1.94771807282272        0.17841276230383
H           -0.69655914888463       -1.52087763948872       -2.24225803544301
H            0.29336129948769       -0.17779203868824       -2.83794054094299
H            1.06592127893663       -1.58906688745310       -2.08816103612570
H           -0.97027611531898        1.22874175036510        0.19649117669185
H           -3.71352054965941       -0.71018712951515       -3.69488135256311
H           -4.46974593372885       -1.03315779521808       -2.11367748472324
H           -2.88897966091948       -1.75418270982420       -2.50609877551056
H           -6.18974935088929       -0.51038939247286        3.14600600441187
H           -6.43962328303870       -1.53779312306461        1.72184315216817
H           -6.83701818867364        0.17915019923457        1.64414394031661
H            0.62990791097048        2.13843102753518       -1.46813299749481
