20
 energy: -38.338442675531 gnorm: 0.000600667341 xtb: 6.5.1 (579679a)
C           -2.28859684194723       -1.30460435145043        0.32600523349822
O           -2.32846377511577       -0.45037503283651       -0.78423254448255
C           -1.31833317787993        0.67237807598895       -0.86398243863300
C           -1.48394431775148        1.54090216799747        0.42656297360533
O           -1.42000502124514        1.31809695626256       -1.97013041357531
C            0.08134111946260       -0.05543401549733       -0.75126657340011
N            0.54706233580041       -0.99814049862013       -1.51123762930017
N            1.87379824412508       -1.17465133156481       -1.17124008647961
C            2.12441660847858       -0.32189312435484       -0.23636671672603
C            3.40898259032432       -0.10713413187081        0.47288758057530
O            1.04345904189760        0.41919781821119        0.07759207646920
H           -2.75877559931421       -0.85918191279959        1.21559510086579
H           -1.26013135824086       -1.59541380599904        0.59196542441995
H           -2.84313448864377       -2.21442203485510        0.07034138802853
H           -0.81592819772624        2.39572775272304        0.34079243298167
H           -2.51110399214561        1.89655580282770        0.47604528385234
H           -1.24157877418331        0.98941615640005        1.33155443104553
H            3.78294964167560        0.89882037469923        0.28211828842037
H            4.14099868431762       -0.83414958208749        0.12935066978037
H            3.26698827811181       -0.21569528317395        1.54764451905399
