      -----------------------------------------------------------      
     |                   =====================                   |     
     |                           x T B                           |     
     |                   =====================                   |     
     |                         S. Grimme                         |     
     |          Mulliken Center for Theoretical Chemistry        |     
     |                    University of Bonn                     |     
      -----------------------------------------------------------      

   * xtb version 6.5.1 (579679a) compiled by 'ehlert@majestix' on 2022-07-11

   xtb is free software: you can redistribute it and/or modify it under
   the terms of the GNU Lesser General Public License as published by
   the Free Software Foundation, either version 3 of the License, or
   (at your option) any later version.
   
   xtb is distributed in the hope that it will be useful,
   but WITHOUT ANY WARRANTY; without even the implied warranty of
   MERCHANTABILITY or FITNESS FOR A PARTICULAR PURPOSE.  See the
   GNU Lesser General Public License for more details.
   
   Cite this work as:
   * C. Bannwarth, E. Caldeweyher, S. Ehlert, A. Hansen, P. Pracht,
     J. Seibert, S. Spicher, S. Grimme, WIREs Comput. Mol. Sci., 2020, 11,
     e01493. DOI: 10.1002/wcms.1493
   
   for GFN2-xTB:
   * C. Bannwarth, S. Ehlert and S. Grimme., J. Chem. Theory Comput., 2019,
     15, 1652-1671. DOI: 10.1021/acs.jctc.8b01176
   for GFN1-xTB:
   * S. Grimme, C. Bannwarth, P. Shushkov, J. Chem. Theory Comput., 2017,
     13, 1989-2009. DOI: 10.1021/acs.jctc.7b00118
   for GFN0-xTB:
   * P. Pracht, E. Caldeweyher, S. Ehlert, S. Grimme, ChemRxiv, 2019, preprint.
     DOI: 10.26434/chemrxiv.8326202.v1
   for GFN-FF:
   * S. Spicher and S. Grimme, Angew. Chem. Int. Ed., 2020, 59, 15665-15673.
     DOI: 10.1002/anie.202004239
   
   for ALPB and GBSA implicit solvation:
   * S. Ehlert, M. Stahn, S. Spicher, S. Grimme, J. Chem. Theory Comput.,
     2021, 17, 4250-4261. DOI: 10.1021/acs.jctc.1c00471
   
   for DFT-D4:
   * E. Caldeweyher, C. Bannwarth and S. Grimme, J. Chem. Phys., 2017,
     147, 034112. DOI: 10.1063/1.4993215
   * E. Caldeweyher, S. Ehlert, A. Hansen, H. Neugebauer, S. Spicher,
     C. Bannwarth and S. Grimme, J. Chem. Phys., 2019, 150, 154122.
     DOI: 10.1063/1.5090222
   * E. Caldeweyher, J.-M. Mewes, S. Ehlert and S. Grimme, Phys. Chem. Chem. Phys.
     2020, 22, 8499-8512. DOI: 10.1039/D0CP00502A
   
   for sTDA-xTB:
   * S. Grimme and C. Bannwarth, J. Chem. Phys., 2016, 145, 054103.
     DOI: 10.1063/1.4959605
   
   in the mass-spec context:
   * V. Asgeirsson, C. Bauer and S. Grimme, Chem. Sci., 2017, 8, 4879.
     DOI: 10.1039/c7sc00601b
   * J. Koopman and S. Grimme, ACS Omega 2019, 4, 12, 15120-15133.
     DOI: 10.1021/acsomega.9b02011
   
   for metadynamics refer to:
   * S. Grimme, J. Chem. Theory Comput., 2019, 155, 2847-2862
     DOI: 10.1021/acs.jctc.9b00143
   
   for SPH calculations refer to:
   * S. Spicher and S. Grimme, J. Chem. Theory Comput., 2021, 17, 1701-1714
     DOI: 10.1021/acs.jctc.0c01306
   
   with help from (in alphabetical order)
   P. Atkinson, C. Bannwarth, F. Bohle, G. Brandenburg, E. Caldeweyher
   M. Checinski, S. Dohm, S. Ehlert, S. Ehrlich, I. Gerasimov, C. Hölzer
   A. Katbashev, J. Koopman, C. Lavigne, S. Lehtola, F. März, M. Müller,
   F. Musil, H. Neugebauer, J. Pisarek, C. Plett, P. Pracht, F. Pultar,
   J. Seibert, P. Shushkov, S. Spicher, M. Stahn, M. Steiner, T. Strunk,
   J. Stückrath, T. Rose, and J. Unsleber
   
 * started run on 2023/06/20 at 15:40:47.788     

           -------------------------------------------------
          |                Calculation Setup                |
           -------------------------------------------------

          program call               : /lustre/hpc/kemi/ree/PhD/git/ReactivityQM/dep/xtb-6.5.1/bin/xtb --gfn 1 /lustre/hpc/kemi/ree/PhD/git/ReactivityQM/calculations/R03/reac02prodN06/conf18/R03_reac02prodN06_conf18_gfn1.xyz --opt --vfukui --chrg 1 --uhf 0 --alpb DMSO
          hostname                   : node068
          coordinate file            : /lustre/hpc/kemi/ree/PhD/git/ReactivityQM/calculations/R03/reac02prodN06/conf18/R03_reac02prodN06_conf18_gfn1.xyz
          omp threads                :                     1

   ID    Z sym.   atoms
    1    6 C      1, 3, 5, 7-10, 12, 14, 16, 17, 20, 22, 23, 25
    2    8 O      2, 4, 13, 15, 24, 26
    3    7 N      6, 11, 18, 19, 21
    4    1 H      27-46

           -------------------------------------------------
          |                 G F N 1 - x T B                 |
           -------------------------------------------------

        Reference                      10.1021/acs.jctc.7b00118
      * Hamiltonian:
        H0-scaling (s, p, d)           1.850000    2.250000    2.000000
        zeta-weighting                 0.000000
      * Dispersion:
        s8                             2.400000
        a1                             0.630000
        a2                             5.000000
        s9                             0.000000
      * Repulsion:
        kExp                           1.500000
        rExp                           1.000000
      * Coulomb:
        alpha                          2.000000
        third order                    atomic
        anisotropic                    false
      * Halogen bond correction:
        rad-scale                      1.300000
        damping                        0.440000

      * Solvation model:               ALPB
        Solvent                        DMSO
        Parameter file                 internal GFN1-xTB/ALPB
        Dielectric constant                4.6680E+01
        Reference state                gsolv [1 M gas/solution]
        Free energy shift                  7.6243E-03 Eh       4.7843E+00 kcal/mol
        Temperature                        2.9815E+02 K
        Density                            1.1000E+00 kg/L
        Solvent mass                       7.8130E+01 g/mol
        Interaction kernel             P16
        Born radius scaling (c1)           1.7672E+00
        Born radii integrator          GBOBC
        Born offset                        0.0000E+00 a0       0.0000E+00 AA
        H-bond correction              true
        Ion screening                  false
        Surface tension                    1.0000E-05 Eh       1.5569E+01 dyn/cm
        Grid points                               230 per atom

          ...................................................
          :                      SETUP                      :
          :.................................................:
          :  # basis functions                 144          :
          :  # atomic orbitals                 144          :
          :  # shells                           92          :
          :  # electrons                       140          :
          :  # halogen bonds                     0          :
          :  max. iterations                   250          :
          :  Hamiltonian                  GFN1-xTB          :
          :  restarted?                      false          :
          :  GBSA solvation                   true          :
          :  PC potential                    false          :
          :  electronic temp.          300.0000000     K    :
          :  accuracy                    1.0000000          :
          :  -> integral cutoff          0.2500000E+02      :
          :  -> integral neglect         0.1000000E-07      :
          :  -> SCF convergence          0.1000000E-05 Eh   :
          :  -> wf. convergence          0.2000000E-04 e    :
          :  Broyden damping             0.4000000          :
          ...................................................

 iter      E             dE          RMSdq      gap      omega  full diag
   1    -86.7888249 -0.867888E+02  0.832E+00    2.72       0.0  T
   2    -87.1258069 -0.336982E+00  0.496E+00    1.60       1.0  T
   3    -87.1070554  0.187515E-01  0.155E+00    0.95       1.0  T
   4    -87.1395057 -0.324503E-01  0.295E-01    0.69       1.0  T
   5    -87.1438159 -0.431012E-02  0.743E-02    0.79       1.0  T
   6    -87.1439704 -0.154542E-03  0.226E-02    0.84       1.0  T
   7    -87.1439820 -0.116203E-04  0.526E-03    0.85       2.8  T
   8    -87.1439828 -0.780225E-06  0.176E-03    0.85       8.4  T
   9    -87.1439829 -0.834729E-07  0.777E-04    0.85      19.0  T
  10    -87.1439829 -0.560020E-08  0.214E-04    0.85      68.9  T
  11    -87.1439829 -0.825494E-09  0.654E-05    0.85     225.5  T
  12    -87.1439829 -0.778897E-10  0.235E-05    0.85     627.2  T

   *** convergence criteria satisfied after 12 iterations ***

         #    Occupation            Energy/Eh            Energy/eV
      -------------------------------------------------------------
         1        2.0000           -0.9315933             -25.3499
       ...           ...                  ...                  ...
        64        2.0000           -0.4964169             -13.5082
        65        2.0000           -0.4917634             -13.3816
        66        2.0000           -0.4837172             -13.1626
        67        2.0000           -0.4793599             -13.0440
        68        2.0000           -0.4666804             -12.6990
        69        2.0000           -0.4546281             -12.3711
        70        2.0000           -0.4370186             -11.8919 (HOMO)
        71        0.0000           -0.4056467             -11.0382 (LUMO)
        72                         -0.3373551              -9.1799
        73                         -0.3334918              -9.0748
        74                         -0.2974541              -8.0941
        75                         -0.2676200              -7.2823
       ...                                ...                  ...
       144                          0.6982688              19.0009
      -------------------------------------------------------------
                  HL-Gap            0.0313718 Eh            0.8537 eV
             Fermi-level           -0.4213327 Eh          -11.4650 eV

 SCC (total)                   0 d,  0 h,  0 min,  0.195 sec
 SCC setup                      ...        0 min,  0.002 sec (  1.146%)
 Dispersion                     ...        0 min,  0.000 sec (  0.195%)
 classical contributions        ...        0 min,  0.000 sec (  0.061%)
 integral evaluation            ...        0 min,  0.045 sec ( 22.930%)
 iterations                     ...        0 min,  0.078 sec ( 39.789%)
 molecular gradient             ...        0 min,  0.068 sec ( 35.079%)
 printout                       ...        0 min,  0.002 sec (  0.787%)

         :::::::::::::::::::::::::::::::::::::::::::::::::::::
         ::                     SUMMARY                     ::
         :::::::::::::::::::::::::::::::::::::::::::::::::::::
         :: total energy             -86.336489415582 Eh    ::
         :: total w/o Gsasa/hb       -86.311022718441 Eh    ::
         :: gradient norm              0.169709161002 Eh/a0 ::
         :: HOMO-LUMO gap              0.853671061371 eV    ::
         ::.................................................::
         :: SCC energy               -87.143982896846 Eh    ::
         :: -> electrostatic           0.430223787881 Eh    ::
         :: -> Gsolv                  -0.117545779077 Eh    ::
         ::    -> Gelec               -0.092079081935 Eh    ::
         ::    -> Gsasa               -0.025569836170 Eh    ::
         ::    -> Ghb                 -0.007521139977 Eh    ::
         ::    -> Gshift               0.007624279005 Eh    ::
         :: repulsion energy           0.836203105055 Eh    ::
         :: dispersion energy         -0.028709623791 Eh    ::
         :: halogen bond corr.         0.000000000000 Eh    ::
         :: add. restraining           0.000000000000 Eh    ::
         :: total charge               1.000000000000 e     ::
         :::::::::::::::::::::::::::::::::::::::::::::::::::::

      ----------------------------------------------------------- 
     |                   =====================                   |
     |                        A N C O P T                        |
     |                   =====================                   |
     |               Approximate Normal Coordinate               |
     |                Rational Function Optimizer                |
      ----------------------------------------------------------- 

          ...................................................
          :                      SETUP                      :
          :.................................................:
          :   optimization level            normal          :
          :   max. optcycles                   200          :
          :   ANC micro-cycles                  20          :
          :   degrees of freedom               132          :
          :.................................................:
          :   RF solver                   davidson          :
          :   write xtbopt.log                true          :
          :   linear?                        false          :
          :   energy convergence         0.5000000E-05 Eh   :
          :   grad. convergence          0.1000000E-02 Eh/α :
          :   maximium RF displ.         1.0000000          :
          :   Hlow (freq-cutoff)         0.1000000E-01      :
          :   Hmax (freq-cutoff)         5.0000000          :
          :   S6 in model hess.         20.0000000          :
          ...................................................

generating ANC from model Hessian ...
Using Lindh-Hessian (1995)
 Shifting diagonal of input Hessian by   9.808835306773683E-003
 Lowest  eigenvalues of input Hessian
    0.000000    0.000000    0.000000    0.000000    0.000000    0.000000
    0.010000    0.010211    0.010274    0.010682    0.011716    0.012221
    0.012934    0.014178    0.014493    0.015562    0.016017    0.016361
 Highest eigenvalues
    1.992702    2.096959    2.158852    2.293216    2.336656    2.382381
 

........................................................................
.............................. CYCLE    1 ..............................
........................................................................
   1    -87.1439829 -0.871440E+02  0.725E-06    0.85       0.0  T
   2    -87.1439829 -0.639488E-12  0.357E-06    0.85    4126.2  T
   3    -87.1439829  0.241585E-12  0.234E-06    0.85    6309.9  T
     SCC iter.                  ...        0 min,  0.020 sec
     gradient                   ...        0 min,  0.068 sec
 * total energy  :   -86.3364894 Eh     change       -0.5030643E-11 Eh
   gradient norm :     0.1697090 Eh/α   predicted     0.0000000E+00 (-100.00%)
   displ. norm   :     0.3048391 α      lambda       -0.2511088E-01
   maximum displ.:     0.1193229 α      in ANC's #24, #7, #33, ...

........................................................................
.............................. CYCLE    2 ..............................
........................................................................
   1    -87.1789278 -0.871789E+02  0.106E-01    1.19       0.0  T
   2    -87.1793144 -0.386599E-03  0.436E-02    1.15       1.0  T
   3    -87.1793633 -0.488807E-04  0.232E-02    1.16       1.0  T
   4    -87.1793659 -0.266934E-05  0.942E-03    1.15       1.6  T
   5    -87.1793662 -0.281039E-06  0.139E-03    1.15      10.6  T
   6    -87.1793663 -0.813541E-07  0.302E-04    1.15      48.9  T
   7    -87.1793663 -0.169550E-08  0.115E-04    1.15     128.0  T
   8    -87.1793663 -0.180293E-09  0.427E-05    1.15     345.0  T
     SCC iter.                  ...        0 min,  0.052 sec
     gradient                   ...        0 min,  0.065 sec
 * total energy  :   -86.3550504 Eh     change       -0.1856096E-01 Eh
   gradient norm :     0.0875750 Eh/α   predicted    -0.1373932E-01 ( -25.98%)
   displ. norm   :     0.3295629 α      lambda       -0.1203660E-01
   maximum displ.:     0.1456163 α      in ANC's #7, #24, #33, ...

........................................................................
.............................. CYCLE    3 ..............................
........................................................................
   1    -87.2030421 -0.872030E+02  0.867E-02    1.50       0.0  T
   2    -87.2033503 -0.308228E-03  0.360E-02    1.47       1.0  T
   3    -87.2033834 -0.331393E-04  0.185E-02    1.48       1.0  T
   4    -87.2033844 -0.982016E-06  0.748E-03    1.48       2.0  T
   5    -87.2033846 -0.180687E-06  0.122E-03    1.48      12.1  T
   6    -87.2033846 -0.635787E-07  0.293E-04    1.48      50.3  T
   7    -87.2033847 -0.244297E-08  0.118E-04    1.48     125.4  T
   8    -87.2033847 -0.193694E-09  0.450E-05    1.48     327.9  T
     SCC iter.                  ...        0 min,  0.052 sec
     gradient                   ...        0 min,  0.068 sec
 * total energy  :   -86.3617109 Eh     change       -0.6660485E-02 Eh
   gradient norm :     0.0210654 Eh/α   predicted    -0.6674166E-02 (   0.21%)
   displ. norm   :     0.2772723 α      lambda       -0.1759836E-02
   maximum displ.:     0.1848649 α      in ANC's #7, #6, #11, ...

........................................................................
.............................. CYCLE    4 ..............................
........................................................................
   1    -87.2015635 -0.872016E+02  0.160E-02    1.49       0.0  T
   2    -87.2015727 -0.924707E-05  0.766E-03    1.50       1.9  T
   3    -87.2015734 -0.658513E-06  0.403E-03    1.50       3.7  T
   4    -87.2015734 -0.153460E-07  0.127E-03    1.50      11.6  T
   5    -87.2015734 -0.341356E-07  0.345E-04    1.50      42.7  T
   6    -87.2015735 -0.281135E-08  0.955E-05    1.50     154.5  T
   7    -87.2015735 -0.115136E-09  0.253E-05    1.50     583.4  T
     SCC iter.                  ...        0 min,  0.045 sec
     gradient                   ...        0 min,  0.066 sec
 * total energy  :   -86.3631094 Eh     change       -0.1398506E-02 Eh
   gradient norm :     0.0127307 Eh/α   predicted    -0.9475716E-03 ( -32.24%)
   displ. norm   :     0.4464638 α      lambda       -0.1756707E-02
   maximum displ.:     0.3012019 α      in ANC's #7, #6, #3, ...

........................................................................
.............................. CYCLE    5 ..............................
........................................................................
   1    -87.1988945 -0.871989E+02  0.223E-02    1.50       0.0  T
   2    -87.1989092 -0.146858E-04  0.105E-02    1.51       1.4  T
   3    -87.1989105 -0.130638E-05  0.574E-03    1.51       2.6  T
   4    -87.1989107 -0.196433E-06  0.200E-03    1.51       7.4  T
   5    -87.1989107 -0.369355E-07  0.392E-04    1.51      37.6  T
   6    -87.1989107 -0.496776E-08  0.124E-04    1.51     118.6  T
   7    -87.1989107 -0.214200E-09  0.313E-05    1.51     471.5  T
     SCC iter.                  ...        0 min,  0.044 sec
     gradient                   ...        0 min,  0.066 sec
 * total energy  :   -86.3642989 Eh     change       -0.1189557E-02 Eh
   gradient norm :     0.0083877 Eh/α   predicted    -0.1053442E-02 ( -11.44%)
   displ. norm   :     0.3391902 α      lambda       -0.6489399E-03
   maximum displ.:     0.2200758 α      in ANC's #7, #6, #3, ...

........................................................................
.............................. CYCLE    6 ..............................
........................................................................
   1    -87.1995666 -0.871996E+02  0.109E-02    1.52       0.0  T
   2    -87.1995705 -0.390784E-05  0.467E-03    1.52       3.2  T
   3    -87.1995710 -0.437257E-06  0.258E-03    1.52       5.7  T
   4    -87.1995710 -0.571349E-07  0.943E-04    1.52      15.6  T
   5    -87.1995710 -0.296767E-08  0.193E-04    1.52      76.3  T
   6    -87.1995710 -0.123438E-08  0.656E-05    1.52     224.8  T
     SCC iter.                  ...        0 min,  0.038 sec
     gradient                   ...        0 min,  0.067 sec
 * total energy  :   -86.3647850 Eh     change       -0.4860516E-03 Eh
   gradient norm :     0.0084728 Eh/α   predicted    -0.3618021E-03 ( -25.56%)
   displ. norm   :     0.3640896 α      lambda       -0.5359433E-03
   maximum displ.:     0.2066188 α      in ANC's #7, #6, #3, ...

........................................................................
.............................. CYCLE    7 ..............................
........................................................................
   1    -87.2021020 -0.872021E+02  0.823E-03    1.53       0.0  T
   2    -87.2021041 -0.208605E-05  0.334E-03    1.53       4.4  T
   3    -87.2021043 -0.218725E-06  0.194E-03    1.53       7.6  T
   4    -87.2021043 -0.295991E-07  0.656E-04    1.53      22.5  T
   5    -87.2021043 -0.224159E-08  0.148E-04    1.53      99.5  T
   6    -87.2021043 -0.527223E-09  0.497E-05    1.53     296.9  T
     SCC iter.                  ...        0 min,  0.038 sec
     gradient                   ...        0 min,  0.067 sec
 * total energy  :   -86.3651945 Eh     change       -0.4095643E-03 Eh
   gradient norm :     0.0071536 Eh/α   predicted    -0.3034948E-03 ( -25.90%)
   displ. norm   :     0.3772383 α      lambda       -0.4396459E-03
   maximum displ.:     0.1895083 α      in ANC's #6, #3, #7, ...

........................................................................
.............................. CYCLE    8 ..............................
........................................................................
   1    -87.2049559 -0.872050E+02  0.652E-03    1.53       0.0  T
   2    -87.2049568 -0.886599E-06  0.307E-03    1.53       4.8  T
   3    -87.2049568 -0.344245E-07  0.166E-03    1.53       8.9  T
   4    -87.2049568 -0.992672E-08  0.388E-04    1.53      38.0  T
   5    -87.2049568 -0.443337E-08  0.118E-04    1.53     124.9  T
   6    -87.2049568 -0.288466E-09  0.355E-05    1.53     415.4  T
     SCC iter.                  ...        0 min,  0.038 sec
     gradient                   ...        0 min,  0.067 sec
 * total energy  :   -86.3655203 Eh     change       -0.3257351E-03 Eh
   gradient norm :     0.0056395 Eh/α   predicted    -0.2511131E-03 ( -22.91%)
   displ. norm   :     0.3190504 α      lambda       -0.2775400E-03
   maximum displ.:     0.1698647 α      in ANC's #3, #6, #7, ...

........................................................................
.............................. CYCLE    9 ..............................
........................................................................
   1    -87.2072206 -0.872072E+02  0.625E-03    1.53       0.0  T
   2    -87.2072217 -0.111585E-05  0.294E-03    1.53       5.0  T
   3    -87.2072218 -0.593462E-07  0.166E-03    1.53       8.9  T
   4    -87.2072218 -0.996053E-08  0.430E-04    1.53      34.3  T
   5    -87.2072218 -0.195411E-08  0.116E-04    1.53     126.9  T
   6    -87.2072218 -0.602284E-09  0.328E-05    1.53     449.6  T
     SCC iter.                  ...        0 min,  0.038 sec
     gradient                   ...        0 min,  0.067 sec
 * total energy  :   -86.3657225 Eh     change       -0.2022031E-03 Eh
   gradient norm :     0.0043076 Eh/α   predicted    -0.1528972E-03 ( -24.38%)
   displ. norm   :     0.2528034 α      lambda       -0.1620814E-03
   maximum displ.:     0.1484327 α      in ANC's #3, #6, #2, ...

........................................................................
.............................. CYCLE   10 ..............................
........................................................................
   1    -87.2081768 -0.872082E+02  0.524E-03    1.52       0.0  T
   2    -87.2081778 -0.104100E-05  0.214E-03    1.53       6.9  T
   3    -87.2081779 -0.829732E-07  0.123E-03    1.53      12.0  T
   4    -87.2081779 -0.591216E-08  0.430E-04    1.53      34.3  T
   5    -87.2081779 -0.131804E-08  0.110E-04    1.53     133.9  T
   6    -87.2081779 -0.465405E-09  0.233E-05    1.53     632.6  T
     SCC iter.                  ...        0 min,  0.038 sec
     gradient                   ...        0 min,  0.067 sec
 * total energy  :   -86.3658430 Eh     change       -0.1205640E-03 Eh
   gradient norm :     0.0035581 Eh/α   predicted    -0.8622648E-04 ( -28.48%)
   displ. norm   :     0.2080601 α      lambda       -0.1194810E-03
   maximum displ.:     0.1326723 α      in ANC's #3, #2, #6, ...

........................................................................
.............................. CYCLE   11 ..............................
........................................................................
   1    -87.2086138 -0.872086E+02  0.389E-03    1.52       0.0  T
   2    -87.2086144 -0.595428E-06  0.139E-03    1.53      10.6  T
   3    -87.2086145 -0.509694E-07  0.769E-04    1.52      19.2  T
   4    -87.2086145 -0.266441E-08  0.313E-04    1.53      47.1  T
   5    -87.2086145 -0.492022E-09  0.750E-05    1.53     196.7  T
   6    -87.2086145 -0.131593E-09  0.177E-05    1.53     833.2  T
     SCC iter.                  ...        0 min,  0.039 sec
     gradient                   ...        0 min,  0.068 sec
 * total energy  :   -86.3659370 Eh     change       -0.9399589E-04 Eh
   gradient norm :     0.0033940 Eh/α   predicted    -0.6232776E-04 ( -33.69%)
   displ. norm   :     0.2250169 α      lambda       -0.1218605E-03
   maximum displ.:     0.1458334 α      in ANC's #3, #2, #1, ...

........................................................................
.............................. CYCLE   12 ..............................
........................................................................
   1    -87.2080626 -0.872081E+02  0.342E-03    1.52       0.0  T
   2    -87.2080630 -0.373752E-06  0.143E-03    1.53      10.3  T
   3    -87.2080630 -0.361145E-07  0.733E-04    1.53      20.1  T
   4    -87.2080630 -0.203013E-08  0.268E-04    1.53      54.9  T
   5    -87.2080630 -0.502880E-09  0.576E-05    1.53     256.0  T
   6    -87.2080630 -0.317613E-10  0.125E-05    1.53    1180.1  T
     SCC iter.                  ...        0 min,  0.038 sec
     gradient                   ...        0 min,  0.068 sec
 * total energy  :   -86.3660355 Eh     change       -0.9845083E-04 Eh
   gradient norm :     0.0035120 Eh/α   predicted    -0.6401632E-04 ( -34.98%)
   displ. norm   :     0.2690598 α      lambda       -0.1361960E-03
   maximum displ.:     0.1715271 α      in ANC's #3, #2, #1, ...

........................................................................
.............................. CYCLE   13 ..............................
........................................................................
   1    -87.2076732 -0.872077E+02  0.400E-03    1.53       0.0  T
   2    -87.2076738 -0.532188E-06  0.192E-03    1.53       7.7  T
   3    -87.2076738 -0.611218E-07  0.970E-04    1.53      15.2  T
   4    -87.2076738 -0.228520E-08  0.299E-04    1.53      49.3  T
   5    -87.2076738 -0.841496E-09  0.625E-05    1.53     235.8  T
   6    -87.2076738 -0.817835E-10  0.197E-05    1.53     748.7  T
     SCC iter.                  ...        0 min,  0.039 sec
     gradient                   ...        0 min,  0.068 sec
 * total energy  :   -86.3661427 Eh     change       -0.1072136E-03 Eh
   gradient norm :     0.0038326 Eh/α   predicted    -0.7302907E-04 ( -31.88%)
   displ. norm   :     0.3119414 α      lambda       -0.1366954E-03
   maximum displ.:     0.1974815 α      in ANC's #3, #2, #1, ...

........................................................................
.............................. CYCLE   14 ..............................
........................................................................
   1    -87.2062538 -0.872063E+02  0.524E-03    1.53       0.0  T
   2    -87.2062546 -0.777649E-06  0.229E-03    1.53       6.4  T
   3    -87.2062546 -0.774936E-07  0.121E-03    1.53      12.2  T
   4    -87.2062546 -0.720475E-08  0.350E-04    1.53      42.2  T
   5    -87.2062546 -0.134952E-08  0.985E-05    1.53     149.7  T
   6    -87.2062546 -0.223153E-09  0.240E-05    1.53     614.9  T
     SCC iter.                  ...        0 min,  0.039 sec
     gradient                   ...        0 min,  0.068 sec
 * total energy  :   -86.3662454 Eh     change       -0.1026908E-03 Eh
   gradient norm :     0.0044569 Eh/α   predicted    -0.7500134E-04 ( -26.96%)
   displ. norm   :     0.3276993 α      lambda       -0.1445158E-03
   maximum displ.:     0.2047810 α      in ANC's #3, #2, #1, ...

........................................................................
.............................. CYCLE   15 ..............................
........................................................................
   1    -87.2070298 -0.872070E+02  0.554E-03    1.53       0.0  T
   2    -87.2070306 -0.735820E-06  0.249E-03    1.53       5.9  T
   3    -87.2070306 -0.513364E-07  0.137E-03    1.53      10.8  T
   4    -87.2070306 -0.530211E-08  0.272E-04    1.53      54.2  T
   5    -87.2070306 -0.145576E-08  0.907E-05    1.53     162.6  T
   6    -87.2070306 -0.181998E-09  0.199E-05    1.53     741.2  T
     SCC iter.                  ...        0 min,  0.038 sec
     gradient                   ...        0 min,  0.068 sec
 * total energy  :   -86.3663422 Eh     change       -0.9678501E-04 Eh
   gradient norm :     0.0042518 Eh/α   predicted    -0.8001779E-04 ( -17.32%)
   displ. norm   :     0.3109239 α      lambda       -0.1206059E-03
   maximum displ.:     0.1979765 α      in ANC's #3, #2, #1, ...

........................................................................
.............................. CYCLE   16 ..............................
........................................................................
   1    -87.2064189 -0.872064E+02  0.522E-03    1.54       0.0  T
   2    -87.2064195 -0.528455E-06  0.230E-03    1.54       6.4  T
   3    -87.2064195 -0.421303E-07  0.121E-03    1.54      12.1  T
   4    -87.2064195 -0.802245E-08  0.342E-04    1.54      43.1  T
   5    -87.2064195 -0.193693E-08  0.870E-05    1.54     169.5  T
   6    -87.2064195 -0.142691E-09  0.258E-05    1.54     570.5  T
     SCC iter.                  ...        0 min,  0.038 sec
     gradient                   ...        0 min,  0.067 sec
 * total energy  :   -86.3664237 Eh     change       -0.8152682E-04 Eh
   gradient norm :     0.0039326 Eh/α   predicted    -0.6613445E-04 ( -18.88%)
   displ. norm   :     0.2140155 α      lambda       -0.8441434E-04
   maximum displ.:     0.1360309 α      in ANC's #3, #2, #1, ...

........................................................................
.............................. CYCLE   17 ..............................
........................................................................
   1    -87.2082826 -0.872083E+02  0.485E-03    1.54       0.0  T
   2    -87.2082833 -0.710514E-06  0.229E-03    1.54       6.4  T
   3    -87.2082834 -0.115494E-06  0.115E-03    1.54      12.8  T
   4    -87.2082834 -0.467310E-08  0.339E-04    1.54      43.4  T
   5    -87.2082834 -0.162642E-08  0.773E-05    1.54     190.8  T
   6    -87.2082834 -0.156447E-09  0.241E-05    1.54     613.0  T
     SCC iter.                  ...        0 min,  0.039 sec
     gradient                   ...        0 min,  0.068 sec
 * total energy  :   -86.3664816 Eh     change       -0.5788924E-04 Eh
   gradient norm :     0.0031574 Eh/α   predicted    -0.4414061E-04 ( -23.75%)
   displ. norm   :     0.2106303 α      lambda       -0.4941011E-04
   maximum displ.:     0.1363333 α      in ANC's #3, #2, #1, ...

........................................................................
.............................. CYCLE   18 ..............................
........................................................................
   1    -87.2083830 -0.872084E+02  0.366E-03    1.54       0.0  T
   2    -87.2083834 -0.413105E-06  0.145E-03    1.54      10.2  T
   3    -87.2083835 -0.205224E-07  0.795E-04    1.54      18.6  T
   4    -87.2083835 -0.149548E-08  0.211E-04    1.54      69.7  T
   5    -87.2083835 -0.675627E-09  0.695E-05    1.54     212.0  T
   6    -87.2083835 -0.133284E-09  0.150E-05    1.54     982.7  T
     SCC iter.                  ...        0 min,  0.038 sec
     gradient                   ...        0 min,  0.068 sec
 * total energy  :   -86.3665166 Eh     change       -0.3503715E-04 Eh
   gradient norm :     0.0024580 Eh/α   predicted    -0.2580462E-04 ( -26.35%)
   displ. norm   :     0.1493678 α      lambda       -0.3299550E-04
   maximum displ.:     0.0938169 α      in ANC's #3, #1, #2, ...

........................................................................
.............................. CYCLE   19 ..............................
........................................................................
   1    -87.2091672 -0.872092E+02  0.383E-03    1.54       0.0  T
   2    -87.2091677 -0.455903E-06  0.149E-03    1.54       9.9  T
   3    -87.2091677 -0.261308E-07  0.863E-04    1.54      17.1  T
   4    -87.2091677 -0.920210E-09  0.222E-04    1.54      66.4  T
   5    -87.2091677 -0.140129E-08  0.632E-05    1.54     233.2  T
   6    -87.2091677 -0.915890E-10  0.123E-05    1.54    1201.2  T
     SCC iter.                  ...        0 min,  0.038 sec
     gradient                   ...        0 min,  0.068 sec
 * total energy  :   -86.3665378 Eh     change       -0.2120011E-04 Eh
   gradient norm :     0.0018622 Eh/α   predicted    -0.1686634E-04 ( -20.44%)
   displ. norm   :     0.1887713 α      lambda       -0.1881048E-04
   maximum displ.:     0.1166313 α      in ANC's #3, #2, #1, ...

........................................................................
.............................. CYCLE   20 ..............................
........................................................................
   1    -87.2081982 -0.872082E+02  0.430E-03    1.54       0.0  T
   2    -87.2081987 -0.559318E-06  0.197E-03    1.54       7.5  T
   3    -87.2081988 -0.413599E-07  0.109E-03    1.54      13.5  T
   4    -87.2081988 -0.104671E-08  0.264E-04    1.54      55.9  T
   5    -87.2081988 -0.153412E-08  0.532E-05    1.54     276.9  T
   6    -87.2081988 -0.570139E-10  0.112E-05    1.54    1318.5  T
     SCC iter.                  ...        0 min,  0.038 sec
     gradient                   ...        0 min,  0.067 sec
 * total energy  :   -86.3665469 Eh     change       -0.9089143E-05 Eh
   gradient norm :     0.0024878 Eh/α   predicted    -0.9559202E-05 (   5.17%)
   displ. norm   :     0.0241042 α      lambda       -0.1387762E-04
   maximum displ.:     0.0109764 α      in ANC's #10, #6, #21, ...
 * RMSD in coord.:     0.6057518 α      energy gain  -0.3005751E-01 Eh

generating ANC from model Hessian ...
Using Lindh-Hessian (1995)
 Shifting diagonal of input Hessian by   9.829556358488053E-003
 Lowest  eigenvalues of input Hessian
    0.000000    0.000000    0.000000    0.000000    0.000000    0.000000
    0.010000    0.010185    0.010243    0.010624    0.011384    0.012011
    0.012695    0.014044    0.014247    0.014979    0.016118    0.016622
 Highest eigenvalues
    2.182484    2.190052    2.251221    2.371963    2.397730    2.466533
 

........................................................................
.............................. CYCLE   21 ..............................
........................................................................
   1    -87.2086965 -0.872087E+02  0.159E-03    1.54       0.0  T
   2    -87.2086966 -0.337445E-07  0.835E-04    1.54      17.6  T
   3    -87.2086966 -0.223845E-08  0.414E-04    1.54      35.6  T
   4    -87.2086966 -0.145370E-08  0.874E-05    1.54     168.7  T
   5    -87.2086966 -0.810587E-10  0.174E-05    1.54     849.7  T
     SCC iter.                  ...        0 min,  0.032 sec
     gradient                   ...        0 min,  0.067 sec
 * total energy  :   -86.3665561 Eh     change       -0.9141475E-05 Eh
   gradient norm :     0.0014794 Eh/α   predicted     0.0000000E+00 (-100.00%)
   displ. norm   :     0.0217096 α      lambda       -0.4331334E-05
   maximum displ.:     0.0108354 α      in ANC's #18, #12, #6, ...

........................................................................
.............................. CYCLE   22 ..............................
........................................................................
   1    -87.2086709 -0.872087E+02  0.150E-03    1.54       0.0  T
   2    -87.2086710 -0.832496E-07  0.602E-04    1.54      24.5  T
   3    -87.2086710 -0.310209E-08  0.331E-04    1.54      44.6  T
   4    -87.2086710 -0.701164E-10  0.789E-05    1.54     186.9  T
   5    -87.2086710 -0.736406E-10  0.200E-05    1.54     735.7  T
     SCC iter.                  ...        0 min,  0.032 sec
     gradient                   ...        0 min,  0.067 sec
 * total energy  :   -86.3665632 Eh     change       -0.7100155E-05 Eh
   gradient norm :     0.0006257 Eh/α   predicted    -0.3075342E-05 ( -56.69%)
   displ. norm   :     0.0598896 α      lambda       -0.9751169E-05
   maximum displ.:     0.0287882 α      in ANC's #18, #12, #1, ...

........................................................................
.............................. CYCLE   23 ..............................
........................................................................
   1    -87.2085596 -0.872086E+02  0.251E-03    1.54       0.0  T
   2    -87.2085598 -0.252719E-06  0.860E-04    1.54      17.1  T
   3    -87.2085598 -0.136042E-07  0.442E-04    1.54      33.4  T
   4    -87.2085598 -0.405223E-09  0.147E-04    1.54     100.4  T
   5    -87.2085598 -0.229022E-09  0.487E-05    1.54     302.9  T
     SCC iter.                  ...        0 min,  0.031 sec
     gradient                   ...        0 min,  0.067 sec
 * total energy  :   -86.3665733 Eh     change       -0.1015542E-04 Eh
   gradient norm :     0.0011168 Eh/α   predicted    -0.4884627E-05 ( -51.90%)
   displ. norm   :     0.0732960 α      lambda       -0.7465665E-05
   maximum displ.:     0.0334545 α      in ANC's #18, #12, #1, ...

........................................................................
.............................. CYCLE   24 ..............................
........................................................................
   1    -87.2084031 -0.872084E+02  0.147E-03    1.54       0.0  T
   2    -87.2084032 -0.645751E-07  0.560E-04    1.54      26.3  T
   3    -87.2084032 -0.557007E-08  0.263E-04    1.54      56.1  T
   4    -87.2084032 -0.345253E-09  0.841E-05    1.54     175.2  T
   5    -87.2084032 -0.711822E-10  0.280E-05    1.54     525.9  T
     SCC iter.                  ...        0 min,  0.032 sec
     gradient                   ...        0 min,  0.068 sec
 * total energy  :   -86.3665817 Eh     change       -0.8417775E-05 Eh
   gradient norm :     0.0016461 Eh/α   predicted    -0.3766370E-05 ( -55.26%)
   displ. norm   :     0.1124378 α      lambda       -0.1005666E-04
   maximum displ.:     0.0497661 α      in ANC's #12, #18, #1, ...

........................................................................
.............................. CYCLE   25 ..............................
........................................................................
   1    -87.2082510 -0.872083E+02  0.130E-03    1.54       0.0  T
   2    -87.2082511 -0.339738E-07  0.579E-04    1.54      25.4  T
   3    -87.2082511 -0.426959E-08  0.274E-04    1.54      53.9  T
   4    -87.2082511 -0.115470E-08  0.804E-05    1.54     183.4  T
   5    -87.2082511 -0.490701E-10  0.325E-05    1.54     453.2  T
     SCC iter.                  ...        0 min,  0.030 sec
     gradient                   ...        0 min,  0.065 sec
 * total energy  :   -86.3665924 Eh     change       -0.1069028E-04 Eh
   gradient norm :     0.0017070 Eh/α   predicted    -0.5057018E-05 ( -52.70%)
   displ. norm   :     0.1319776 α      lambda       -0.1088307E-04
   maximum displ.:     0.0598335 α      in ANC's #12, #1, #18, ...

........................................................................
.............................. CYCLE   26 ..............................
........................................................................
   1    -87.2081923 -0.872082E+02  0.202E-03    1.54       0.0  T
   2    -87.2081924 -0.115408E-06  0.779E-04    1.54      18.9  T
   3    -87.2081924 -0.110852E-07  0.450E-04    1.54      32.8  T
   4    -87.2081924 -0.247343E-08  0.141E-04    1.54     104.9  T
   5    -87.2081924 -0.142037E-09  0.521E-05    1.54     282.8  T
     SCC iter.                  ...        0 min,  0.032 sec
     gradient                   ...        0 min,  0.068 sec
 * total energy  :   -86.3666026 Eh     change       -0.1018092E-04 Eh
   gradient norm :     0.0012239 Eh/α   predicted    -0.5491427E-05 ( -46.06%)
   displ. norm   :     0.0948192 α      lambda       -0.7874937E-05
   maximum displ.:     0.0431226 α      in ANC's #1, #12, #9, ...

........................................................................
.............................. CYCLE   27 ..............................
........................................................................
   1    -87.2084964 -0.872085E+02  0.220E-03    1.54       0.0  T
   2    -87.2084966 -0.153117E-06  0.784E-04    1.54      18.8  T
   3    -87.2084966 -0.136666E-07  0.435E-04    1.54      33.9  T
   4    -87.2084966 -0.115156E-08  0.140E-04    1.54     105.3  T
   5    -87.2084966 -0.251518E-09  0.476E-05    1.54     309.5  T
     SCC iter.                  ...        0 min,  0.031 sec
     gradient                   ...        0 min,  0.067 sec
 * total energy  :   -86.3666103 Eh     change       -0.7665047E-05 Eh
   gradient norm :     0.0007229 Eh/α   predicted    -0.3965942E-05 ( -48.26%)
   displ. norm   :     0.0844465 α      lambda       -0.4878247E-05
   maximum displ.:     0.0408289 α      in ANC's #1, #12, #9, ...

........................................................................
.............................. CYCLE   28 ..............................
........................................................................
   1    -87.2086135 -0.872086E+02  0.153E-03    1.54       0.0  T
   2    -87.2086136 -0.778106E-07  0.531E-04    1.54      27.8  T
   3    -87.2086136 -0.745702E-08  0.253E-04    1.54      58.3  T
   4    -87.2086136 -0.343903E-09  0.834E-05    1.54     176.8  T
   5    -87.2086136 -0.844551E-10  0.282E-05    1.54     521.9  T
     SCC iter.                  ...        0 min,  0.032 sec
     gradient                   ...        0 min,  0.068 sec
 * total energy  :   -86.3666159 Eh     change       -0.5592149E-05 Eh
   gradient norm :     0.0008195 Eh/α   predicted    -0.2452904E-05 ( -56.14%)
   displ. norm   :     0.1256160 α      lambda       -0.6719182E-05
   maximum displ.:     0.0628048 α      in ANC's #1, #12, #13, ...

........................................................................
.............................. CYCLE   29 ..............................
........................................................................
   1    -87.2086486 -0.872086E+02  0.178E-03    1.54       0.0  T
   2    -87.2086487 -0.107052E-06  0.669E-04    1.54      22.0  T
   3    -87.2086488 -0.102765E-07  0.318E-04    1.54      46.4  T
   4    -87.2086488 -0.614264E-09  0.105E-04    1.54     140.6  T
   5    -87.2086488 -0.105814E-09  0.366E-05    1.54     402.9  T
     SCC iter.                  ...        0 min,  0.032 sec
     gradient                   ...        0 min,  0.068 sec
 * total energy  :   -86.3666234 Eh     change       -0.7575652E-05 Eh
   gradient norm :     0.0011383 Eh/α   predicted    -0.3387948E-05 ( -55.28%)
   displ. norm   :     0.1679548 α      lambda       -0.8521515E-05
   maximum displ.:     0.0861968 α      in ANC's #1, #12, #13, ...

........................................................................
.............................. CYCLE   30 ..............................
........................................................................
   1    -87.2086045 -0.872086E+02  0.192E-03    1.54       0.0  T
   2    -87.2086046 -0.111443E-06  0.821E-04    1.54      18.0  T
   3    -87.2086046 -0.138095E-07  0.428E-04    1.54      34.5  T
   4    -87.2086046 -0.172739E-08  0.135E-04    1.54     109.0  T
   5    -87.2086046 -0.187669E-09  0.496E-05    1.54     297.4  T
     SCC iter.                  ...        0 min,  0.032 sec
     gradient                   ...        0 min,  0.067 sec
 * total energy  :   -86.3666332 Eh     change       -0.9729471E-05 Eh
   gradient norm :     0.0014397 Eh/α   predicted    -0.4318466E-05 ( -55.61%)
   displ. norm   :     0.1717010 α      lambda       -0.1128662E-04
   maximum displ.:     0.0908572 α      in ANC's #1, #2, #13, ...

........................................................................
.............................. CYCLE   31 ..............................
........................................................................
   1    -87.2089811 -0.872090E+02  0.210E-03    1.54       0.0  T
   2    -87.2089812 -0.112298E-06  0.969E-04    1.54      15.2  T
   3    -87.2089813 -0.210999E-07  0.530E-04    1.54      27.8  T
   4    -87.2089813 -0.301712E-08  0.144E-04    1.54     102.7  T
   5    -87.2089813 -0.111868E-09  0.487E-05    1.54     302.7  T
     SCC iter.                  ...        0 min,  0.027 sec
     gradient                   ...        0 min,  0.062 sec
 * total energy  :   -86.3666453 Eh     change       -0.1208912E-04 Eh
   gradient norm :     0.0014691 Eh/α   predicted    -0.5725575E-05 ( -52.64%)
   displ. norm   :     0.2387512 α      lambda       -0.1538499E-04
   maximum displ.:     0.1253862 α      in ANC's #1, #12, #2, ...

........................................................................
.............................. CYCLE   32 ..............................
........................................................................
   1    -87.2076195 -0.872076E+02  0.367E-03    1.54       0.0  T
   2    -87.2076197 -0.149875E-06  0.182E-03    1.54       8.1  T
   3    -87.2076197 -0.203385E-07  0.971E-04    1.54      15.2  T
   4    -87.2076197 -0.100746E-07  0.214E-04    1.54      68.8  T
   5    -87.2076197 -0.496527E-09  0.669E-05    1.54     220.4  T
   6    -87.2076197 -0.888605E-10  0.193E-05    1.54     765.5  T
     SCC iter.                  ...        0 min,  0.036 sec
     gradient                   ...        0 min,  0.064 sec
 * total energy  :   -86.3666543 Eh     change       -0.9027847E-05 Eh
   gradient norm :     0.0028077 Eh/α   predicted    -0.7888797E-05 ( -12.62%)
   displ. norm   :     0.1373888 α      lambda       -0.4070300E-04
   maximum displ.:     0.0666580 α      in ANC's #2, #1, #18, ...

........................................................................
.............................. CYCLE   33 ..............................
........................................................................
   1    -87.2088284 -0.872088E+02  0.364E-03    1.54       0.0  T
   2    -87.2088287 -0.293168E-06  0.173E-03    1.54       8.5  T
   3    -87.2088287 -0.521820E-07  0.949E-04    1.54      15.5  T
   4    -87.2088287 -0.236977E-08  0.183E-04    1.54      80.5  T
   5    -87.2088287 -0.935216E-09  0.525E-05    1.54     280.6  T
     SCC iter.                  ...        0 min,  0.030 sec
     gradient                   ...        0 min,  0.065 sec
 * total energy  :   -86.3666781 Eh     change       -0.2383045E-04 Eh
   gradient norm :     0.0019264 Eh/α   predicted    -0.2074720E-04 ( -12.94%)
   displ. norm   :     0.2161472 α      lambda       -0.1789641E-04
   maximum displ.:     0.1072609 α      in ANC's #1, #2, #13, ...

........................................................................
.............................. CYCLE   34 ..............................
........................................................................
   1    -87.2087899 -0.872088E+02  0.303E-03    1.54       0.0  T
   2    -87.2087900 -0.119179E-06  0.156E-03    1.54       9.4  T
   3    -87.2087900 -0.143374E-07  0.794E-04    1.54      18.6  T
   4    -87.2087900 -0.495898E-08  0.179E-04    1.54      82.2  T
   5    -87.2087900 -0.280906E-09  0.510E-05    1.54     288.9  T
     SCC iter.                  ...        0 min,  0.032 sec
     gradient                   ...        0 min,  0.061 sec
 * total energy  :   -86.3666963 Eh     change       -0.1815979E-04 Eh
   gradient norm :     0.0025862 Eh/α   predicted    -0.9135188E-05 ( -49.70%)
   displ. norm   :     0.1338909 α      lambda       -0.2572262E-04
   maximum displ.:     0.0626770 α      in ANC's #2, #1, #10, ...

........................................................................
.............................. CYCLE   35 ..............................
........................................................................
   1    -87.2089374 -0.872089E+02  0.155E-03    1.54       0.0  T
   2    -87.2089375 -0.751205E-07  0.768E-04    1.54      19.2  T
   3    -87.2089375 -0.885542E-08  0.443E-04    1.54      33.3  T
   4    -87.2089375 -0.175402E-08  0.133E-04    1.54     110.6  T
   5    -87.2089375 -0.613056E-10  0.379E-05    1.54     388.7  T
     SCC iter.                  ...        0 min,  0.030 sec
     gradient                   ...        0 min,  0.064 sec
 * total energy  :   -86.3667162 Eh     change       -0.1988801E-04 Eh
   gradient norm :     0.0020273 Eh/α   predicted    -0.1309409E-04 ( -34.16%)
   displ. norm   :     0.1855511 α      lambda       -0.2837153E-04
   maximum displ.:     0.0867975 α      in ANC's #1, #2, #10, ...

........................................................................
.............................. CYCLE   36 ..............................
........................................................................
   1    -87.2085869 -0.872086E+02  0.276E-03    1.54       0.0  T
   2    -87.2085872 -0.243061E-06  0.114E-03    1.54      12.9  T
   3    -87.2085872 -0.280521E-07  0.669E-04    1.54      22.0  T
   4    -87.2085872 -0.332301E-08  0.216E-04    1.54      68.2  T
   5    -87.2085872 -0.295671E-09  0.627E-05    1.54     235.2  T
   6    -87.2085872 -0.892584E-10  0.192E-05    1.54     769.6  T
     SCC iter.                  ...        0 min,  0.037 sec
     gradient                   ...        0 min,  0.064 sec
 * total energy  :   -86.3667341 Eh     change       -0.1789329E-04 Eh
   gradient norm :     0.0017356 Eh/α   predicted    -0.1467469E-04 ( -17.99%)
   displ. norm   :     0.0848946 α      lambda       -0.1642795E-04
   maximum displ.:     0.0368796 α      in ANC's #10, #17, #6, ...

........................................................................
.............................. CYCLE   37 ..............................
........................................................................
   1    -87.2096340 -0.872096E+02  0.459E-03    1.54       0.0  T
   2    -87.2096345 -0.484834E-06  0.207E-03    1.54       7.1  T
   3    -87.2096346 -0.756837E-07  0.110E-03    1.54      13.4  T
   4    -87.2096346 -0.514608E-08  0.275E-04    1.54      53.6  T
   5    -87.2096346 -0.129710E-08  0.623E-05    1.54     236.8  T
   6    -87.2096346 -0.128111E-09  0.145E-05    1.54    1015.0  T
     SCC iter.                  ...        0 min,  0.036 sec
     gradient                   ...        0 min,  0.065 sec
 * total energy  :   -86.3667372 Eh     change       -0.3102383E-05 Eh
   gradient norm :     0.0024190 Eh/α   predicted    -0.8244457E-05 ( 165.75%)
   displ. norm   :     0.1231337 α      lambda       -0.2001041E-04
   maximum displ.:     0.0692657 α      in ANC's #1, #2, #12, ...

........................................................................
.............................. CYCLE   38 ..............................
........................................................................
   1    -87.2086655 -0.872087E+02  0.222E-03    1.54       0.0  T
   2    -87.2086656 -0.369358E-07  0.119E-03    1.54      12.4  T
   3    -87.2086656 -0.119365E-08  0.534E-04    1.54      27.6  T
   4    -87.2086656 -0.296222E-08  0.937E-05    1.54     157.4  T
   5    -87.2086656 -0.148134E-09  0.336E-05    1.54     439.1  T
     SCC iter.                  ...        0 min,  0.028 sec
     gradient                   ...        0 min,  0.062 sec
 * total energy  :   -86.3667506 Eh     change       -0.1342423E-04 Eh
   gradient norm :     0.0017478 Eh/α   predicted    -0.1016577E-04 ( -24.27%)
   displ. norm   :     0.0831218 α      lambda       -0.1245280E-04
   maximum displ.:     0.0392184 α      in ANC's #1, #18, #17, ...

........................................................................
.............................. CYCLE   39 ..............................
........................................................................
   1    -87.2082959 -0.872083E+02  0.276E-03    1.54       0.0  T
   2    -87.2082962 -0.269446E-06  0.121E-03    1.54      12.2  T
   3    -87.2082962 -0.448981E-07  0.670E-04    1.54      22.0  T
   4    -87.2082962 -0.363380E-08  0.224E-04    1.54      65.9  T
   5    -87.2082962 -0.121986E-09  0.472E-05    1.54     312.6  T
   6    -87.2082962 -0.690932E-10  0.148E-05    1.54     998.0  T
     SCC iter.                  ...        0 min,  0.035 sec
     gradient                   ...        0 min,  0.063 sec
 * total energy  :   -86.3667603 Eh     change       -0.9756262E-05 Eh
   gradient norm :     0.0017391 Eh/α   predicted    -0.6253585E-05 ( -35.90%)
   displ. norm   :     0.0341551 α      lambda       -0.5816087E-05
   maximum displ.:     0.0136822 α      in ANC's #1, #3, #18, ...

........................................................................
.............................. CYCLE   40 ..............................
........................................................................
   1    -87.2085621 -0.872086E+02  0.131E-03    1.54       0.0  T
   2    -87.2085622 -0.611311E-07  0.749E-04    1.54      19.7  T
   3    -87.2085622 -0.133220E-07  0.380E-04    1.54      38.8  T
   4    -87.2085622 -0.457575E-09  0.948E-05    1.54     155.5  T
   5    -87.2085622 -0.779750E-10  0.220E-05    1.54     670.3  T
     SCC iter.                  ...        0 min,  0.032 sec
     gradient                   ...        0 min,  0.064 sec
 * total energy  :   -86.3667670 Eh     change       -0.6622411E-05 Eh
   gradient norm :     0.0009380 Eh/α   predicted    -0.2911087E-05 ( -56.04%)
   displ. norm   :     0.1500655 α      lambda       -0.9411498E-05
   maximum displ.:     0.0855915 α      in ANC's #1, #10, #3, ...

........................................................................
.............................. CYCLE   41 ..............................
........................................................................
   1    -87.2086005 -0.872086E+02  0.187E-03    1.54       0.0  T
   2    -87.2086006 -0.956096E-07  0.954E-04    1.54      15.5  T
   3    -87.2086006 -0.141008E-07  0.457E-04    1.54      32.3  T
   4    -87.2086006 -0.205348E-08  0.143E-04    1.54     103.0  T
   5    -87.2086006 -0.224261E-09  0.466E-05    1.54     316.6  T
     SCC iter.                  ...        0 min,  0.029 sec
     gradient                   ...        0 min,  0.066 sec
 * total energy  :   -86.3667768 Eh     change       -0.9883558E-05 Eh
   gradient norm :     0.0011199 Eh/α   predicted    -0.4756669E-05 ( -51.87%)
   displ. norm   :     0.1362452 α      lambda       -0.7568035E-05
   maximum displ.:     0.0811489 α      in ANC's #1, #3, #10, ...

........................................................................
.............................. CYCLE   42 ..............................
........................................................................
   1    -87.2090914 -0.872091E+02  0.186E-03    1.54       0.0  T
   2    -87.2090915 -0.889700E-07  0.903E-04    1.54      16.3  T
   3    -87.2090915 -0.133332E-07  0.431E-04    1.54      34.2  T
   4    -87.2090915 -0.171345E-08  0.959E-05    1.54     153.7  T
   5    -87.2090915 -0.578950E-10  0.333E-05    1.54     442.6  T
     SCC iter.                  ...        0 min,  0.031 sec
     gradient                   ...        0 min,  0.066 sec
 * total energy  :   -86.3667848 Eh     change       -0.7920088E-05 Eh
   gradient norm :     0.0010067 Eh/α   predicted    -0.3817620E-05 ( -51.80%)
   displ. norm   :     0.1613304 α      lambda       -0.6372261E-05
   maximum displ.:     0.0971504 α      in ANC's #1, #3, #10, ...
 * RMSD in coord.:     0.3333544 α      energy gain  -0.2378458E-03 Eh

generating ANC from model Hessian ...
Using Lindh-Hessian (1995)
 Shifting diagonal of input Hessian by   9.834068463345743E-003
 Lowest  eigenvalues of input Hessian
    0.000000    0.000000    0.000000    0.000000    0.000000    0.000000
    0.010000    0.010191    0.010255    0.010625    0.011339    0.012056
    0.012747    0.014056    0.014307    0.014938    0.016159    0.016587
 Highest eigenvalues
    2.184661    2.190433    2.247893    2.372169    2.397714    2.466292
 

........................................................................
.............................. CYCLE   43 ..............................
........................................................................
   1    -87.2086843 -0.872087E+02  0.217E-03    1.54       0.0  T
   2    -87.2086844 -0.704424E-07  0.106E-03    1.54      13.9  T
   3    -87.2086844 -0.724414E-08  0.473E-04    1.54      31.2  T
   4    -87.2086844 -0.327144E-08  0.118E-04    1.54     124.6  T
   5    -87.2086844 -0.101295E-09  0.468E-05    1.54     314.9  T
     SCC iter.                  ...        0 min,  0.018 sec
     gradient                   ...        0 min,  0.051 sec
 * total energy  :   -86.3667901 Eh     change       -0.5365588E-05 Eh
   gradient norm :     0.0012282 Eh/α   predicted     0.0000000E+00 (-100.00%)
   displ. norm   :     0.0182885 α      lambda       -0.5418721E-05
   maximum displ.:     0.0081834 α      in ANC's #14, #19, #2, ...

........................................................................
.............................. CYCLE   44 ..............................
........................................................................
   1    -87.2090378 -0.872090E+02  0.130E-03    1.54       0.0  T
   2    -87.2090378 -0.133346E-07  0.719E-04    1.54      20.5  T
   3    -87.2090378 -0.531060E-09  0.346E-04    1.54      42.6  T
   4    -87.2090378 -0.176510E-08  0.521E-05    1.54     283.1  T
   5    -87.2090378 -0.412825E-10  0.142E-05    1.54    1037.9  T
     SCC iter.                  ...        0 min,  0.030 sec
     gradient                   ...        0 min,  0.066 sec
 * total energy  :   -86.3667958 Eh     change       -0.5640044E-05 Eh
   gradient norm :     0.0004680 Eh/α   predicted    -0.2714629E-05 ( -51.87%)
   displ. norm   :     0.0388439 α      lambda       -0.5460969E-05
   maximum displ.:     0.0166842 α      in ANC's #14, #19, #2, ...

........................................................................
.............................. CYCLE   45 ..............................
........................................................................
   1    -87.2091479 -0.872091E+02  0.973E-04    1.54       0.0  T
   2    -87.2091479 -0.289847E-07  0.425E-04    1.54      34.7  T
   3    -87.2091479 -0.331727E-08  0.213E-04    1.54      69.1  T
   4    -87.2091479 -0.262887E-09  0.593E-05    1.54     248.7  T
   5    -87.2091479 -0.292744E-10  0.156E-05    1.54     945.1  T
     SCC iter.                  ...        0 min,  0.029 sec
     gradient                   ...        0 min,  0.064 sec
 * total energy  :   -86.3668021 Eh     change       -0.6365416E-05 Eh
   gradient norm :     0.0007451 Eh/α   predicted    -0.2733296E-05 ( -57.06%)
   displ. norm   :     0.0724685 α      lambda       -0.7119660E-05
   maximum displ.:     0.0306287 α      in ANC's #19, #14, #2, ...

........................................................................
.............................. CYCLE   46 ..............................
........................................................................
   1    -87.2090737 -0.872091E+02  0.144E-03    1.54       0.0  T
   2    -87.2090737 -0.501800E-07  0.625E-04    1.54      23.6  T
   3    -87.2090737 -0.499679E-08  0.314E-04    1.54      46.9  T
   4    -87.2090737 -0.919329E-09  0.719E-05    1.54     204.9  T
   5    -87.2090737 -0.489848E-10  0.240E-05    1.54     615.0  T
     SCC iter.                  ...        0 min,  0.029 sec
     gradient                   ...        0 min,  0.063 sec
 * total energy  :   -86.3668091 Eh     change       -0.6916573E-05 Eh
   gradient norm :     0.0007829 Eh/α   predicted    -0.3582170E-05 ( -48.21%)
   displ. norm   :     0.0441115 α      lambda       -0.2599740E-05
   maximum displ.:     0.0190619 α      in ANC's #19, #2, #4, ...

........................................................................
.............................. CYCLE   47 ..............................
........................................................................
   1    -87.2090486 -0.872090E+02  0.877E-04    1.54       0.0  T
   2    -87.2090487 -0.943361E-08  0.437E-04    1.54      33.8  T
   3    -87.2090487 -0.941924E-09  0.203E-04    1.54      72.5  T
   4    -87.2090487 -0.872518E-09  0.427E-05    1.54     345.1  T
   5    -87.2090487 -0.228084E-10  0.172E-05    1.54     858.8  T
     SCC iter.                  ...        0 min,  0.032 sec
     gradient                   ...        0 min,  0.065 sec
 * total energy  :   -86.3668119 Eh     change       -0.2886549E-05 Eh
   gradient norm :     0.0005544 Eh/α   predicted    -0.1301310E-05 ( -54.92%)
   displ. norm   :     0.0591944 α      lambda       -0.3188436E-05
   maximum displ.:     0.0235716 α      in ANC's #2, #19, #4, ...

   *** GEOMETRY OPTIMIZATION CONVERGED AFTER 47 ITERATIONS ***

------------------------------------------------------------------------
 total energy gain   :        -0.0303225 Eh      -19.0277 kcal/mol
 total RMSD          :         0.7133749 a0        0.3775 Å
 total power (kW/mol):        -1.6938677 (step)  -12.6050 (real)
------------------------------------------------------------------------

 ANCopt (total)                0 d,  0 h,  0 min,  6.316 sec
 optimizer setup                ...        0 min,  0.001 sec (  0.010%)
 model hessian                  ...        0 min,  0.070 sec (  1.116%)
 ANC generation                 ...        0 min,  0.010 sec (  0.155%)
 coordinate transformation      ...        0 min,  0.001 sec (  0.019%)
 single point calculation       ...        0 min,  6.217 sec ( 98.429%)
 optimization log               ...        0 min,  0.009 sec (  0.139%)
 hessian update                 ...        0 min,  0.001 sec (  0.017%)
 rational function              ...        0 min,  0.005 sec (  0.079%)

================
 final structure:
================
46
 xtb: 6.5.1 (579679a)
C           -5.97770629975967       -0.65975550432436       -1.83814336066920
O           -4.75968860761733       -0.34242184622146       -1.15282225467485
C           -4.63829098297433        0.89673103211713       -0.70256247726215
O           -5.49763541666196        1.74840050158172       -0.84558570860790
C           -3.36062679427109        1.16210667097453       -0.00148595214512
N           -2.45822576470970        0.14016340333174        0.08285510361833
C           -1.32574703808307        0.30724822312004        0.68320277310857
C           -0.43104775601079       -0.92350778799792        0.73438752940836
C           -0.48168925904935       -1.54190340209310        2.13808081253293
C           -0.90879072565403       -1.94662057299558       -0.30516079780658
N            0.94324026908984       -0.52908258154577        0.36366621711166
C            1.98239743248844       -1.36529352878921        0.42511017385423
O            2.01620076220785       -2.49614938693114        0.86720928961165
C            3.24289297159356       -0.76272598482854       -0.12224522351390
O            3.36278116306122        0.46451787120382       -0.60222429636182
C            4.64788217111941        0.58893815367145       -0.98211429492141
C            5.14756363167244        1.84537696927178       -1.56347043764802
N            5.30928557145836       -0.50996475310376       -0.75324963722599
N            4.41330543978131       -1.34994815291181       -0.21172698546395
C            4.79721647627443       -2.69125739026992        0.17933078653223
N           -0.99233296245130        1.49395903146135        1.28061707750878
C            0.25660321014279        1.75748561037394        1.99765404687064
C           -1.82459197114398        2.61664402058057        1.23025196525540
O           -1.47545046666811        3.66580187287655        1.74600694897184
C           -3.09171857054911        2.39530298541229        0.53673907558740
O           -3.91993559089830        3.43692857584051        0.47915741138992
H           -6.07902590175665       -0.03201797760760       -2.72625521134711
H           -6.83154520299254       -0.49475505512116       -1.17687535998162
H           -5.91012660222829       -1.70859746418987       -2.11919959099573
H           -0.00760302036670       -0.89794933892106        2.87456396098880
H            0.01855484013562       -2.50773944746652        2.14348234449848
H           -1.52547183450014       -1.68549701087007        2.41507161426175
H           -1.92519293419146       -2.25839403136424       -0.07144313479518
H           -0.89408205832505       -1.50244232819083       -1.29860173845815
H           -0.25359217521194       -2.81511922697948       -0.28959290632495
H            1.06314242735880        0.33131204034680       -0.14606230151977
H            5.07485238714925        2.64370049291800       -0.82330509397114
H            6.18355019679679        1.72347947464182       -1.87144504962896
H            4.53127750489339        2.12654156714656       -2.41796541339870
H            4.59490870966644       -2.81452294293747        1.24248444556724
H            4.19526127058997       -3.40348214804160       -0.38367848609710
H            5.85485076296672       -2.81670491284741       -0.03580462328767
H            0.86061641322009        2.44403553925495        1.40526206145860
H            0.00967964051834        2.23141236383668        2.94838618131725
H            0.80544658857036        0.84298684597963        2.17487528117770
H           -4.74139790468134        3.19278253061102       -0.00791176452743
 
 Bond Distances (Angstroems)
 ---------------------------
C1-O2=1.4332         C1-H27=1.0923        C1-H28=1.0925        C1-H29=1.0879        O2-C1=1.4332         O2-C3=1.3240         
C3-O2=1.3240         C3-O4=1.2183         C3-C5=1.4813         O4-C3=1.2183         C5-C3=1.4813         C5-N6=1.3659         
C5-C25=1.3721        N6-C5=1.3659         N6-C7=1.2926         C7-N6=1.2926         C7-C8=1.5225         C7-N21=1.3698        
C8-C7=1.5225         C8-C9=1.5347         C8-C10=1.5348        C8-N11=1.4770        C9-C8=1.5347         C9-H30=1.0871        
C9-H31=1.0877        C9-H32=1.0894        C10-C8=1.5348        C10-H33=1.0885       C10-H34=1.0883       C10-H35=1.0880       
N11-C8=1.4770        N11-C12=1.3352       N11-H36=1.0072       C12-N11=1.3352       C12-O13=1.2147       C12-C14=1.5005       
O13-C12=1.2147       C14-C12=1.5005       C14-O15=1.3232       C14-N19=1.3125       O15-C14=1.3232       O15-C16=1.3458       
C16-O15=1.3458       C16-C17=1.4718       C16-N18=1.3029       C17-C16=1.4718       C17-H37=1.0911       C17-H38=1.0876       
C17-H39=1.0904       N18-C16=1.3029       N18-N19=1.3422       N19-C14=1.3125       N19-N18=1.3422       N19-C20=1.4489       
C20-N19=1.4489       C20-H40=1.0892       C20-H41=1.0893       C20-H42=1.0866       N21-C7=1.3698        N21-C22=1.4640       
N21-C23=1.3984       C22-N21=1.4640       C22-H43=1.0895       C22-H44=1.0906       C22-H45=1.0812       C23-N21=1.3984       
C23-O24=1.2201       C23-C25=1.4614       O24-C23=1.2201       C25-C5=1.3721        C25-C23=1.4614       C25-O26=1.3320       
O26-C25=1.3320       O26-H46=0.9857       H27-C1=1.0923        H28-C1=1.0925        H29-C1=1.0879        H30-C9=1.0871        
H31-C9=1.0877        H32-C9=1.0894        H33-C10=1.0885       H34-C10=1.0883       H35-C10=1.0880       H36-N11=1.0072       
H37-C17=1.0911       H38-C17=1.0876       H39-C17=1.0904       H40-C20=1.0892       H41-C20=1.0893       H42-C20=1.0866       
H43-C22=1.0895       H44-C22=1.0906       H45-C22=1.0812       H46-O26=0.9857       
 C  H  Rav=1.0887 sigma=0.0025  Rmin=1.0812  Rmax=1.0925    18
 C  C  Rav=1.4849 sigma=0.0501  Rmin=1.3721  Rmax=1.5348     8
 N  H  Rav=1.0072 sigma=0.0000  Rmin=1.0072  Rmax=1.0072     1
 N  C  Rav=1.3767 sigma=0.0647  Rmin=1.2926  Rmax=1.4770    10
 N  N  Rav=1.3422 sigma=0.0000  Rmin=1.3422  Rmax=1.3422     1
 O  H  Rav=0.9857 sigma=0.0000  Rmin=0.9857  Rmax=0.9857     1
 O  C  Rav=1.3014 sigma=0.0727  Rmin=1.2147  Rmax=1.4332     8
 
 selected bond angles (degree)
 --------------------
H27-C1-O2=109.90               H28-C1-O2=109.96               H28-C1-H27=109.44              H29-C1-O2=106.51               
H29-C1-H27=110.47              H29-C1-H28=110.52              C3-O2-C1=116.60                O4-C3-O2=123.34                
C5-C3-O2=114.06                C5-C3-O4=122.60                N6-C5-C3=117.71                C25-C5-C3=121.04               
C25-C5-N6=121.25               C7-N6-C5=120.72                C8-C7-N6=115.21                N21-C7-N6=121.86               
N21-C7-C8=122.86               C9-C8-C7=109.70                C10-C8-C7=109.46               C10-C8-C9=109.91               
N11-C8-C7=108.81               N11-C8-C9=111.58               N11-C8-C10=107.32              H30-C9-C8=111.50               
H31-C9-C8=110.31               H31-C9-H30=108.79              H32-C9-C8=108.50               H32-C9-H30=108.88              
H32-C9-H31=108.80              H33-C10-C8=109.64              H34-C10-C8=110.00              H34-C10-H33=109.00             
H35-C10-C8=109.57              H35-C10-H33=109.30             H35-C10-H34=109.31             
 
 selected dihedral angles (degree)
 ---------------------------------
C3-O2-C1-H27= 61.18           C3-O2-C1-H28=300.64           C3-O2-C1-H29=180.87           O4-C3-O2-C1=  0.00            
C5-C3-O2-C1=179.87            N6-C5-C3-O2=  1.17            N6-C5-C3-O4=181.03            C25-C5-C3-O2=180.78           
C25-C5-C3-O4=  0.64           C7-N6-C5-C3=180.09            C7-N6-C5-C25=  0.48           C8-C7-N6-C5=178.50            
N21-C7-N6-C5=  1.38           C9-C8-C7-N6=256.41            C9-C8-C7-N21= 73.49           C10-C8-C7-N6= 17.09           
C10-C8-C7-N21=194.17          N11-C8-C7-N6=134.08           N11-C8-C7-N21=311.16          H30-C9-C8-C7=291.66           
H30-C9-C8-C10=171.26          H30-C9-C8-N11= 52.33          H31-C9-C8-C7=170.67           H31-C9-C8-C10= 50.26          
H31-C9-C8-N11=291.33          H32-C9-C8-C7= 51.57           H32-C9-C8-C10=291.17          H32-C9-C8-N11=172.24          
H33-C10-C8-C7=298.37          H33-C10-C8-C9= 58.92          H33-C10-C8-N11=180.44         H34-C10-C8-C7= 58.22          
H34-C10-C8-C9=178.77          H34-C10-C8-N11=300.29         H35-C10-C8-C7=178.41          H35-C10-C8-C9=298.96          
H35-C10-C8-N11= 60.48         
           -------------------------------------------------
          |                Final Singlepoint                |
           -------------------------------------------------

          ...................................................
          :                      SETUP                      :
          :.................................................:
          :  # basis functions                 144          :
          :  # atomic orbitals                 144          :
          :  # shells                           92          :
          :  # electrons                       140          :
          :  # halogen bonds                     0          :
          :  max. iterations                   250          :
          :  Hamiltonian                  GFN1-xTB          :
          :  restarted?                      false          :
          :  GBSA solvation                   true          :
          :  PC potential                    false          :
          :  electronic temp.          300.0000000     K    :
          :  accuracy                    1.0000000          :
          :  -> integral cutoff          0.2500000E+02      :
          :  -> integral neglect         0.1000000E-07      :
          :  -> SCF convergence          0.1000000E-05 Eh   :
          :  -> wf. convergence          0.2000000E-04 e    :
          :  Broyden damping             0.4000000          :
          ...................................................

 iter      E             dE          RMSdq      gap      omega  full diag
   1    -87.2090487 -0.872090E+02  0.537E-06    1.54       0.0  T
   2    -87.2090487 -0.341061E-12  0.273E-06    1.54    5410.2  T
   3    -87.2090487  0.284217E-13  0.113E-06    1.54   12996.8  T

   *** convergence criteria satisfied after 3 iterations ***

         #    Occupation            Energy/Eh            Energy/eV
      -------------------------------------------------------------
         1        2.0000           -0.9394011             -25.5624
       ...           ...                  ...                  ...
        64        2.0000           -0.5018814             -13.6569
        65        2.0000           -0.4933712             -13.4253
        66        2.0000           -0.4859574             -13.2236
        67        2.0000           -0.4805402             -13.0762
        68        2.0000           -0.4659429             -12.6790
        69        2.0000           -0.4514198             -12.2838
        70        2.0000           -0.4342738             -11.8172 (HOMO)
        71                         -0.3777901             -10.2802 (LUMO)
        72                         -0.3305229              -8.9940
        73                         -0.3248617              -8.8399
        74                         -0.2928804              -7.9697
        75                         -0.2584534              -7.0329
       ...                                ...                  ...
       144                          0.7149828              19.4557
      -------------------------------------------------------------
                  HL-Gap            0.0564838 Eh            1.5370 eV
             Fermi-level           -0.4060320 Eh          -11.0487 eV

 SCC (total)                   0 d,  0 h,  0 min,  0.106 sec
 SCC setup                      ...        0 min,  0.002 sec (  1.709%)
 Dispersion                     ...        0 min,  0.000 sec (  0.254%)
 classical contributions        ...        0 min,  0.000 sec (  0.088%)
 integral evaluation            ...        0 min,  0.028 sec ( 26.028%)
 iterations                     ...        0 min,  0.018 sec ( 17.206%)
 molecular gradient             ...        0 min,  0.057 sec ( 53.406%)
 printout                       ...        0 min,  0.001 sec (  1.293%)

         :::::::::::::::::::::::::::::::::::::::::::::::::::::
         ::                     SUMMARY                     ::
         :::::::::::::::::::::::::::::::::::::::::::::::::::::
         :: total energy             -86.366811942539 Eh    ::
         :: total w/o Gsasa/hb       -86.341338863165 Eh    ::
         :: gradient norm              0.000554713659 Eh/a0 ::
         :: HOMO-LUMO gap              1.537001158357 eV    ::
         ::.................................................::
         :: SCC energy               -87.209048657092 Eh    ::
         :: -> electrostatic           0.426978035713 Eh    ::
         :: -> Gsolv                  -0.116331519147 Eh    ::
         ::    -> Gelec               -0.090858439773 Eh    ::
         ::    -> Gsasa               -0.025656549539 Eh    ::
         ::    -> Ghb                 -0.007440808840 Eh    ::
         ::    -> Gshift               0.007624279005 Eh    ::
         :: repulsion energy           0.870923310486 Eh    ::
         :: dispersion energy         -0.028686595933 Eh    ::
         :: halogen bond corr.         0.000000000000 Eh    ::
         :: add. restraining           0.000000000000 Eh    ::
         :: total charge               1.000000000000 e     ::
         :::::::::::::::::::::::::::::::::::::::::::::::::::::

           -------------------------------------------------
          |                Property Printout                |
           -------------------------------------------------

    * Orbital Energies and Occupations

         #    Occupation            Energy/Eh            Energy/eV
      -------------------------------------------------------------
         1        2.0000           -0.9394011             -25.5624
       ...           ...                  ...                  ...
        58        2.0000           -0.5276395             -14.3578
        59        2.0000           -0.5223169             -14.2130
        60        2.0000           -0.5186901             -14.1143
        61        2.0000           -0.5184290             -14.1072
        62        2.0000           -0.5154925             -14.0273
        63        2.0000           -0.5025501             -13.6751
        64        2.0000           -0.5018814             -13.6569
        65        2.0000           -0.4933712             -13.4253
        66        2.0000           -0.4859574             -13.2236
        67        2.0000           -0.4805402             -13.0762
        68        2.0000           -0.4659429             -12.6790
        69        2.0000           -0.4514198             -12.2838
        70        2.0000           -0.4342738             -11.8172 (HOMO)
        71                         -0.3777901             -10.2802 (LUMO)
        72                         -0.3305229              -8.9940
        73                         -0.3248617              -8.8399
        74                         -0.2928804              -7.9697
        75                         -0.2584534              -7.0329
        76                         -0.2472471              -6.7279
        77                         -0.1696766              -4.6171
        78                         -0.1676531              -4.5621
        79                         -0.1644272              -4.4743
        80                         -0.1500705              -4.0836
        81                         -0.1396262              -3.7994
       ...                                ...                  ...
       144                          0.7149828              19.4557
      -------------------------------------------------------------
                  HL-Gap            0.0564838 Eh            1.5370 eV
             Fermi-level           -0.4060320 Eh          -11.0487 eV

  Mulliken/CM5 charges         n(s)   n(p)   n(d)
     1C     0.16108  0.04020   0.983  2.856  0.000
     2O    -0.40060 -0.48354   1.683  4.718  0.000
     3C     0.57564  0.64039   0.968  2.456  0.000
     4O    -0.56916 -0.63323   1.725  4.844  0.000
     5C     0.06486  0.14193   1.040  2.895  0.000
     6N    -0.36545 -0.55425   1.523  3.843  0.000
     7C     0.26536  0.41765   1.016  2.719  0.000
     8C     0.15169  0.19009   1.071  2.777  0.000
     9C    -0.10834 -0.24905   1.022  3.086  0.000
    10C    -0.10134 -0.23883   1.021  3.080  0.000
    11N    -0.32037 -0.68184   1.439  3.882  0.000
    12C     0.48311  0.59297   0.961  2.555  0.000
    13O    -0.54146 -0.59280   1.720  4.821  0.000
    14C     0.34947  0.47132   1.019  2.632  0.000
    15O    -0.30494 -0.36199   1.679  4.626  0.000
    16C     0.41571  0.52353   1.018  2.566  0.000
    17C    -0.10908 -0.24623   1.017  3.092  0.000
    18N    -0.22064 -0.33797   1.549  3.671  0.000
    19N     0.05535 -0.14417   1.431  3.514  0.000
    20C     0.03161 -0.04935   1.004  2.965  0.000
    21N    -0.22033 -0.46842   1.457  3.764  0.000
    22C     0.04457 -0.04333   0.994  2.961  0.000
    23C     0.44747  0.54925   0.987  2.566  0.000
    24O    -0.56738 -0.61065   1.726  4.842  0.000
    25C     0.23919  0.27358   1.027  2.733  0.000
    26O    -0.50153 -0.68975   1.695  4.807  0.000
    27H     0.05764  0.11930   0.942  0.000  0.000
    28H     0.05787  0.11966   0.942  0.000  0.000
    29H     0.05715  0.11747   0.943  0.000  0.000
    30H     0.05375  0.11153   0.946  0.000  0.000
    31H     0.07181  0.13226   0.928  0.000  0.000
    32H     0.05808  0.11337   0.942  0.000  0.000
    33H     0.05794  0.11704   0.942  0.000  0.000
    34H     0.05086  0.11004   0.949  0.000  0.000
    35H     0.05979  0.11944   0.940  0.000  0.000
    36H     0.27821  0.48534   0.722  0.000  0.000
    37H     0.11037  0.16479   0.890  0.000  0.000
    38H     0.09636  0.15211   0.904  0.000  0.000
    39H     0.10858  0.16321   0.891  0.000  0.000
    40H     0.10555  0.17156   0.894  0.000  0.000
    41H     0.10517  0.17085   0.895  0.000  0.000
    42H     0.10004  0.16708   0.900  0.000  0.000
    43H     0.07124  0.13693   0.929  0.000  0.000
    44H     0.08258  0.15004   0.917  0.000  0.000
    45H     0.05246  0.12571   0.948  0.000  0.000
    46H     0.41008  0.59676   0.590  0.000  0.000

Wiberg/Mayer (AO) data.
largest (>0.10) Wiberg bond orders for each atom

 ---------------------------------------------------------------------------
     #   Z sym  total        # sym  WBO       # sym  WBO       # sym  WBO
 ---------------------------------------------------------------------------
     1   6 C    3.864 --    29 H    0.986    27 H    0.979    28 H    0.979
                             2 O    0.890
     2   8 O    2.218 --     3 C    1.138     1 C    0.890     4 O    0.131
     3   6 C    3.849 --     4 O    1.609     2 O    1.138     5 C    1.017
     4   8 O    1.945 --     3 C    1.609     2 O    0.131
     5   6 C    3.962 --    25 C    1.475     6 N    1.186     3 C    1.017
     6   7 N    3.033 --     7 C    1.573     5 C    1.186
     7   6 C    3.936 --     6 N    1.573    21 N    1.175     8 C    0.977
     8   6 C    3.912 --    10 C    0.986     9 C    0.981     7 C    0.977
                            11 N    0.899
     9   6 C    3.984 --    32 H    0.983     8 C    0.981    30 H    0.979
                            31 H    0.977
    10   6 C    3.984 --     8 C    0.986    34 H    0.984    35 H    0.983
                            33 H    0.981
    11   7 N    3.396 --    12 C    1.303     8 C    0.899    36 H    0.889
                            13 O    0.198
    12   6 C    3.929 --    13 O    1.589    11 N    1.303    14 C    0.958
    13   8 O    1.946 --    12 C    1.589    11 N    0.198
    14   6 C    3.843 --    19 N    1.454    15 O    1.127    12 C    0.958
    15   8 O    2.370 --    14 C    1.127    16 C    1.067
    16   6 C    3.838 --    18 N    1.570    15 O    1.067    17 C    1.044
    17   6 C    3.969 --    16 C    1.044    38 H    0.977    39 H    0.951
                            37 H    0.946
    18   7 N    2.967 --    16 C    1.570    19 N    1.162
    19   7 N    3.662 --    14 C    1.454    18 N    1.162    20 C    0.908
    20   6 C    3.878 --    42 H    0.980    40 H    0.962    41 H    0.962
                            19 N    0.908
    21   7 N    3.499 --     7 C    1.175    23 C    1.101    22 C    0.930
                            24 O    0.136
    22   6 C    3.922 --    45 H    0.979    43 H    0.975    44 H    0.973
                            21 N    0.930
    23   6 C    3.911 --    24 O    1.595    21 N    1.101    25 C    1.067
    24   8 O    1.909 --    23 C    1.595    21 N    0.136
    25   6 C    3.923 --     5 C    1.475    26 O    1.130    23 C    1.067
    26   8 O    2.098 --    25 C    1.130    46 H    0.776
    27   1 H    1.006 --     1 C    0.979
    28   1 H    1.006 --     1 C    0.979
    29   1 H    1.010 --     1 C    0.986
    30   1 H    1.000 --     9 C    0.979
    31   1 H    1.006 --     9 C    0.977
    32   1 H    1.000 --     9 C    0.983
    33   1 H    1.010 --    10 C    0.981
    34   1 H    1.005 --    10 C    0.984
    35   1 H    1.002 --    10 C    0.983
    36   1 H    0.928 --    11 N    0.889
    37   1 H    0.988 --    17 C    0.946
    38   1 H    0.990 --    17 C    0.977
    39   1 H    0.988 --    17 C    0.951
    40   1 H    0.998 --    20 C    0.962
    41   1 H    0.997 --    20 C    0.962
    42   1 H    0.994 --    20 C    0.980
    43   1 H    1.001 --    22 C    0.975
    44   1 H    1.004 --    22 C    0.973
    45   1 H    1.007 --    22 C    0.979
    46   1 H    0.850 --    26 O    0.776
 ---------------------------------------------------------------------------

Topologies differ in total number of bonds
Writing topology from bond orders to xtbtopo.mol

 dipole moment from electron density (au)
     X       Y       Z   
   6.9831  -2.0112  -1.6868  total (Debye):   18.962

           -------------------------------------------------
          |                Geometry Summary                 |
           -------------------------------------------------

      molecular mass/u    :      366.3497991
   center of mass at/Å    :       -0.2234376       0.2886848       0.1346644
  moments of inertia/u·Å² :        0.1368023E+04   0.5090638E+04   0.5653673E+04
rotational constants/cm⁻¹ :        0.1232262E-01   0.3311497E-02   0.2981713E-02

 * 43 selected distances

     #   Z          #   Z                                           value/Å
     1   6 C        2   8 O                                       1.4331550
     2   8 O        3   6 C                                       1.3239983
     3   6 C        4   8 O                                       1.2183061
     5   6 C        6   7 N                                       1.3659463
     6   7 N        7   6 C                                       1.2926109
     8   6 C        9   6 C                                       1.5347094
     8   6 C       10   6 C                                       1.5348157 (max)
     8   6 C       11   7 N                                       1.4770489
    11   7 N       12   6 C                                       1.3352423
    12   6 C       13   8 O                                       1.2146726
    14   6 C       15   8 O                                       1.3232086
    15   8 O       16   6 C                                       1.3458387
    16   6 C       17   6 C                                       1.4718340
    16   6 C       18   7 N                                       1.3028513
    14   6 C       19   7 N                                       1.3125176
    18   7 N       19   7 N                                       1.3422368
    19   7 N       20   6 C                                       1.4489392
     7   6 C       21   7 N                                       1.3697999
    21   7 N       22   6 C                                       1.4640458
    21   7 N       23   6 C                                       1.3984326
    23   6 C       24   8 O                                       1.2200965
     5   6 C       25   6 C                                       1.3721411
    25   6 C       26   8 O                                       1.3320072
     1   6 C       27   1 H                                       1.0922742
     1   6 C       28   1 H                                       1.0924933
     1   6 C       29   1 H                                       1.0879473
     9   6 C       30   1 H                                       1.0871257
     9   6 C       31   1 H                                       1.0877099
     9   6 C       32   1 H                                       1.0894151
    10   6 C       33   1 H                                       1.0885313
    10   6 C       34   1 H                                       1.0883179
    10   6 C       35   1 H                                       1.0880338
    11   7 N       36   1 H                                       1.0072134
    17   6 C       37   1 H                                       1.0910785
    17   6 C       38   1 H                                       1.0876469
    17   6 C       39   1 H                                       1.0904238
    20   6 C       40   1 H                                       1.0892285
    20   6 C       41   1 H                                       1.0893089
    20   6 C       42   1 H                                       1.0865592
    22   6 C       43   1 H                                       1.0895463
    22   6 C       44   1 H                                       1.0906281
    22   6 C       45   1 H                                       1.0811774
    26   8 O       46   1 H                                       0.9857201 (min)

 * 7 distinct bonds (by element types)

   Z      Z             #   av. dist./Å        max./Å        min./Å
   1 H    6 C          18     1.0887470     1.0924933     1.0811774
   6 C    6 C           4     1.4783751     1.5348157     1.3721411
   1 H    7 N           1     1.0072134     1.0072134     1.0072134
   6 C    7 N          10     1.3767435     1.4770489     1.2926109
   7 N    7 N           1     1.3422368     1.3422368     1.3422368
   1 H    8 O           1     0.9857201     0.9857201     0.9857201
   6 C    8 O           8     1.3014104     1.4331550     1.2146726


optimized geometry written to: xtbopt.xyz


           -------------------------------------------------
          | TOTAL ENERGY              -86.366811942539 Eh   |
          | GRADIENT NORM               0.000554713659 Eh/α |
          | HOMO-LUMO GAP               1.537001158357 eV   |
           -------------------------------------------------

------------------------------------------------------------------------
 * finished run on 2023/06/20 at 15:40:54.467     
------------------------------------------------------------------------
 total:
 * wall-time:     0 d,  0 h,  0 min,  6.679 sec
 *  cpu-time:     0 d,  0 h,  0 min,  6.648 sec
 * ratio c/w:     0.995 speedup
 SCF:
 * wall-time:     0 d,  0 h,  0 min,  0.196 sec
 *  cpu-time:     0 d,  0 h,  0 min,  0.182 sec
 * ratio c/w:     0.932 speedup
 ANC optimizer:
 * wall-time:     0 d,  0 h,  0 min,  6.427 sec
 *  cpu-time:     0 d,  0 h,  0 min,  6.422 sec
 * ratio c/w:     0.999 speedup

