21
 energy: -30.778814971857 gnorm: 0.000529922914 xtb: 6.5.1 (579679a)
C           -0.45047610316158       -1.96600582470208       -0.04530230523514
C            0.08410434923467       -0.54424496970684       -0.09427815323076
C           -1.48871104219192        0.46714106285460       -0.27297581950851
N           -2.38386096705333        0.12426371454181        0.66736917303713
C            0.58096771090323        0.01870009755985        1.12981411942938
C            1.49428364904666        1.04461106613014        1.13036507766159
C            2.01512199241018        1.47088296425041       -0.08971484694184
F            2.90079404474039        2.44875531648967       -0.09174523864338
C            1.66281675503092        0.88744180323023       -1.30535356231271
C            0.75106997229771       -0.13989339785162       -1.30072252295646
H           -1.08276899943509       -2.10510039861626        0.82897402055210
H           -1.01873286005443       -2.19814927250774       -0.94400095510272
H            0.39214774986319       -2.65449256280699        0.02261444104347
H           -1.77040237116498        0.16825063843454       -1.27639074807489
H           -1.10175138696099        1.47655461126078       -0.19392424140807
H           -2.91552826628977       -0.72149550539490        0.56440986387863
H           -2.28817807805559        0.47422653836323        1.60423021825241
H            0.17218775329797       -0.34586341794790        2.06414157069271
H            1.83295193438186        1.50067460996376        2.05183815130431
H            2.13258329652430        1.22421588669589       -2.22086320981695
H            0.48138186663642       -0.63047496024060       -2.22848703262044
