      -----------------------------------------------------------      
     |                   =====================                   |     
     |                           x T B                           |     
     |                   =====================                   |     
     |                         S. Grimme                         |     
     |          Mulliken Center for Theoretical Chemistry        |     
     |                    University of Bonn                     |     
      -----------------------------------------------------------      

   * xtb version 6.5.1 (579679a) compiled by 'ehlert@majestix' on 2022-07-11

   xtb is free software: you can redistribute it and/or modify it under
   the terms of the GNU Lesser General Public License as published by
   the Free Software Foundation, either version 3 of the License, or
   (at your option) any later version.
   
   xtb is distributed in the hope that it will be useful,
   but WITHOUT ANY WARRANTY; without even the implied warranty of
   MERCHANTABILITY or FITNESS FOR A PARTICULAR PURPOSE.  See the
   GNU Lesser General Public License for more details.
   
   Cite this work as:
   * C. Bannwarth, E. Caldeweyher, S. Ehlert, A. Hansen, P. Pracht,
     J. Seibert, S. Spicher, S. Grimme, WIREs Comput. Mol. Sci., 2020, 11,
     e01493. DOI: 10.1002/wcms.1493
   
   for GFN2-xTB:
   * C. Bannwarth, S. Ehlert and S. Grimme., J. Chem. Theory Comput., 2019,
     15, 1652-1671. DOI: 10.1021/acs.jctc.8b01176
   for GFN1-xTB:
   * S. Grimme, C. Bannwarth, P. Shushkov, J. Chem. Theory Comput., 2017,
     13, 1989-2009. DOI: 10.1021/acs.jctc.7b00118
   for GFN0-xTB:
   * P. Pracht, E. Caldeweyher, S. Ehlert, S. Grimme, ChemRxiv, 2019, preprint.
     DOI: 10.26434/chemrxiv.8326202.v1
   for GFN-FF:
   * S. Spicher and S. Grimme, Angew. Chem. Int. Ed., 2020, 59, 15665-15673.
     DOI: 10.1002/anie.202004239
   
   for ALPB and GBSA implicit solvation:
   * S. Ehlert, M. Stahn, S. Spicher, S. Grimme, J. Chem. Theory Comput.,
     2021, 17, 4250-4261. DOI: 10.1021/acs.jctc.1c00471
   
   for DFT-D4:
   * E. Caldeweyher, C. Bannwarth and S. Grimme, J. Chem. Phys., 2017,
     147, 034112. DOI: 10.1063/1.4993215
   * E. Caldeweyher, S. Ehlert, A. Hansen, H. Neugebauer, S. Spicher,
     C. Bannwarth and S. Grimme, J. Chem. Phys., 2019, 150, 154122.
     DOI: 10.1063/1.5090222
   * E. Caldeweyher, J.-M. Mewes, S. Ehlert and S. Grimme, Phys. Chem. Chem. Phys.
     2020, 22, 8499-8512. DOI: 10.1039/D0CP00502A
   
   for sTDA-xTB:
   * S. Grimme and C. Bannwarth, J. Chem. Phys., 2016, 145, 054103.
     DOI: 10.1063/1.4959605
   
   in the mass-spec context:
   * V. Asgeirsson, C. Bauer and S. Grimme, Chem. Sci., 2017, 8, 4879.
     DOI: 10.1039/c7sc00601b
   * J. Koopman and S. Grimme, ACS Omega 2019, 4, 12, 15120-15133.
     DOI: 10.1021/acsomega.9b02011
   
   for metadynamics refer to:
   * S. Grimme, J. Chem. Theory Comput., 2019, 155, 2847-2862
     DOI: 10.1021/acs.jctc.9b00143
   
   for SPH calculations refer to:
   * S. Spicher and S. Grimme, J. Chem. Theory Comput., 2021, 17, 1701-1714
     DOI: 10.1021/acs.jctc.0c01306
   
   with help from (in alphabetical order)
   P. Atkinson, C. Bannwarth, F. Bohle, G. Brandenburg, E. Caldeweyher
   M. Checinski, S. Dohm, S. Ehlert, S. Ehrlich, I. Gerasimov, C. Hölzer
   A. Katbashev, J. Koopman, C. Lavigne, S. Lehtola, F. März, M. Müller,
   F. Musil, H. Neugebauer, J. Pisarek, C. Plett, P. Pracht, F. Pultar,
   J. Seibert, P. Shushkov, S. Spicher, M. Stahn, M. Steiner, T. Strunk,
   J. Stückrath, T. Rose, and J. Unsleber
   
 * started run on 2023/06/20 at 18:31:12.435     

           -------------------------------------------------
          |                Calculation Setup                |
           -------------------------------------------------

          program call               : /lustre/hpc/kemi/ree/PhD/git/ReactivityQM/dep/xtb-6.5.1/bin/xtb --gfn 1 /lustre/hpc/kemi/ree/PhD/git/ReactivityQM/calculations/R02deprot/reac01prodN19/conf15/R02deprot_reac01prodN19_conf15_gfn1.xyz --opt --vfukui --chrg 0 --uhf 0 --alpb DMSO
          hostname                   : node308
          coordinate file            : /lustre/hpc/kemi/ree/PhD/git/ReactivityQM/calculations/R02deprot/reac01prodN19/conf15/R02deprot_reac01prodN19_conf15_gfn1.xyz
          omp threads                :                     1

   ID    Z sym.   atoms
    1    6 C      1, 3, 5, 7-10, 12, 14, 17, 18, 21, 23, 24
    2    8 O      2, 4, 13, 19, 22, 25
    3    7 N      6, 11, 15, 16, 20
    4    1 H      26-42

           -------------------------------------------------
          |                 G F N 1 - x T B                 |
           -------------------------------------------------

        Reference                      10.1021/acs.jctc.7b00118
      * Hamiltonian:
        H0-scaling (s, p, d)           1.850000    2.250000    2.000000
        zeta-weighting                 0.000000
      * Dispersion:
        s8                             2.400000
        a1                             0.630000
        a2                             5.000000
        s9                             0.000000
      * Repulsion:
        kExp                           1.500000
        rExp                           1.000000
      * Coulomb:
        alpha                          2.000000
        third order                    atomic
        anisotropic                    false
      * Halogen bond correction:
        rad-scale                      1.300000
        damping                        0.440000

      * Solvation model:               ALPB
        Solvent                        DMSO
        Parameter file                 internal GFN1-xTB/ALPB
        Dielectric constant                4.6680E+01
        Reference state                gsolv [1 M gas/solution]
        Free energy shift                  7.6243E-03 Eh       4.7843E+00 kcal/mol
        Temperature                        2.9815E+02 K
        Density                            1.1000E+00 kg/L
        Solvent mass                       7.8130E+01 g/mol
        Interaction kernel             P16
        Born radius scaling (c1)           1.7672E+00
        Born radii integrator          GBOBC
        Born offset                        0.0000E+00 a0       0.0000E+00 AA
        H-bond correction              true
        Ion screening                  false
        Surface tension                    1.0000E-05 Eh       1.5569E+01 dyn/cm
        Grid points                               230 per atom

          ...................................................
          :                      SETUP                      :
          :.................................................:
          :  # basis functions                 134          :
          :  # atomic orbitals                 134          :
          :  # shells                           84          :
          :  # electrons                       134          :
          :  # halogen bonds                     0          :
          :  max. iterations                   250          :
          :  Hamiltonian                  GFN1-xTB          :
          :  restarted?                      false          :
          :  GBSA solvation                   true          :
          :  PC potential                    false          :
          :  electronic temp.          300.0000000     K    :
          :  accuracy                    1.0000000          :
          :  -> integral cutoff          0.2500000E+02      :
          :  -> integral neglect         0.1000000E-07      :
          :  -> SCF convergence          0.1000000E-05 Eh   :
          :  -> wf. convergence          0.2000000E-04 e    :
          :  Broyden damping             0.4000000          :
          ...................................................

 iter      E             dE          RMSdq      gap      omega  full diag
   1    -83.4958026 -0.834958E+02  0.840E+00    3.05       0.0  T
   2    -83.7337523 -0.237950E+00  0.504E+00    2.64       1.0  T
   3    -83.7225229  0.112294E-01  0.146E+00    2.71       1.0  T
   4    -83.7462271 -0.237042E-01  0.144E-01    2.66       1.0  T
   5    -83.7467777 -0.550597E-03  0.372E-02    2.68       1.0  T
   6    -83.7468048 -0.270173E-04  0.117E-02    2.69       1.3  T
   7    -83.7468071 -0.236804E-05  0.361E-03    2.69       4.3  T
   8    -83.7468074 -0.314987E-06  0.853E-04    2.69      18.1  T
   9    -83.7468075 -0.162353E-07  0.301E-04    2.69      51.3  T
  10    -83.7468075 -0.862116E-09  0.920E-05    2.69     167.7  T
  11    -83.7468075 -0.126192E-09  0.156E-05    2.69     989.4  T

   *** convergence criteria satisfied after 11 iterations ***

         #    Occupation            Energy/Eh            Energy/eV
      -------------------------------------------------------------
         1        2.0000           -0.8644464             -23.5228
       ...           ...                  ...                  ...
        61        2.0000           -0.4734486             -12.8832
        62        2.0000           -0.4586030             -12.4792
        63        2.0000           -0.4530900             -12.3292
        64        2.0000           -0.4446909             -12.1007
        65        2.0000           -0.4412839             -12.0079
        66        2.0000           -0.4374731             -11.9042
        67        2.0000           -0.4352509             -11.8438 (HOMO)
        68                         -0.3363626              -9.1529 (LUMO)
        69                         -0.3155426              -8.5864
        70                         -0.2892744              -7.8716
        71                         -0.2595256              -7.0621
        72                         -0.2517353              -6.8501
       ...                                ...                  ...
       134                          0.6929493              18.8561
      -------------------------------------------------------------
                  HL-Gap            0.0988883 Eh            2.6909 eV
             Fermi-level           -0.3858067 Eh          -10.4983 eV

 SCC (total)                   0 d,  0 h,  0 min,  0.246 sec
 SCC setup                      ...        0 min,  0.002 sec (  0.854%)
 Dispersion                     ...        0 min,  0.000 sec (  0.163%)
 classical contributions        ...        0 min,  0.000 sec (  0.052%)
 integral evaluation            ...        0 min,  0.067 sec ( 27.288%)
 iterations                     ...        0 min,  0.078 sec ( 31.869%)
 molecular gradient             ...        0 min,  0.097 sec ( 39.416%)
 printout                       ...        0 min,  0.001 sec (  0.344%)

         :::::::::::::::::::::::::::::::::::::::::::::::::::::
         ::                     SUMMARY                     ::
         :::::::::::::::::::::::::::::::::::::::::::::::::::::
         :: total energy             -82.989528021121 Eh    ::
         :: total w/o Gsasa/hb       -82.965528360621 Eh    ::
         :: gradient norm              0.129818544894 Eh/a0 ::
         :: HOMO-LUMO gap              2.690888261680 eV    ::
         ::.................................................::
         :: SCC energy               -83.746807456699 Eh    ::
         :: -> electrostatic           0.318037804761 Eh    ::
         :: -> Gsolv                  -0.048104167986 Eh    ::
         ::    -> Gelec               -0.024104507485 Eh    ::
         ::    -> Gsasa               -0.025801220102 Eh    ::
         ::    -> Ghb                 -0.005822719403 Eh    ::
         ::    -> Gshift               0.007624279005 Eh    ::
         :: repulsion energy           0.781859929714 Eh    ::
         :: dispersion energy         -0.024580494136 Eh    ::
         :: halogen bond corr.         0.000000000000 Eh    ::
         :: add. restraining           0.000000000000 Eh    ::
         :: total charge               0.000000000000 e     ::
         :::::::::::::::::::::::::::::::::::::::::::::::::::::

      ----------------------------------------------------------- 
     |                   =====================                   |
     |                        A N C O P T                        |
     |                   =====================                   |
     |               Approximate Normal Coordinate               |
     |                Rational Function Optimizer                |
      ----------------------------------------------------------- 

          ...................................................
          :                      SETUP                      :
          :.................................................:
          :   optimization level            normal          :
          :   max. optcycles                   200          :
          :   ANC micro-cycles                  20          :
          :   degrees of freedom               120          :
          :.................................................:
          :   RF solver                   davidson          :
          :   write xtbopt.log                true          :
          :   linear?                        false          :
          :   energy convergence         0.5000000E-05 Eh   :
          :   grad. convergence          0.1000000E-02 Eh/α :
          :   maximium RF displ.         1.0000000          :
          :   Hlow (freq-cutoff)         0.1000000E-01      :
          :   Hmax (freq-cutoff)         5.0000000          :
          :   S6 in model hess.         20.0000000          :
          ...................................................

generating ANC from model Hessian ...
Using Lindh-Hessian (1995)
 Shifting diagonal of input Hessian by   9.841659795465413E-003
 Lowest  eigenvalues of input Hessian
    0.000000    0.000000    0.000000    0.000000    0.000000    0.000000
    0.010000    0.010134    0.010616    0.011134    0.011255    0.012424
    0.012505    0.013255    0.014011    0.014495    0.015964    0.016327
 Highest eigenvalues
    2.028070    2.138675    2.144905    2.225809    2.332967    2.344062
 

........................................................................
.............................. CYCLE    1 ..............................
........................................................................
   1    -83.7468075 -0.837468E+02  0.649E-06    2.69       0.0  T
   2    -83.7468075 -0.738964E-12  0.352E-06    2.69    4377.7  T
   3    -83.7468075 -0.568434E-13  0.155E-06    2.69    9951.3  T
     SCC iter.                  ...        0 min,  0.011 sec
     gradient                   ...        0 min,  0.079 sec
 * total energy  :   -82.9895280 Eh     change       -0.6551204E-11 Eh
   gradient norm :     0.1298185 Eh/α   predicted     0.0000000E+00 (-100.00%)
   displ. norm   :     0.3747115 α      lambda       -0.1920653E-01
   maximum displ.:     0.1419670 α      in ANC's #9, #30, #16, ...

........................................................................
.............................. CYCLE    2 ..............................
........................................................................
   1    -83.7663449 -0.837663E+02  0.101E-01    2.76       0.0  T
   2    -83.7668559 -0.510952E-03  0.500E-02    2.73       1.0  T
   3    -83.7669346 -0.787256E-04  0.182E-02    2.74       1.0  T
   4    -83.7669345  0.103700E-06  0.767E-03    2.74       2.0  T
   5    -83.7669352 -0.650716E-06  0.148E-03    2.74      10.4  T
   6    -83.7669352 -0.526850E-07  0.513E-04    2.74      30.1  T
   7    -83.7669352 -0.335679E-08  0.120E-04    2.74     128.7  T
   8    -83.7669352 -0.159730E-09  0.224E-05    2.74     687.4  T
     SCC iter.                  ...        0 min,  0.027 sec
     gradient                   ...        0 min,  0.113 sec
 * total energy  :   -83.0034832 Eh     change       -0.1395520E-01 Eh
   gradient norm :     0.0680766 Eh/α   predicted    -0.1097518E-01 ( -21.35%)
   displ. norm   :     0.3399705 α      lambda       -0.8556034E-02
   maximum displ.:     0.1391047 α      in ANC's #30, #6, #9, ...

........................................................................
.............................. CYCLE    3 ..............................
........................................................................
   1    -83.7778066 -0.837778E+02  0.108E-01    2.76       0.0  T
   2    -83.7783982 -0.591611E-03  0.516E-02    2.73       1.0  T
   3    -83.7784912 -0.930542E-04  0.178E-02    2.74       1.0  T
   4    -83.7784913 -0.438241E-07  0.857E-03    2.74       1.8  T
   5    -83.7784919 -0.627461E-06  0.156E-03    2.74       9.9  T
   6    -83.7784920 -0.643659E-07  0.509E-04    2.74      30.3  T
   7    -83.7784920 -0.334303E-08  0.148E-04    2.74     104.0  T
   8    -83.7784920 -0.237563E-09  0.280E-05    2.74     551.7  T
     SCC iter.                  ...        0 min,  0.059 sec
     gradient                   ...        0 min,  0.137 sec
 * total energy  :   -83.0084183 Eh     change       -0.4935050E-02 Eh
   gradient norm :     0.0198734 Eh/α   predicted    -0.4772474E-02 (  -3.29%)
   displ. norm   :     0.2627517 α      lambda       -0.1388974E-02
   maximum displ.:     0.1301573 α      in ANC's #7, #6, #9, ...

........................................................................
.............................. CYCLE    4 ..............................
........................................................................
   1    -83.7782402 -0.837782E+02  0.178E-02    2.74       0.0  T
   2    -83.7782499 -0.968987E-05  0.805E-03    2.74       1.9  T
   3    -83.7782509 -0.105786E-05  0.408E-03    2.74       3.8  T
   4    -83.7782510 -0.254522E-07  0.120E-03    2.74      12.8  T
   5    -83.7782510 -0.147461E-07  0.256E-04    2.74      60.3  T
   6    -83.7782510 -0.158317E-08  0.850E-05    2.74     181.5  T
   7    -83.7782510 -0.181430E-09  0.331E-05    2.74     466.6  T
     SCC iter.                  ...        0 min,  0.025 sec
     gradient                   ...        0 min,  0.077 sec
 * total energy  :   -83.0094646 Eh     change       -0.1046354E-02 Eh
   gradient norm :     0.0125560 Eh/α   predicted    -0.7425410E-03 ( -29.04%)
   displ. norm   :     0.3565510 α      lambda       -0.1133460E-02
   maximum displ.:     0.2075388 α      in ANC's #7, #6, #9, ...

........................................................................
.............................. CYCLE    5 ..............................
........................................................................
   1    -83.7781480 -0.837781E+02  0.166E-02    2.74       0.0  T
   2    -83.7781543 -0.635598E-05  0.790E-03    2.74       2.0  T
   3    -83.7781548 -0.511967E-06  0.419E-03    2.74       3.7  T
   4    -83.7781549 -0.370623E-07  0.127E-03    2.74      12.1  T
   5    -83.7781549 -0.167396E-07  0.188E-04    2.74      82.1  T
   6    -83.7781549 -0.100462E-08  0.617E-05    2.74     250.2  T
     SCC iter.                  ...        0 min,  0.050 sec
     gradient                   ...        0 min,  0.152 sec
 * total energy  :   -83.0102493 Eh     change       -0.7846239E-03 Eh
   gradient norm :     0.0082739 Eh/α   predicted    -0.6387883E-03 ( -18.59%)
   displ. norm   :     0.3159875 α      lambda       -0.5226948E-03
   maximum displ.:     0.1959639 α      in ANC's #7, #6, #2, ...

........................................................................
.............................. CYCLE    6 ..............................
........................................................................
   1    -83.7790526 -0.837791E+02  0.105E-02    2.75       0.0  T
   2    -83.7790549 -0.237462E-05  0.466E-03    2.75       3.3  T
   3    -83.7790552 -0.201640E-06  0.254E-03    2.75       6.1  T
   4    -83.7790552 -0.217941E-07  0.724E-04    2.75      21.3  T
   5    -83.7790552 -0.664785E-08  0.140E-04    2.75     109.8  T
   6    -83.7790552 -0.514817E-09  0.477E-05    2.75     323.4  T
     SCC iter.                  ...        0 min,  0.021 sec
     gradient                   ...        0 min,  0.104 sec
 * total energy  :   -83.0106414 Eh     change       -0.3921351E-03 Eh
   gradient norm :     0.0085463 Eh/α   predicted    -0.2874429E-03 ( -26.70%)
   displ. norm   :     0.3319846 α      lambda       -0.4146446E-03
   maximum displ.:     0.1987706 α      in ANC's #7, #6, #2, ...

........................................................................
.............................. CYCLE    7 ..............................
........................................................................
   1    -83.7808132 -0.837808E+02  0.855E-03    2.76       0.0  T
   2    -83.7808147 -0.150141E-05  0.364E-03    2.76       4.2  T
   3    -83.7808148 -0.141126E-06  0.211E-03    2.76       7.3  T
   4    -83.7808148 -0.212366E-07  0.454E-04    2.76      34.0  T
   5    -83.7808148 -0.265047E-08  0.134E-04    2.76     115.0  T
   6    -83.7808148 -0.403517E-09  0.462E-05    2.76     333.9  T
     SCC iter.                  ...        0 min,  0.047 sec
     gradient                   ...        0 min,  0.155 sec
 * total energy  :   -83.0109629 Eh     change       -0.3214799E-03 Eh
   gradient norm :     0.0075300 Eh/α   predicted    -0.2301723E-03 ( -28.40%)
   displ. norm   :     0.3480307 α      lambda       -0.3533984E-03
   maximum displ.:     0.1961867 α      in ANC's #7, #2, #6, ...

........................................................................
.............................. CYCLE    8 ..............................
........................................................................
   1    -83.7827359 -0.837827E+02  0.731E-03    2.78       0.0  T
   2    -83.7827369 -0.104474E-05  0.334E-03    2.78       4.6  T
   3    -83.7827370 -0.815024E-07  0.194E-03    2.77       8.0  T
   4    -83.7827370 -0.145480E-07  0.337E-04    2.77      45.8  T
   5    -83.7827370 -0.215438E-08  0.122E-04    2.77     126.2  T
   6    -83.7827370 -0.298073E-09  0.377E-05    2.77     408.8  T
     SCC iter.                  ...        0 min,  0.021 sec
     gradient                   ...        0 min,  0.128 sec
 * total energy  :   -83.0112297 Eh     change       -0.2668419E-03 Eh
   gradient norm :     0.0056783 Eh/α   predicted    -0.1981136E-03 ( -25.76%)
   displ. norm   :     0.3114482 α      lambda       -0.2356128E-03
   maximum displ.:     0.1752241 α      in ANC's #2, #7, #6, ...

........................................................................
.............................. CYCLE    9 ..............................
........................................................................
   1    -83.7840894 -0.837841E+02  0.570E-03    2.78       0.0  T
   2    -83.7840901 -0.731565E-06  0.286E-03    2.78       5.4  T
   3    -83.7840901 -0.379443E-07  0.159E-03    2.78       9.7  T
   4    -83.7840901 -0.358042E-08  0.341E-04    2.78      45.3  T
   5    -83.7840901 -0.203869E-08  0.806E-05    2.78     191.5  T
   6    -83.7840901 -0.135813E-09  0.248E-05    2.78     623.4  T
     SCC iter.                  ...        0 min,  0.021 sec
     gradient                   ...        0 min,  0.130 sec
 * total energy  :   -83.0114015 Eh     change       -0.1717494E-03 Eh
   gradient norm :     0.0042847 Eh/α   predicted    -0.1292347E-03 ( -24.75%)
   displ. norm   :     0.2245555 α      lambda       -0.1289717E-03
   maximum displ.:     0.1414416 α      in ANC's #2, #7, #6, ...

........................................................................
.............................. CYCLE   10 ..............................
........................................................................
   1    -83.7849718 -0.837850E+02  0.451E-03    2.78       0.0  T
   2    -83.7849724 -0.575718E-06  0.229E-03    2.78       6.7  T
   3    -83.7849724 -0.336783E-07  0.127E-03    2.78      12.1  T
   4    -83.7849724 -0.174748E-08  0.342E-04    2.78      45.1  T
   5    -83.7849724 -0.105773E-08  0.508E-05    2.78     303.7  T
   6    -83.7849724 -0.653273E-10  0.169E-05    2.78     915.1  T
     SCC iter.                  ...        0 min,  0.034 sec
     gradient                   ...        0 min,  0.078 sec
 * total energy  :   -83.0114990 Eh     change       -0.9750546E-04 Eh
   gradient norm :     0.0034862 Eh/α   predicted    -0.6773796E-04 ( -30.53%)
   displ. norm   :     0.1791907 α      lambda       -0.9217636E-04
   maximum displ.:     0.1205501 α      in ANC's #2, #1, #9, ...

........................................................................
.............................. CYCLE   11 ..............................
........................................................................
   1    -83.7853502 -0.837854E+02  0.389E-03    2.78       0.0  T
   2    -83.7853506 -0.452578E-06  0.201E-03    2.78       7.7  T
   3    -83.7853507 -0.352053E-07  0.111E-03    2.78      13.9  T
   4    -83.7853507 -0.168509E-08  0.280E-04    2.78      55.1  T
   5    -83.7853507 -0.504926E-09  0.454E-05    2.78     339.6  T
   6    -83.7853507 -0.448210E-10  0.156E-05    2.78     990.4  T
     SCC iter.                  ...        0 min,  0.035 sec
     gradient                   ...        0 min,  0.132 sec
 * total energy  :   -83.0115727 Eh     change       -0.7369770E-04 Eh
   gradient norm :     0.0030631 Eh/α   predicted    -0.4756945E-04 ( -35.45%)
   displ. norm   :     0.1896881 α      lambda       -0.9423492E-04
   maximum displ.:     0.1272134 α      in ANC's #2, #1, #9, ...

........................................................................
.............................. CYCLE   12 ..............................
........................................................................
   1    -83.7853736 -0.837854E+02  0.359E-03    2.78       0.0  T
   2    -83.7853740 -0.349037E-06  0.195E-03    2.78       7.9  T
   3    -83.7853740 -0.306850E-07  0.107E-03    2.78      14.4  T
   4    -83.7853740 -0.181501E-08  0.221E-04    2.78      69.8  T
   5    -83.7853740 -0.370136E-09  0.435E-05    2.78     354.5  T
   6    -83.7853740 -0.324718E-10  0.154E-05    2.78    1002.2  T
     SCC iter.                  ...        0 min,  0.034 sec
     gradient                   ...        0 min,  0.157 sec
 * total energy  :   -83.0116502 Eh     change       -0.7752801E-04 Eh
   gradient norm :     0.0033507 Eh/α   predicted    -0.4883173E-04 ( -37.01%)
   displ. norm   :     0.2452162 α      lambda       -0.1136219E-03
   maximum displ.:     0.1602527 α      in ANC's #2, #1, #3, ...

........................................................................
.............................. CYCLE   13 ..............................
........................................................................
   1    -83.7849211 -0.837849E+02  0.368E-03    2.78       0.0  T
   2    -83.7849214 -0.301910E-06  0.197E-03    2.78       7.8  T
   3    -83.7849214 -0.218254E-07  0.107E-03    2.78      14.4  T
   4    -83.7849214 -0.256185E-08  0.227E-04    2.78      68.0  T
   5    -83.7849214 -0.583796E-09  0.452E-05    2.78     341.5  T
   6    -83.7849214 -0.316476E-10  0.158E-05    2.78     978.1  T
     SCC iter.                  ...        0 min,  0.020 sec
     gradient                   ...        0 min,  0.090 sec
 * total energy  :   -83.0117436 Eh     change       -0.9338681E-04 Eh
   gradient norm :     0.0040499 Eh/α   predicted    -0.6022834E-04 ( -35.51%)
   displ. norm   :     0.3044961 α      lambda       -0.1276592E-03
   maximum displ.:     0.1980450 α      in ANC's #2, #1, #3, ...

........................................................................
.............................. CYCLE   14 ..............................
........................................................................
   1    -83.7842397 -0.837842E+02  0.372E-03    2.78       0.0  T
   2    -83.7842399 -0.263052E-06  0.184E-03    2.78       8.4  T
   3    -83.7842399 -0.122201E-07  0.985E-04    2.78      15.7  T
   4    -83.7842399 -0.200053E-08  0.248E-04    2.78      62.2  T
   5    -83.7842399 -0.988308E-09  0.441E-05    2.78     350.1  T
   6    -83.7842399 -0.287912E-10  0.157E-05    2.78     982.4  T
     SCC iter.                  ...        0 min,  0.026 sec
     gradient                   ...        0 min,  0.116 sec
 * total energy  :   -83.0118473 Eh     change       -0.1036961E-03 Eh
   gradient norm :     0.0044241 Eh/α   predicted    -0.6974870E-04 ( -32.74%)
   displ. norm   :     0.3496019 α      lambda       -0.1358209E-03
   maximum displ.:     0.2287520 α      in ANC's #2, #1, #3, ...

........................................................................
.............................. CYCLE   15 ..............................
........................................................................
   1    -83.7836719 -0.837837E+02  0.416E-03    2.77       0.0  T
   2    -83.7836723 -0.396835E-06  0.183E-03    2.78       8.4  T
   3    -83.7836723 -0.236289E-07  0.106E-03    2.78      14.6  T
   4    -83.7836723 -0.338234E-08  0.306E-04    2.78      50.4  T
   5    -83.7836723 -0.843514E-09  0.481E-05    2.78     320.9  T
   6    -83.7836723 -0.384404E-10  0.186E-05    2.78     831.7  T
     SCC iter.                  ...        0 min,  0.021 sec
     gradient                   ...        0 min,  0.075 sec
 * total energy  :   -83.0119590 Eh     change       -0.1117156E-03 Eh
   gradient norm :     0.0041970 Eh/α   predicted    -0.7621433E-04 ( -31.78%)
   displ. norm   :     0.4023025 α      lambda       -0.1445637E-03
   maximum displ.:     0.2643422 α      in ANC's #2, #1, #3, ...

........................................................................
.............................. CYCLE   16 ..............................
........................................................................
   1    -83.7834976 -0.837835E+02  0.451E-03    2.77       0.0  T
   2    -83.7834982 -0.592555E-06  0.205E-03    2.77       7.5  T
   3    -83.7834982 -0.476553E-07  0.115E-03    2.77      13.4  T
   4    -83.7834982 -0.399828E-08  0.367E-04    2.77      42.1  T
   5    -83.7834982 -0.743341E-09  0.575E-05    2.77     268.4  T
   6    -83.7834982 -0.599414E-10  0.244E-05    2.77     633.4  T
     SCC iter.                  ...        0 min,  0.021 sec
     gradient                   ...        0 min,  0.076 sec
 * total energy  :   -83.0120705 Eh     change       -0.1114893E-03 Eh
   gradient norm :     0.0036526 Eh/α   predicted    -0.8398517E-04 ( -24.67%)
   displ. norm   :     0.3631353 α      lambda       -0.1065997E-03
   maximum displ.:     0.2397367 α      in ANC's #2, #1, #3, ...

........................................................................
.............................. CYCLE   17 ..............................
........................................................................
   1    -83.7837663 -0.837838E+02  0.359E-03    2.77       0.0  T
   2    -83.7837668 -0.446558E-06  0.179E-03    2.77       8.6  T
   3    -83.7837668 -0.387620E-07  0.965E-04    2.77      16.0  T
   4    -83.7837668 -0.211911E-08  0.311E-04    2.77      49.6  T
   5    -83.7837668 -0.580016E-09  0.518E-05    2.77     297.7  T
   6    -83.7837668 -0.507470E-10  0.227E-05    2.77     681.2  T
     SCC iter.                  ...        0 min,  0.021 sec
     gradient                   ...        0 min,  0.076 sec
 * total energy  :   -83.0121480 Eh     change       -0.7752447E-04 Eh
   gradient norm :     0.0032932 Eh/α   predicted    -0.6032987E-04 ( -22.18%)
   displ. norm   :     0.2513297 α      lambda       -0.6400095E-04
   maximum displ.:     0.1635182 α      in ANC's #2, #1, #3, ...

........................................................................
.............................. CYCLE   18 ..............................
........................................................................
   1    -83.7846011 -0.837846E+02  0.272E-03    2.77       0.0  T
   2    -83.7846013 -0.178736E-06  0.143E-03    2.77      10.8  T
   3    -83.7846013 -0.118296E-07  0.769E-04    2.77      20.1  T
   4    -83.7846013 -0.159905E-08  0.217E-04    2.77      71.0  T
   5    -83.7846013 -0.641549E-09  0.394E-05    2.77     392.0  T
   6    -83.7846013 -0.422915E-10  0.163E-05    2.77     949.2  T
     SCC iter.                  ...        0 min,  0.021 sec
     gradient                   ...        0 min,  0.076 sec
 * total energy  :   -83.0121962 Eh     change       -0.4815440E-04 Eh
   gradient norm :     0.0028066 Eh/α   predicted    -0.3402248E-04 ( -29.35%)
   displ. norm   :     0.2197613 α      lambda       -0.5239904E-04
   maximum displ.:     0.1361262 α      in ANC's #2, #1, #3, ...

........................................................................
.............................. CYCLE   19 ..............................
........................................................................
   1    -83.7849632 -0.837850E+02  0.276E-03    2.77       0.0  T
   2    -83.7849634 -0.168697E-06  0.123E-03    2.77      12.5  T
   3    -83.7849634 -0.762184E-08  0.653E-04    2.77      23.6  T
   4    -83.7849634 -0.925027E-09  0.210E-04    2.77      73.5  T
   5    -83.7849634 -0.669758E-09  0.374E-05    2.77     412.1  T
   6    -83.7849634 -0.478479E-10  0.126E-05    2.77    1224.4  T
     SCC iter.                  ...        0 min,  0.021 sec
     gradient                   ...        0 min,  0.076 sec
 * total energy  :   -83.0122355 Eh     change       -0.3937512E-04 Eh
   gradient norm :     0.0024327 Eh/α   predicted    -0.2746952E-04 ( -30.24%)
   displ. norm   :     0.1561585 α      lambda       -0.4332849E-04
   maximum displ.:     0.1010677 α      in ANC's #1, #2, #16, ...

........................................................................
.............................. CYCLE   20 ..............................
........................................................................
   1    -83.7861827 -0.837862E+02  0.385E-03    2.78       0.0  T
   2    -83.7861829 -0.267222E-06  0.177E-03    2.78       8.7  T
   3    -83.7861830 -0.173852E-07  0.957E-04    2.78      16.1  T
   4    -83.7861830 -0.397178E-08  0.268E-04    2.78      57.5  T
   5    -83.7861830 -0.898979E-09  0.439E-05    2.78     351.3  T
   6    -83.7861830 -0.590603E-10  0.135E-05    2.78    1142.9  T
     SCC iter.                  ...        0 min,  0.021 sec
     gradient                   ...        0 min,  0.076 sec
 * total energy  :   -83.0122631 Eh     change       -0.2760697E-04 Eh
   gradient norm :     0.0022682 Eh/α   predicted    -0.2219489E-04 ( -19.60%)
   displ. norm   :     0.1794067 α      lambda       -0.3900204E-04
   maximum displ.:     0.1104440 α      in ANC's #1, #2, #13, ...
 * RMSD in coord.:     0.6679163 α      energy gain  -0.2273512E-01 Eh

generating ANC from model Hessian ...
Using Lindh-Hessian (1995)
 Shifting diagonal of input Hessian by   9.841618172300778E-003
 Lowest  eigenvalues of input Hessian
    0.000000    0.000000    0.000000    0.000000    0.000000    0.000000
    0.010000    0.010172    0.010609    0.011105    0.011246    0.012360
    0.012601    0.013874    0.014048    0.014699    0.016499    0.016855
 Highest eigenvalues
    2.063938    2.174203    2.185768    2.247166    2.390158    2.408662
 

........................................................................
.............................. CYCLE   21 ..............................
........................................................................
   1    -83.7850477 -0.837850E+02  0.409E-03    2.78       0.0  T
   2    -83.7850479 -0.205413E-06  0.219E-03    2.78       7.1  T
   3    -83.7850480 -0.115070E-07  0.104E-03    2.78      14.9  T
   4    -83.7850480 -0.770370E-08  0.231E-04    2.78      66.8  T
   5    -83.7850480 -0.538222E-09  0.491E-05    2.78     314.0  T
   6    -83.7850480 -0.605809E-10  0.155E-05    2.78     997.2  T
     SCC iter.                  ...        0 min,  0.021 sec
     gradient                   ...        0 min,  0.076 sec
 * total energy  :   -83.0122811 Eh     change       -0.1793128E-04 Eh
   gradient norm :     0.0029374 Eh/α   predicted     0.0000000E+00 (-100.00%)
   displ. norm   :     0.0278795 α      lambda       -0.8554473E-05
   maximum displ.:     0.0113157 α      in ANC's #1, #3, #2, ...

........................................................................
.............................. CYCLE   22 ..............................
........................................................................
   1    -83.7852640 -0.837853E+02  0.226E-03    2.78       0.0  T
   2    -83.7852641 -0.480758E-07  0.116E-03    2.78      13.3  T
   3    -83.7852641 -0.797371E-09  0.503E-04    2.78      30.7  T
   4    -83.7852641 -0.212441E-08  0.118E-04    2.78     130.4  T
   5    -83.7852641 -0.313037E-09  0.306E-05    2.78     504.4  T
     SCC iter.                  ...        0 min,  0.017 sec
     gradient                   ...        0 min,  0.076 sec
 * total energy  :   -83.0122991 Eh     change       -0.1802989E-04 Eh
   gradient norm :     0.0013088 Eh/α   predicted    -0.1176338E-04 ( -34.76%)
   displ. norm   :     0.1014601 α      lambda       -0.2792335E-04
   maximum displ.:     0.0429961 α      in ANC's #1, #3, #2, ...

........................................................................
.............................. CYCLE   23 ..............................
........................................................................
   1    -83.7854383 -0.837854E+02  0.441E-03    2.78       0.0  T
   2    -83.7854386 -0.343077E-06  0.205E-03    2.78       7.5  T
   3    -83.7854387 -0.127321E-07  0.106E-03    2.78      14.6  T
   4    -83.7854387 -0.469903E-08  0.309E-04    2.78      49.9  T
   5    -83.7854387 -0.199256E-08  0.586E-05    2.78     263.5  T
   6    -83.7854387 -0.924132E-10  0.156E-05    2.78     989.7  T
     SCC iter.                  ...        0 min,  0.021 sec
     gradient                   ...        0 min,  0.076 sec
 * total energy  :   -83.0123223 Eh     change       -0.2322816E-04 Eh
   gradient norm :     0.0024007 Eh/α   predicted    -0.1402600E-04 ( -39.62%)
   displ. norm   :     0.0534929 α      lambda       -0.1502778E-04
   maximum displ.:     0.0241119 α      in ANC's #1, #3, #2, ...

........................................................................
.............................. CYCLE   24 ..............................
........................................................................
   1    -83.7853453 -0.837853E+02  0.960E-04    2.78       0.0  T
   2    -83.7853454 -0.167114E-07  0.416E-04    2.78      37.1  T
   3    -83.7853454 -0.900613E-09  0.214E-04    2.78      72.1  T
   4    -83.7853454 -0.138598E-09  0.596E-05    2.78     259.0  T
   5    -83.7853454 -0.329266E-10  0.102E-05    2.78    1507.2  T
     SCC iter.                  ...        0 min,  0.017 sec
     gradient                   ...        0 min,  0.076 sec
 * total energy  :   -83.0123362 Eh     change       -0.1383498E-04 Eh
   gradient norm :     0.0021354 Eh/α   predicted    -0.7651620E-05 ( -44.69%)
   displ. norm   :     0.2153319 α      lambda       -0.5714488E-04
   maximum displ.:     0.0976225 α      in ANC's #1, #3, #2, ...

........................................................................
.............................. CYCLE   25 ..............................
........................................................................
   1    -83.7846175 -0.837846E+02  0.368E-03    2.78       0.0  T
   2    -83.7846176 -0.103659E-06  0.189E-03    2.78       8.2  T
   3    -83.7846176 -0.411885E-08  0.821E-04    2.78      18.8  T
   4    -83.7846176 -0.468405E-08  0.164E-04    2.78      94.2  T
   5    -83.7846176 -0.251973E-09  0.454E-05    2.78     339.7  T
     SCC iter.                  ...        0 min,  0.017 sec
     gradient                   ...        0 min,  0.073 sec
 * total energy  :   -83.0123710 Eh     change       -0.3481124E-04 Eh
   gradient norm :     0.0024427 Eh/α   predicted    -0.2990599E-04 ( -14.09%)
   displ. norm   :     0.0676429 α      lambda       -0.1302888E-04
   maximum displ.:     0.0361961 α      in ANC's #1, #3, #2, ...

........................................................................
.............................. CYCLE   26 ..............................
........................................................................
   1    -83.7847607 -0.837848E+02  0.921E-04    2.78       0.0  T
   2    -83.7847608 -0.199196E-07  0.436E-04    2.78      35.4  T
   3    -83.7847608 -0.120407E-08  0.241E-04    2.78      63.9  T
   4    -83.7847608 -0.397350E-09  0.732E-05    2.78     210.7  T
   5    -83.7847608 -0.718074E-10  0.151E-05    2.78    1024.8  T
     SCC iter.                  ...        0 min,  0.017 sec
     gradient                   ...        0 min,  0.080 sec
 * total energy  :   -83.0123821 Eh     change       -0.1113719E-04 Eh
   gradient norm :     0.0022687 Eh/α   predicted    -0.6576174E-05 ( -40.95%)
   displ. norm   :     0.1261676 α      lambda       -0.3442692E-04
   maximum displ.:     0.0739239 α      in ANC's #1, #3, #2, ...

........................................................................
.............................. CYCLE   27 ..............................
........................................................................
   1    -83.7855025 -0.837855E+02  0.328E-03    2.77       0.0  T
   2    -83.7855028 -0.212991E-06  0.146E-03    2.77      10.6  T
   3    -83.7855028 -0.796985E-08  0.756E-04    2.77      20.4  T
   4    -83.7855028 -0.221929E-08  0.245E-04    2.77      63.0  T
   5    -83.7855028 -0.107984E-08  0.368E-05    2.77     418.9  T
   6    -83.7855028 -0.462563E-10  0.104E-05    2.77    1477.1  T
     SCC iter.                  ...        0 min,  0.022 sec
     gradient                   ...        0 min,  0.081 sec
 * total energy  :   -83.0124062 Eh     change       -0.2405375E-04 Eh
   gradient norm :     0.0014009 Eh/α   predicted    -0.1748854E-04 ( -27.29%)
   displ. norm   :     0.2447239 α      lambda       -0.2120892E-04
   maximum displ.:     0.1406871 α      in ANC's #1, #3, #2, ...

........................................................................
.............................. CYCLE   28 ..............................
........................................................................
   1    -83.7847308 -0.837847E+02  0.327E-03    2.77       0.0  T
   2    -83.7847310 -0.237288E-06  0.125E-03    2.77      12.3  T
   3    -83.7847310 -0.238601E-07  0.661E-04    2.77      23.3  T
   4    -83.7847310 -0.185251E-08  0.173E-04    2.77      89.0  T
   5    -83.7847310 -0.212978E-09  0.420E-05    2.77     367.4  T
     SCC iter.                  ...        0 min,  0.018 sec
     gradient                   ...        0 min,  0.081 sec
 * total energy  :   -83.0124268 Eh     change       -0.2060757E-04 Eh
   gradient norm :     0.0025784 Eh/α   predicted    -0.1088894E-04 ( -47.16%)
   displ. norm   :     0.0944068 α      lambda       -0.1695240E-04
   maximum displ.:     0.0627519 α      in ANC's #1, #3, #2, ...

........................................................................
.............................. CYCLE   29 ..............................
........................................................................
   1    -83.7849780 -0.837850E+02  0.136E-03    2.78       0.0  T
   2    -83.7849780 -0.315062E-07  0.661E-04    2.78      23.3  T
   3    -83.7849780 -0.347789E-08  0.360E-04    2.78      42.9  T
   4    -83.7849780 -0.876895E-09  0.664E-05    2.78     232.4  T
   5    -83.7849780 -0.827640E-10  0.208E-05    2.78     741.8  T
     SCC iter.                  ...        0 min,  0.018 sec
     gradient                   ...        0 min,  0.081 sec
 * total energy  :   -83.0124412 Eh     change       -0.1438315E-04 Eh
   gradient norm :     0.0021167 Eh/α   predicted    -0.8559759E-05 ( -40.49%)
   displ. norm   :     0.1836574 α      lambda       -0.2949494E-04
   maximum displ.:     0.1205531 α      in ANC's #1, #3, #2, ...

........................................................................
.............................. CYCLE   30 ..............................
........................................................................
   1    -83.7849746 -0.837850E+02  0.204E-03    2.78       0.0  T
   2    -83.7849747 -0.140415E-06  0.803E-04    2.78      19.2  T
   3    -83.7849747 -0.151362E-07  0.422E-04    2.78      36.6  T
   4    -83.7849747 -0.128088E-08  0.151E-04    2.78     102.5  T
   5    -83.7849747 -0.182183E-09  0.303E-05    2.78     509.3  T
     SCC iter.                  ...        0 min,  0.018 sec
     gradient                   ...        0 min,  0.081 sec
 * total energy  :   -83.0124662 Eh     change       -0.2500541E-04 Eh
   gradient norm :     0.0015434 Eh/α   predicted    -0.1524868E-04 ( -39.02%)
   displ. norm   :     0.3838600 α      lambda       -0.3620990E-04
   maximum displ.:     0.2605860 α      in ANC's #1, #3, #12, ...

........................................................................
.............................. CYCLE   31 ..............................
........................................................................
   1    -83.7842240 -0.837842E+02  0.409E-03    2.78       0.0  T
   2    -83.7842244 -0.365075E-06  0.175E-03    2.78       8.8  T
   3    -83.7842244 -0.262462E-07  0.960E-04    2.78      16.1  T
   4    -83.7842244 -0.563954E-08  0.274E-04    2.78      56.2  T
   5    -83.7842244 -0.113546E-08  0.584E-05    2.78     264.1  T
   6    -83.7842244 -0.642046E-10  0.195E-05    2.78     793.2  T
     SCC iter.                  ...        0 min,  0.022 sec
     gradient                   ...        0 min,  0.081 sec
 * total energy  :   -83.0125020 Eh     change       -0.3582226E-04 Eh
   gradient norm :     0.0030001 Eh/α   predicted    -0.1929124E-04 ( -46.15%)
   displ. norm   :     0.1263043 α      lambda       -0.3599402E-04
   maximum displ.:     0.1002417 α      in ANC's #1, #12, #8, ...

........................................................................
.............................. CYCLE   32 ..............................
........................................................................
   1    -83.7855056 -0.837855E+02  0.380E-03    2.78       0.0  T
   2    -83.7855057 -0.126368E-06  0.184E-03    2.78       8.4  T
   3    -83.7855057 -0.118536E-07  0.949E-04    2.78      16.3  T
   4    -83.7855057 -0.531062E-08  0.153E-04    2.78     100.9  T
   5    -83.7855057 -0.150308E-09  0.367E-05    2.78     420.2  T
     SCC iter.                  ...        0 min,  0.018 sec
     gradient                   ...        0 min,  0.081 sec
 * total energy  :   -83.0125226 Eh     change       -0.2062717E-04 Eh
   gradient norm :     0.0024216 Eh/α   predicted    -0.1828879E-04 ( -11.34%)
   displ. norm   :     0.1509709 α      lambda       -0.2314187E-04
   maximum displ.:     0.1116563 α      in ANC's #1, #12, #3, ...

........................................................................
.............................. CYCLE   33 ..............................
........................................................................
   1    -83.7852967 -0.837853E+02  0.147E-03    2.78       0.0  T
   2    -83.7852968 -0.428654E-07  0.710E-04    2.78      21.7  T
   3    -83.7852968 -0.451472E-08  0.392E-04    2.78      39.4  T
   4    -83.7852968 -0.129522E-08  0.931E-05    2.78     165.7  T
   5    -83.7852968 -0.104706E-09  0.239E-05    2.78     645.0  T
     SCC iter.                  ...        0 min,  0.018 sec
     gradient                   ...        0 min,  0.081 sec
 * total energy  :   -83.0125424 Eh     change       -0.1979753E-04 Eh
   gradient norm :     0.0019909 Eh/α   predicted    -0.1183523E-04 ( -40.22%)
   displ. norm   :     0.2482586 α      lambda       -0.3228267E-04
   maximum displ.:     0.1915457 α      in ANC's #1, #12, #7, ...

........................................................................
.............................. CYCLE   34 ..............................
........................................................................
   1    -83.7851823 -0.837852E+02  0.394E-03    2.78       0.0  T
   2    -83.7851828 -0.493046E-06  0.162E-03    2.78       9.5  T
   3    -83.7851829 -0.543404E-07  0.897E-04    2.78      17.2  T
   4    -83.7851829 -0.545639E-08  0.305E-04    2.78      50.6  T
   5    -83.7851829 -0.639744E-09  0.619E-05    2.78     249.3  T
   6    -83.7851829 -0.100769E-09  0.165E-05    2.78     936.3  T
     SCC iter.                  ...        0 min,  0.022 sec
     gradient                   ...        0 min,  0.081 sec
 * total energy  :   -83.0125736 Eh     change       -0.3118704E-04 Eh
   gradient norm :     0.0018863 Eh/α   predicted    -0.1658601E-04 ( -46.82%)
   displ. norm   :     0.1091126 α      lambda       -0.1552101E-04
   maximum displ.:     0.0886756 α      in ANC's #1, #9, #7, ...

........................................................................
.............................. CYCLE   35 ..............................
........................................................................
   1    -83.7858798 -0.837859E+02  0.247E-03    2.78       0.0  T
   2    -83.7858799 -0.554297E-07  0.125E-03    2.78      12.3  T
   3    -83.7858799 -0.210508E-08  0.598E-04    2.78      25.8  T
   4    -83.7858799 -0.344137E-08  0.117E-04    2.78     132.3  T
   5    -83.7858799 -0.169109E-09  0.295E-05    2.78     523.0  T
     SCC iter.                  ...        0 min,  0.018 sec
     gradient                   ...        0 min,  0.081 sec
 * total energy  :   -83.0125883 Eh     change       -0.1475355E-04 Eh
   gradient norm :     0.0015258 Eh/α   predicted    -0.7805606E-05 ( -47.09%)
   displ. norm   :     0.0902949 α      lambda       -0.8745636E-05
   maximum displ.:     0.0747301 α      in ANC's #1, #7, #12, ...

........................................................................
.............................. CYCLE   36 ..............................
........................................................................
   1    -83.7855715 -0.837856E+02  0.178E-03    2.78       0.0  T
   2    -83.7855716 -0.945988E-07  0.750E-04    2.78      20.6  T
   3    -83.7855716 -0.103362E-07  0.403E-04    2.78      38.3  T
   4    -83.7855716 -0.578709E-09  0.135E-04    2.78     114.2  T
   5    -83.7855716 -0.218378E-09  0.284E-05    2.78     543.4  T
     SCC iter.                  ...        0 min,  0.018 sec
     gradient                   ...        0 min,  0.081 sec
 * total energy  :   -83.0125985 Eh     change       -0.1018396E-04 Eh
   gradient norm :     0.0008339 Eh/α   predicted    -0.4391266E-05 ( -56.88%)
   displ. norm   :     0.0697935 α      lambda       -0.7643649E-05
   maximum displ.:     0.0547051 α      in ANC's #1, #7, #3, ...

........................................................................
.............................. CYCLE   37 ..............................
........................................................................
   1    -83.7855615 -0.837856E+02  0.175E-03    2.78       0.0  T
   2    -83.7855616 -0.138629E-06  0.757E-04    2.78      20.4  T
   3    -83.7855616 -0.190360E-07  0.351E-04    2.78      44.0  T
   4    -83.7855616 -0.514206E-09  0.152E-04    2.78     101.3  T
   5    -83.7855616 -0.946585E-10  0.296E-05    2.78     521.2  T
     SCC iter.                  ...        0 min,  0.018 sec
     gradient                   ...        0 min,  0.081 sec
 * total energy  :   -83.0126079 Eh     change       -0.9372226E-05 Eh
   gradient norm :     0.0007420 Eh/α   predicted    -0.3830980E-05 ( -59.12%)
   displ. norm   :     0.0867325 α      lambda       -0.8712947E-05
   maximum displ.:     0.0630861 α      in ANC's #1, #7, #3, ...

........................................................................
.............................. CYCLE   38 ..............................
........................................................................
   1    -83.7855492 -0.837855E+02  0.133E-03    2.78       0.0  T
   2    -83.7855493 -0.901552E-07  0.630E-04    2.78      24.5  T
   3    -83.7855493 -0.134950E-07  0.298E-04    2.78      51.8  T
   4    -83.7855493 -0.338957E-09  0.129E-04    2.78     120.0  T
   5    -83.7855493 -0.432436E-10  0.259E-05    2.78     596.2  T
     SCC iter.                  ...        0 min,  0.018 sec
     gradient                   ...        0 min,  0.081 sec
 * total energy  :   -83.0126188 Eh     change       -0.1094093E-04 Eh
   gradient norm :     0.0012259 Eh/α   predicted    -0.4374358E-05 ( -60.02%)
   displ. norm   :     0.1147445 α      lambda       -0.1021082E-04
   maximum displ.:     0.0788891 α      in ANC's #1, #3, #7, ...

........................................................................
.............................. CYCLE   39 ..............................
........................................................................
   1    -83.7853746 -0.837854E+02  0.848E-04    2.78       0.0  T
   2    -83.7853747 -0.274974E-07  0.451E-04    2.78      34.2  T
   3    -83.7853747 -0.262737E-08  0.242E-04    2.78      63.8  T
   4    -83.7853747 -0.129631E-09  0.764E-05    2.78     201.9  T
   5    -83.7853747 -0.610498E-10  0.164E-05    2.78     943.1  T
     SCC iter.                  ...        0 min,  0.018 sec
     gradient                   ...        0 min,  0.081 sec
 * total energy  :   -83.0126316 Eh     change       -0.1274478E-04 Eh
   gradient norm :     0.0012248 Eh/α   predicted    -0.5137536E-05 ( -59.69%)
   displ. norm   :     0.1315335 α      lambda       -0.1037310E-04
   maximum displ.:     0.0905842 α      in ANC's #1, #3, #4, ...

........................................................................
.............................. CYCLE   40 ..............................
........................................................................
   1    -83.7854627 -0.837855E+02  0.122E-03    2.78       0.0  T
   2    -83.7854627 -0.484954E-07  0.508E-04    2.78      30.3  T
   3    -83.7854628 -0.601690E-08  0.259E-04    2.78      59.6  T
   4    -83.7854628 -0.292985E-09  0.819E-05    2.78     188.3  T
   5    -83.7854628 -0.638067E-10  0.195E-05    2.78     791.1  T
     SCC iter.                  ...        0 min,  0.018 sec
     gradient                   ...        0 min,  0.081 sec
 * total energy  :   -83.0126443 Eh     change       -0.1267784E-04 Eh
   gradient norm :     0.0009158 Eh/α   predicted    -0.5227575E-05 ( -58.77%)
   displ. norm   :     0.1091322 α      lambda       -0.7912843E-05
   maximum displ.:     0.0773196 α      in ANC's #1, #4, #3, ...

........................................................................
.............................. CYCLE   41 ..............................
........................................................................
   1    -83.7854795 -0.837855E+02  0.138E-03    2.78       0.0  T
   2    -83.7854795 -0.741050E-07  0.647E-04    2.78      23.8  T
   3    -83.7854796 -0.123529E-07  0.302E-04    2.78      51.1  T
   4    -83.7854796 -0.278121E-09  0.107E-04    2.78     144.3  T
   5    -83.7854796 -0.830340E-10  0.217E-05    2.78     710.5  T
     SCC iter.                  ...        0 min,  0.018 sec
     gradient                   ...        0 min,  0.081 sec
 * total energy  :   -83.0126543 Eh     change       -0.1000662E-04 Eh
   gradient norm :     0.0005966 Eh/α   predicted    -0.3979755E-05 ( -60.23%)
   displ. norm   :     0.0925346 α      lambda       -0.7007794E-05
   maximum displ.:     0.0691534 α      in ANC's #1, #4, #3, ...

........................................................................
.............................. CYCLE   42 ..............................
........................................................................
   1    -83.7855256 -0.837855E+02  0.108E-03    2.78       0.0  T
   2    -83.7855256 -0.560103E-07  0.543E-04    2.78      28.4  T
   3    -83.7855256 -0.101626E-07  0.248E-04    2.78      62.1  T
   4    -83.7855256 -0.205787E-09  0.970E-05    2.78     159.1  T
   5    -83.7855256 -0.294307E-10  0.178E-05    2.78     868.2  T
     SCC iter.                  ...        0 min,  0.018 sec
     gradient                   ...        0 min,  0.081 sec
 * total energy  :   -83.0126635 Eh     change       -0.9236515E-05 Eh
   gradient norm :     0.0005631 Eh/α   predicted    -0.3519460E-05 ( -61.90%)
   displ. norm   :     0.0829808 α      lambda       -0.6650583E-05
   maximum displ.:     0.0632011 α      in ANC's #1, #4, #5, ...
 * RMSD in coord.:     0.3706918 α      energy gain  -0.4003730E-03 Eh

generating ANC from model Hessian ...
Using Lindh-Hessian (1995)
 Shifting diagonal of input Hessian by   9.838781085751352E-003
 Lowest  eigenvalues of input Hessian
    0.000000    0.000000    0.000000    0.000000    0.000000    0.000000
    0.010000    0.010189    0.010589    0.011103    0.011249    0.012295
    0.012629    0.013868    0.014063    0.014695    0.016526    0.016845
 Highest eigenvalues
    2.062936    2.173243    2.184668    2.246131    2.390320    2.407948
 

........................................................................
.............................. CYCLE   43 ..............................
........................................................................
   1    -83.7856572 -0.837857E+02  0.691E-04    2.78       0.0  T
   2    -83.7856572 -0.199147E-07  0.376E-04    2.78      41.0  T
   3    -83.7856572 -0.332200E-08  0.192E-04    2.78      80.5  T
   4    -83.7856572 -0.102148E-09  0.639E-05    2.78     241.4  T
     SCC iter.                  ...        0 min,  0.015 sec
     gradient                   ...        0 min,  0.081 sec
 * total energy  :   -83.0126724 Eh     change       -0.8860622E-05 Eh
   gradient norm :     0.0007186 Eh/α   predicted     0.0000000E+00 (-100.00%)
   displ. norm   :     0.0217168 α      lambda       -0.2338800E-05
   maximum displ.:     0.0180008 α      in ANC's #1, #7, #16, ...

........................................................................
.............................. CYCLE   44 ..............................
........................................................................
   1    -83.7855467 -0.837855E+02  0.868E-04    2.78       0.0  T
   2    -83.7855468 -0.301348E-07  0.342E-04    2.78      45.1  T
   3    -83.7855468 -0.423836E-08  0.134E-04    2.78     115.6  T
   4    -83.7855468 -0.780460E-10  0.567E-05    2.78     272.1  T
     SCC iter.                  ...        0 min,  0.015 sec
     gradient                   ...        0 min,  0.081 sec
 * total energy  :   -83.0126763 Eh     change       -0.3883320E-05 Eh
   gradient norm :     0.0003029 Eh/α   predicted    -0.1453271E-05 ( -62.58%)
   displ. norm   :     0.0487278 α      lambda       -0.5162842E-05
   maximum displ.:     0.0362655 α      in ANC's #1, #7, #2, ...

   *** GEOMETRY OPTIMIZATION CONVERGED AFTER 44 ITERATIONS ***

------------------------------------------------------------------------
 total energy gain   :        -0.0231482 Eh      -14.5257 kcal/mol
 total RMSD          :         0.8517968 a0        0.4508 Å
 total power (kW/mol):        -1.3812655 (step)   -8.8032 (real)
------------------------------------------------------------------------

 ANCopt (total)                0 d,  0 h,  0 min,  6.904 sec
 optimizer setup                ...        0 min,  0.001 sec (  0.011%)
 model hessian                  ...        0 min,  0.075 sec (  1.090%)
 ANC generation                 ...        0 min,  0.007 sec (  0.101%)
 coordinate transformation      ...        0 min,  0.001 sec (  0.018%)
 single point calculation       ...        0 min,  6.800 sec ( 98.493%)
 optimization log               ...        0 min,  0.010 sec (  0.145%)
 hessian update                 ...        0 min,  0.001 sec (  0.016%)
 rational function              ...        0 min,  0.005 sec (  0.070%)

================
 final structure:
================
42
 xtb: 6.5.1 (579679a)
C           -5.53163867312919       -2.28240383485202       -0.42876042274620
O           -4.23973419989800       -1.70997673947755       -0.19515903454407
C           -4.06700123796156       -0.45842348088228       -0.58790041279894
O           -4.94480709156749        0.20237923239328       -1.11507879531427
C           -2.70088857418310        0.06685460239376       -0.33692537254549
N           -1.81498983486244       -0.74702905432423        0.26440284135385
C           -0.59650425350700       -0.29213352939534        0.45786880449907
C            0.39418146942765       -1.18704674836644        1.17558023361230
C            0.14077803488128       -2.65682308128907        0.82672439095658
C            0.24312334126901       -0.94113569079682        2.68628494211373
N            1.73063984248178       -0.78390464521176        0.73775033624445
C            2.86585652853447       -1.34752222392458        1.18004244513258
O            2.93851093393208       -2.26180958881668        1.98812820430134
C            4.08302771232294       -0.75199414112427        0.56487743927766
N            5.31930345529655       -1.07563685743413        0.78580277737965
N            6.08426273629218       -0.28107855108650       -0.01688604240898
C            5.26739505330735        0.47722741921256       -0.67849779470180
C            5.60047429692537        1.50656363545224       -1.68719626813881
O            3.98632975982455        0.23171516089067       -0.35627286135258
N           -0.17658086004207        0.93139492574729        0.11697269704482
C           -1.02042738174391        1.76923713379262       -0.46080305679201
O           -0.49683443188430        2.96584922788554       -0.74167465847236
C           -1.24562517035537        4.03498728229203       -1.31572954830323
C           -2.35661097053565        1.35841292350833       -0.72676601988052
O           -3.21944793770202        2.18879384416156       -1.32884828984121
H           -6.29799499130331       -1.69400328771872        0.08005370332638
H           -5.49998037166733       -3.29431378023307       -0.03031814692982
H           -5.74121382694385       -2.30019422123873       -1.50042366045479
H           -0.89118638115138       -2.90739476327443        1.06726459893416
H            0.80755054416889       -3.30314813001369        1.39466254962918
H            0.30364987466533       -2.81913292845455       -0.23770496954926
H           -0.77549562156133       -1.17812566825079        2.98921467252779
H            0.93675704123311       -1.57015009780284        3.24177839606882
H            0.44672110373916        0.10479261389082        2.91121256333164
H            1.77562896214730        0.00653590986307        0.10878284838481
H            5.09575833504207        1.28211912801740       -2.62646322683618
H            5.26093559517219        2.48522215315361       -1.34861658884299
H            6.67578919827370        1.52960122344012       -1.84605207721311
H           -1.59873422988070        3.77498880637590       -2.31594389062071
H           -2.09311329696132        4.30511789077008       -0.68185450819885
H           -0.55404275566727        4.87603362125535       -1.37982700041033
H           -4.09381972642633        1.74555430947467       -1.44631179721913
 
 Bond Distances (Angstroems)
 ---------------------------
C1-O2=1.4322         C1-H26=1.0920        C1-H27=1.0880        C1-H28=1.0921        O2-C1=1.4322         O2-C3=1.3231         
C3-O2=1.3231         C3-O4=1.2187         C3-C5=1.4850         O4-C3=1.2187         C5-C3=1.4850         C5-N6=1.3449         
C5-C24=1.3923        N6-C5=1.3449         N6-C7=1.3149         C7-N6=1.3149         C7-C8=1.5157         C7-N20=1.3377        
C8-C7=1.5157         C8-C9=1.5317         C8-C10=1.5380        C8-N11=1.4630        C9-C8=1.5317         C9-H29=1.0889        
C9-H30=1.0885        C9-H31=1.0890        C10-C8=1.5380        C10-H32=1.0888       C10-H33=1.0887       C10-H34=1.0890       
N11-C8=1.4630        N11-C12=1.3424       N11-H35=1.0111       C12-N11=1.3424       C12-O13=1.2224       C12-C14=1.4881       
O13-C12=1.2224       C14-C12=1.4881       C14-N15=1.2969       C14-O19=1.3511       N15-C14=1.2969       N15-N16=1.3641       
N16-N15=1.3641       N16-C17=1.2962       C17-N16=1.2962       C17-C18=1.4792       C17-O19=1.3436       C18-C17=1.4792       
C18-H36=1.0896       C18-H37=1.0898       C18-H38=1.0872       O19-C14=1.3511       O19-C17=1.3436       N20-C7=1.3377        
N20-C21=1.3221       C21-N20=1.3221       C21-O22=1.3360       C21-C24=1.4230       O22-C21=1.3360       O22-C23=1.4259       
C23-O22=1.4259       C23-H39=1.0921       C23-H40=1.0922       C23-H41=1.0908       C24-C5=1.3923        C24-C21=1.4230       
C24-O25=1.3403       O25-C24=1.3403       O25-H42=0.9873       H26-C1=1.0920        H27-C1=1.0880        H28-C1=1.0921        
H29-C9=1.0889        H30-C9=1.0885        H31-C9=1.0890        H32-C10=1.0888       H33-C10=1.0887       H34-C10=1.0890       
H35-N11=1.0111       H36-C18=1.0896       H37-C18=1.0898       H38-C18=1.0872       H39-C23=1.0921       H40-C23=1.0922       
H41-C23=1.0908       H42-O25=0.9873       
 C  H  Rav=1.0898 sigma=0.0016  Rmin=1.0872  Rmax=1.0922    15
 C  C  Rav=1.4816 sigma=0.0479  Rmin=1.3923  Rmax=1.5380     8
 N  H  Rav=1.0111 sigma=0.0000  Rmin=1.0111  Rmax=1.0111     1
 N  C  Rav=1.3398 sigma=0.0499  Rmin=1.2962  Rmax=1.4630     8
 N  N  Rav=1.3641 sigma=0.0000  Rmin=1.3641  Rmax=1.3641     1
 O  H  Rav=0.9873 sigma=0.0000  Rmin=0.9873  Rmax=0.9873     1
 O  C  Rav=1.3326 sigma=0.0702  Rmin=1.2187  Rmax=1.4322     9
 
 selected bond angles (degree)
 --------------------
H26-C1-O2=109.98               H27-C1-O2=106.60               H27-C1-H26=110.54              H28-C1-O2=109.86               
H28-C1-H26=109.35              H28-C1-H27=110.47              C3-O2-C1=116.58                O4-C3-O2=123.18                
C5-C3-O2=113.86                C5-C3-O4=122.95                N6-C5-C3=117.87                C24-C5-C3=120.55               
C24-C5-N6=121.58               C7-N6-C5=117.83                C8-C7-N6=118.10                N20-C7-N6=124.74               
N20-C7-C8=117.10               C9-C8-C7=110.52                C10-C8-C7=107.85               C10-C8-C9=111.15               
N11-C8-C7=107.02               N11-C8-C9=110.33               N11-C8-C10=109.85              H29-C9-C8=109.10               
H30-C9-C8=110.46               H30-C9-H29=109.19              H31-C9-C8=109.93               H31-C9-H29=108.87              
H31-C9-H30=109.26              H32-C10-C8=109.29              H33-C10-C8=110.26              H33-C10-H32=109.17             
H34-C10-C8=109.76              H34-C10-H32=109.06             H34-C10-H33=109.29             
 
 selected dihedral angles (degree)
 ---------------------------------
C3-O2-C1-H26=300.98           C3-O2-C1-H27=181.11           C3-O2-C1-H28= 61.39           O4-C3-O2-C1=  0.52            
C5-C3-O2-C1=180.94            N6-C5-C3-O2=358.91            N6-C5-C3-O4=179.33            C24-C5-C3-O2=178.37           
C24-C5-C3-O4=358.79           C7-N6-C5-C3=178.43            C7-N6-C5-C24=358.98           C8-C7-N6-C5=178.04            
N20-C7-N6-C5=  1.01           C9-C8-C7-N6= 34.12            C9-C8-C7-N20=211.37           C10-C8-C7-N6=272.43           
C10-C8-C7-N20= 89.68          N11-C8-C7-N6=154.28           N11-C8-C7-N20=331.54          H29-C9-C8-C7=303.91           
H29-C9-C8-C10= 63.63          H29-C9-C8-N11=185.75          H30-C9-C8-C7=183.88           H30-C9-C8-C10=303.60          
H30-C9-C8-N11= 65.72          H31-C9-C8-C7= 63.23           H31-C9-C8-C10=182.95          H31-C9-C8-N11=305.07          
H32-C10-C8-C7= 59.76          H32-C10-C8-C9=298.46          H32-C10-C8-N11=176.07         H33-C10-C8-C7=179.76          
H33-C10-C8-C9= 58.46          H33-C10-C8-N11=296.06         H34-C10-C8-C7=300.20          H34-C10-C8-C9=178.90          
H34-C10-C8-N11= 56.51         
           -------------------------------------------------
          |                Final Singlepoint                |
           -------------------------------------------------

          ...................................................
          :                      SETUP                      :
          :.................................................:
          :  # basis functions                 134          :
          :  # atomic orbitals                 134          :
          :  # shells                           84          :
          :  # electrons                       134          :
          :  # halogen bonds                     0          :
          :  max. iterations                   250          :
          :  Hamiltonian                  GFN1-xTB          :
          :  restarted?                      false          :
          :  GBSA solvation                   true          :
          :  PC potential                    false          :
          :  electronic temp.          300.0000000     K    :
          :  accuracy                    1.0000000          :
          :  -> integral cutoff          0.2500000E+02      :
          :  -> integral neglect         0.1000000E-07      :
          :  -> SCF convergence          0.1000000E-05 Eh   :
          :  -> wf. convergence          0.2000000E-04 e    :
          :  Broyden damping             0.4000000          :
          ...................................................

 iter      E             dE          RMSdq      gap      omega  full diag
   1    -83.7855468 -0.837855E+02  0.141E-05    2.78       0.0  T
   2    -83.7855468 -0.491696E-11  0.558E-06    2.78    2767.3  T
   3    -83.7855468 -0.625278E-12  0.335E-06    2.78    4602.9  T

   *** convergence criteria satisfied after 3 iterations ***

         #    Occupation            Energy/Eh            Energy/eV
      -------------------------------------------------------------
         1        2.0000           -0.8643928             -23.5213
       ...           ...                  ...                  ...
        61        2.0000           -0.4696735             -12.7805
        62        2.0000           -0.4604362             -12.5291
        63        2.0000           -0.4579175             -12.4606
        64        2.0000           -0.4495134             -12.2319
        65        2.0000           -0.4445205             -12.0960
        66        2.0000           -0.4318254             -11.7506
        67        2.0000           -0.4277229             -11.6389 (HOMO)
        68                         -0.3256077              -8.8602 (LUMO)
        69                         -0.3073905              -8.3645
        70                         -0.2814794              -7.6594
        71                         -0.2562115              -6.9719
        72                         -0.2411091              -6.5609
       ...                                ...                  ...
       134                          0.7263062              19.7638
      -------------------------------------------------------------
                  HL-Gap            0.1021152 Eh            2.7787 eV
             Fermi-level           -0.3766653 Eh          -10.2496 eV

 SCC (total)                   0 d,  0 h,  0 min,  0.129 sec
 SCC setup                      ...        0 min,  0.002 sec (  1.480%)
 Dispersion                     ...        0 min,  0.000 sec (  0.275%)
 classical contributions        ...        0 min,  0.000 sec (  0.084%)
 integral evaluation            ...        0 min,  0.033 sec ( 25.762%)
 iterations                     ...        0 min,  0.012 sec (  8.942%)
 molecular gradient             ...        0 min,  0.081 sec ( 62.670%)
 printout                       ...        0 min,  0.001 sec (  0.754%)

         :::::::::::::::::::::::::::::::::::::::::::::::::::::
         ::                     SUMMARY                     ::
         :::::::::::::::::::::::::::::::::::::::::::::::::::::
         :: total energy             -83.012676255949 Eh    ::
         :: total w/o Gsasa/hb       -82.988522586458 Eh    ::
         :: gradient norm              0.000304521250 Eh/a0 ::
         :: HOMO-LUMO gap              2.778696408591 eV    ::
         ::.................................................::
         :: SCC energy               -83.785546757147 Eh    ::
         :: -> electrostatic           0.324155806150 Eh    ::
         :: -> Gsolv                  -0.049519305156 Eh    ::
         ::    -> Gelec               -0.025365635666 Eh    ::
         ::    -> Gsasa               -0.026041457377 Eh    ::
         ::    -> Ghb                 -0.005736491119 Eh    ::
         ::    -> Gshift               0.007624279005 Eh    ::
         :: repulsion energy           0.797563555787 Eh    ::
         :: dispersion energy         -0.024693054589 Eh    ::
         :: halogen bond corr.         0.000000000000 Eh    ::
         :: add. restraining           0.000000000000 Eh    ::
         :: total charge              -0.000000000000 e     ::
         :::::::::::::::::::::::::::::::::::::::::::::::::::::

           -------------------------------------------------
          |                Property Printout                |
           -------------------------------------------------

    * Orbital Energies and Occupations

         #    Occupation            Energy/Eh            Energy/eV
      -------------------------------------------------------------
         1        2.0000           -0.8643928             -23.5213
       ...           ...                  ...                  ...
        55        2.0000           -0.5004181             -13.6171
        56        2.0000           -0.4999351             -13.6039
        57        2.0000           -0.4969571             -13.5229
        58        2.0000           -0.4831717             -13.1478
        59        2.0000           -0.4789886             -13.0339
        60        2.0000           -0.4721787             -12.8486
        61        2.0000           -0.4696735             -12.7805
        62        2.0000           -0.4604362             -12.5291
        63        2.0000           -0.4579175             -12.4606
        64        2.0000           -0.4495134             -12.2319
        65        2.0000           -0.4445205             -12.0960
        66        2.0000           -0.4318254             -11.7506
        67        2.0000           -0.4277229             -11.6389 (HOMO)
        68                         -0.3256077              -8.8602 (LUMO)
        69                         -0.3073905              -8.3645
        70                         -0.2814794              -7.6594
        71                         -0.2562115              -6.9719
        72                         -0.2411091              -6.5609
        73                         -0.1955658              -5.3216
        74                         -0.1557015              -4.2369
        75                         -0.1432422              -3.8978
        76                         -0.1377433              -3.7482
        77                         -0.1332025              -3.6246
        78                         -0.1207868              -3.2868
       ...                                ...                  ...
       134                          0.7263062              19.7638
      -------------------------------------------------------------
                  HL-Gap            0.1021152 Eh            2.7787 eV
             Fermi-level           -0.3766653 Eh          -10.2496 eV

  Mulliken/CM5 charges         n(s)   n(p)   n(d)
     1C     0.16115  0.04026   0.982  2.856  0.000
     2O    -0.39797 -0.48090   1.682  4.716  0.000
     3C     0.57493  0.63972   0.971  2.454  0.000
     4O    -0.56700 -0.63309   1.726  4.841  0.000
     5C     0.08588  0.16662   1.044  2.870  0.000
     6N    -0.36132 -0.54634   1.538  3.824  0.000
     7C     0.28440  0.43943   1.021  2.694  0.000
     8C     0.15499  0.19682   1.062  2.783  0.000
     9C    -0.10080 -0.23904   1.016  3.085  0.000
    10C    -0.10021 -0.23926   1.019  3.081  0.000
    11N    -0.33351 -0.68396   1.430  3.903  0.000
    12C     0.46526  0.57507   0.974  2.560  0.000
    13O    -0.58626 -0.63071   1.727  4.859  0.000
    14C     0.33041  0.45620   1.010  2.659  0.000
    15N    -0.22692 -0.33074   1.567  3.660  0.000
    16N    -0.27106 -0.37885   1.565  3.706  0.000
    17C     0.38997  0.49871   1.007  2.603  0.000
    18C    -0.11140 -0.24883   1.012  3.100  0.000
    19O    -0.35864 -0.41503   1.697  4.662  0.000
    20N    -0.38826 -0.57366   1.530  3.858  0.000
    21C     0.39812  0.50535   0.982  2.620  0.000
    22O    -0.40477 -0.48412   1.668  4.737  0.000
    23C     0.16133  0.04114   0.981  2.858  0.000
    24C     0.22677  0.25984   1.019  2.754  0.000
    25O    -0.52382 -0.71957   1.699  4.825  0.000
    26H     0.05768  0.11964   0.942  0.000  0.000
    27H     0.05678  0.11708   0.943  0.000  0.000
    28H     0.05739  0.11911   0.943  0.000  0.000
    29H     0.04226  0.10103   0.958  0.000  0.000
    30H     0.05347  0.11318   0.947  0.000  0.000
    31H     0.04067  0.09796   0.959  0.000  0.000
    32H     0.04345  0.09893   0.957  0.000  0.000
    33H     0.05685  0.11642   0.943  0.000  0.000
    34H     0.04251  0.10004   0.957  0.000  0.000
    35H     0.25548  0.46962   0.745  0.000  0.000
    36H     0.07806  0.13267   0.922  0.000  0.000
    37H     0.07846  0.13290   0.922  0.000  0.000
    38H     0.06890  0.12470   0.931  0.000  0.000
    39H     0.05099  0.11409   0.949  0.000  0.000
    40H     0.04993  0.11304   0.950  0.000  0.000
    41H     0.05310  0.11355   0.947  0.000  0.000
    42H     0.41273  0.60095   0.587  0.000  0.000

Wiberg/Mayer (AO) data.
largest (>0.10) Wiberg bond orders for each atom

 ---------------------------------------------------------------------------
     #   Z sym  total        # sym  WBO       # sym  WBO       # sym  WBO
 ---------------------------------------------------------------------------
     1   6 C    3.865 --    27 H    0.986    26 H    0.979    28 H    0.979
                             2 O    0.891
     2   8 O    2.223 --     3 C    1.142     1 C    0.891     4 O    0.132
     3   6 C    3.845 --     4 O    1.611     2 O    1.142     5 C    1.009
     4   8 O    1.951 --     3 C    1.611     2 O    0.132
     5   6 C    3.969 --    24 C    1.382     6 N    1.299     3 C    1.009
     6   7 N    3.029 --     7 C    1.455     5 C    1.299
     7   6 C    3.946 --     6 N    1.455    20 N    1.327     8 C    0.982
     8   6 C    3.935 --     9 C    0.990     7 C    0.982    10 C    0.973
                            11 N    0.926
     9   6 C    3.990 --     8 C    0.990    31 H    0.986    29 H    0.983
                            30 H    0.982
    10   6 C    3.989 --    32 H    0.986    34 H    0.986    33 H    0.980
                             8 C    0.973
    11   7 N    3.367 --    12 C    1.280     8 C    0.926    35 H    0.883
                            13 O    0.181
    12   6 C    3.920 --    13 O    1.571    11 N    1.280    14 C    0.988
    13   8 O    1.891 --    12 C    1.571    11 N    0.181
    14   6 C    3.870 --    15 N    1.626    19 O    1.047    12 C    0.988
    15   7 N    2.997 --    14 C    1.626    16 N    1.195
    16   7 N    2.981 --    17 C    1.615    15 N    1.195
    17   6 C    3.870 --    16 N    1.615    19 O    1.072    18 C    1.031
    18   6 C    3.987 --    17 C    1.031    38 H    0.983    36 H    0.964
                            37 H    0.963
    19   8 O    2.315 --    17 C    1.072    14 C    1.047
    20   7 N    3.032 --    21 C    1.394     7 C    1.327
    21   6 C    3.907 --    20 N    1.394    24 C    1.212    22 O    1.092
    22   8 O    2.190 --    21 C    1.092    23 C    0.899
    23   6 C    3.871 --    41 H    0.984    40 H    0.980    39 H    0.979
                            22 O    0.899
    24   6 C    3.926 --     5 C    1.382    21 C    1.212    25 O    1.099
    25   8 O    2.071 --    24 C    1.099    42 H    0.767
    26   1 H    1.006 --     1 C    0.979
    27   1 H    1.010 --     1 C    0.986
    28   1 H    1.006 --     1 C    0.979
    29   1 H    1.013 --     9 C    0.983
    30   1 H    1.010 --     9 C    0.982
    31   1 H    1.003 --     9 C    0.986
    32   1 H    1.003 --    10 C    0.986
    33   1 H    1.009 --    10 C    0.980
    34   1 H    1.004 --    10 C    0.986
    35   1 H    0.957 --    11 N    0.883
    36   1 H    0.997 --    18 C    0.964
    37   1 H    0.997 --    18 C    0.963
    38   1 H    0.999 --    18 C    0.983
    39   1 H    1.012 --    23 C    0.979
    40   1 H    1.011 --    23 C    0.980
    41   1 H    1.012 --    23 C    0.984
    42   1 H    0.847 --    25 O    0.767
 ---------------------------------------------------------------------------

Topologies differ in total number of bonds
Writing topology from bond orders to xtbtopo.mol

 dipole moment from electron density (au)
     X       Y       Z   
  -3.1914   2.5858  -2.5513  total (Debye):   12.290

           -------------------------------------------------
          |                Geometry Summary                 |
           -------------------------------------------------

      molecular mass/u    :      351.3152409
   center of mass at/Å    :        0.1909746      -0.0254375       0.0138427
  moments of inertia/u·Å² :        0.1378407E+04   0.4441588E+04   0.5473029E+04
rotational constants/cm⁻¹ :        0.1222980E-01   0.3795407E-02   0.3080128E-02

 * 39 selected distances

     #   Z          #   Z                                           value/Å
     1   6 C        2   8 O                                       1.4322220
     2   8 O        3   6 C                                       1.3230527
     3   6 C        4   8 O                                       1.2186553
     5   6 C        6   7 N                                       1.3449235
     6   7 N        7   6 C                                       1.3149397
     8   6 C        9   6 C                                       1.5317169
     8   6 C       10   6 C                                       1.5380247 (max)
     8   6 C       11   7 N                                       1.4629901
    11   7 N       12   6 C                                       1.3423876
    12   6 C       13   8 O                                       1.2223759
    14   6 C       15   7 N                                       1.2968927
    16   7 N       17   6 C                                       1.2961602
    17   6 C       18   6 C                                       1.4791713
    14   6 C       19   8 O                                       1.3511302
    17   6 C       19   8 O                                       1.3435899
     7   6 C       20   7 N                                       1.3377474
    20   7 N       21   6 C                                       1.3220748
    21   6 C       22   8 O                                       1.3360087
    22   8 O       23   6 C                                       1.4259324
     5   6 C       24   6 C                                       1.3923455
    21   6 C       24   6 C                                       1.4229897
    24   6 C       25   8 O                                       1.3403445
     1   6 C       26   1 H                                       1.0919749
     1   6 C       27   1 H                                       1.0879892
     1   6 C       28   1 H                                       1.0921083
     9   6 C       29   1 H                                       1.0888510
     9   6 C       30   1 H                                       1.0885199
     9   6 C       31   1 H                                       1.0889820
    10   6 C       32   1 H                                       1.0888138
    10   6 C       33   1 H                                       1.0887424
    10   6 C       34   1 H                                       1.0890412
    11   7 N       35   1 H                                       1.0111482
    18   6 C       36   1 H                                       1.0896496
    18   6 C       37   1 H                                       1.0898144
    18   6 C       38   1 H                                       1.0872296
    23   6 C       39   1 H                                       1.0921145
    23   6 C       40   1 H                                       1.0922474
    23   6 C       41   1 H                                       1.0907584
    25   8 O       42   1 H                                       0.9873121 (min)

 * 6 distinct bonds (by element types)

   Z      Z             #   av. dist./Å        max./Å        min./Å
   1 H    6 C          15     1.0897891     1.0922474     1.0872296
   6 C    6 C           5     1.4728496     1.5380247     1.3923455
   1 H    7 N           1     1.0111482     1.0111482     1.0111482
   6 C    7 N           8     1.3397645     1.4629901     1.2961602
   1 H    8 O           1     0.9873121     0.9873121     0.9873121
   6 C    8 O           9     1.3325902     1.4322220     1.2186553


optimized geometry written to: xtbopt.xyz


           -------------------------------------------------
          | TOTAL ENERGY              -83.012676255949 Eh   |
          | GRADIENT NORM               0.000304521250 Eh/α |
          | HOMO-LUMO GAP               2.778696408591 eV   |
           -------------------------------------------------

------------------------------------------------------------------------
 * finished run on 2023/06/20 at 18:31:19.830     
------------------------------------------------------------------------
 total:
 * wall-time:     0 d,  0 h,  0 min,  7.395 sec
 *  cpu-time:     0 d,  0 h,  0 min,  6.324 sec
 * ratio c/w:     0.855 speedup
 SCF:
 * wall-time:     0 d,  0 h,  0 min,  0.247 sec
 *  cpu-time:     0 d,  0 h,  0 min,  0.157 sec
 * ratio c/w:     0.635 speedup
 ANC optimizer:
 * wall-time:     0 d,  0 h,  0 min,  7.053 sec
 *  cpu-time:     0 d,  0 h,  0 min,  6.118 sec
 * ratio c/w:     0.867 speedup

