42
 energy: -82.976046968746 gnorm: 0.000494050781 xtb: 6.5.1 (579679a)
C           -6.72224274446365        0.31042825382980        0.85245412491361
O           -5.40966308189677        0.37691070538823        0.29223452340621
C           -4.48620112781348       -0.42611258514499        0.85051726296328
O           -4.73477871140786       -1.17258407877334        1.77556461326314
C           -3.17876165052816       -0.28207988948897        0.22573822077444
C           -2.85136064204979        0.53486852369669       -0.83654531296223
O           -3.31220641398089        1.34184953321157       -1.58518538866085
C           -0.50798054526850        1.46518824890780       -0.87725821894882
C           -0.60296138084528        2.09472511266622        0.46606377808859
O            0.05001845178701        1.90043291430010       -1.83600680723197
N           -1.23647203556904        0.19759474801326       -1.02094313406391
C           -1.04444001154600       -0.82273643583085        0.02932571704538
C            0.23309764768079       -1.60519451444026        0.15572810362954
C            0.27899144720424       -2.66613518563472       -0.95795623680844
C            0.26040413867244       -2.25602486011731        1.54372498633895
N            1.37521612010775       -0.70101590458214        0.00496366404365
C            2.66518062753456       -1.10923902500538        0.06924454860354
O            3.04339088380114       -2.23036458372808        0.34858147206310
C            3.57390804569608        0.02412617284733       -0.23641207508201
N            3.20362575305845        1.23418061815136       -0.53365112040847
N            4.34059603314027        1.95054594884385       -0.74990178622834
C            5.33366849935913        1.13178187878230       -0.57088624268528
C            6.77831566177961        1.42797475732649       -0.68530036949723
O            4.91276943483786       -0.09882152915253       -0.24392143002334
N           -2.11187568556307       -1.05345510888549        0.67501868139713
H           -7.12597379971115       -0.70067134831975        0.75389949889326
H           -7.33537958944263        1.01617488062268        0.29495729913421
H           -6.69702445393833        0.58650585381473        1.90987908134740
H            0.32163269963217        2.62947188050426        0.67384812875453
H           -0.80794082893760        1.36618652140763        1.24547722079992
H           -1.41592428877822        2.82254443660376        0.43510278359349
H           -1.08471203384795       -0.15492686632804       -1.96382189312286
H           -0.61130116619186       -3.28976812708554       -0.90529118950565
H            1.16216591291416       -3.29045341537721       -0.83451207751652
H            0.31985552983404       -2.17990477897467       -1.93069342868667
H            1.14049339818791       -2.88734377809996        1.64465831838693
H            0.27949400493173       -1.48475421319341        2.31207918974709
H           -0.63372021285879       -2.86387453032298        1.67332793410756
H            1.21527550212752        0.23564284752513       -0.33249934199383
H            7.26105122578359        1.30380106906606        0.28427208505235
H            6.91476338562828        2.45002073124284       -1.02988293537921
H            7.24700400093977        0.73758212173375       -1.38599224755547
