42
 energy: -83.593850983097 gnorm: 0.000678166576 xtb: 6.5.1 (579679a)
C           -3.56245375656913        3.96332858669097        1.15256656168965
O           -3.53793167270149        2.57189786115969        0.93312796931521
C           -2.26195786666749        2.02795615112842        0.71628746989867
O           -1.28129369347068        2.80649817353259        0.74222288265904
C           -2.22626927023330        0.63977137630327        0.48379020444452
C           -3.39462758531080       -0.26930636872033        0.45950086899357
O           -4.59076334345528        0.12008878578669        0.64857437486372
C           -3.07262878187299       -1.60871568356062        0.22813942922522
O           -3.98472331085289       -2.66376855679955        0.17851851164583
C           -4.99595044638111       -2.56181350128200       -0.81640580359239
N           -1.75211643060002       -2.01867165683934       -0.05883161253356
C           -0.72958380759672       -1.10748828299246        0.02089785259175
C            0.68071455860195       -1.63031302094517       -0.22234619885862
C            0.74818160077777       -2.34776099459677       -1.58136338518563
C            1.07491289971081       -2.59702343311253        0.91094487599003
N            1.55958050429607       -0.47366212833351       -0.23620958892103
C            2.93012685276298       -0.54950095510848       -0.32487591141671
O            3.54544398044011       -1.60450340498865       -0.59075361955542
C            3.55332640012581        0.73003579506926       -0.11771452492257
N            2.93585894825643        1.87485678141874        0.16780023614534
N            3.91283582317312        2.82390729734080        0.29052719460425
C            5.04584014267525        2.23814569772876        0.08301056762337
C            6.39325887046163        2.85948366768885        0.10595438995894
O            4.91867050940276        0.91633039440754       -0.18219361514071
N           -0.93203236701406        0.13508230401954        0.26598446206580
H           -3.15195144454216        4.51548496945210        0.29611967098974
H           -2.98875348333188        4.24313381785677        2.04670317718824
H           -4.60505367770701        4.25442280691334        1.29508316956807
H           -5.65821396755719       -1.70673723750767       -0.62395032996954
H           -4.56120846644721       -2.46071817094358       -1.81994727780204
H           -5.57881671513956       -3.48395985660338       -0.77418535498087
H           -1.58216882195245       -3.00436346073599       -0.13305384147193
H            0.06947054556905       -3.19821369458826       -1.59232308244348
H            0.46592270471402       -1.66086683782734       -2.37925598675127
H            1.75892940398214       -2.70865483142842       -1.76596924019988
H            1.07349608429676       -2.07299033276698        1.86664347907362
H            2.06823662335290       -3.00582994116903        0.73221614011653
H            0.36431617266377       -3.42026970207603        0.95943672081253
H            1.14523432104030        0.39268337915540        0.10869636979028
H            6.30278975629611        3.91561587150268        0.34808572952893
H            6.87678019666742        2.75383658791855       -0.86543256813510
H            7.02457301013447        2.37257174785108        0.84922363308289
