      -----------------------------------------------------------      
     |                   =====================                   |     
     |                           x T B                           |     
     |                   =====================                   |     
     |                         S. Grimme                         |     
     |          Mulliken Center for Theoretical Chemistry        |     
     |                    University of Bonn                     |     
      -----------------------------------------------------------      

   * xtb version 6.5.1 (579679a) compiled by 'ehlert@majestix' on 2022-07-11

   xtb is free software: you can redistribute it and/or modify it under
   the terms of the GNU Lesser General Public License as published by
   the Free Software Foundation, either version 3 of the License, or
   (at your option) any later version.
   
   xtb is distributed in the hope that it will be useful,
   but WITHOUT ANY WARRANTY; without even the implied warranty of
   MERCHANTABILITY or FITNESS FOR A PARTICULAR PURPOSE.  See the
   GNU Lesser General Public License for more details.
   
   Cite this work as:
   * C. Bannwarth, E. Caldeweyher, S. Ehlert, A. Hansen, P. Pracht,
     J. Seibert, S. Spicher, S. Grimme, WIREs Comput. Mol. Sci., 2020, 11,
     e01493. DOI: 10.1002/wcms.1493
   
   for GFN2-xTB:
   * C. Bannwarth, S. Ehlert and S. Grimme., J. Chem. Theory Comput., 2019,
     15, 1652-1671. DOI: 10.1021/acs.jctc.8b01176
   for GFN1-xTB:
   * S. Grimme, C. Bannwarth, P. Shushkov, J. Chem. Theory Comput., 2017,
     13, 1989-2009. DOI: 10.1021/acs.jctc.7b00118
   for GFN0-xTB:
   * P. Pracht, E. Caldeweyher, S. Ehlert, S. Grimme, ChemRxiv, 2019, preprint.
     DOI: 10.26434/chemrxiv.8326202.v1
   for GFN-FF:
   * S. Spicher and S. Grimme, Angew. Chem. Int. Ed., 2020, 59, 15665-15673.
     DOI: 10.1002/anie.202004239
   
   for ALPB and GBSA implicit solvation:
   * S. Ehlert, M. Stahn, S. Spicher, S. Grimme, J. Chem. Theory Comput.,
     2021, 17, 4250-4261. DOI: 10.1021/acs.jctc.1c00471
   
   for DFT-D4:
   * E. Caldeweyher, C. Bannwarth and S. Grimme, J. Chem. Phys., 2017,
     147, 034112. DOI: 10.1063/1.4993215
   * E. Caldeweyher, S. Ehlert, A. Hansen, H. Neugebauer, S. Spicher,
     C. Bannwarth and S. Grimme, J. Chem. Phys., 2019, 150, 154122.
     DOI: 10.1063/1.5090222
   * E. Caldeweyher, J.-M. Mewes, S. Ehlert and S. Grimme, Phys. Chem. Chem. Phys.
     2020, 22, 8499-8512. DOI: 10.1039/D0CP00502A
   
   for sTDA-xTB:
   * S. Grimme and C. Bannwarth, J. Chem. Phys., 2016, 145, 054103.
     DOI: 10.1063/1.4959605
   
   in the mass-spec context:
   * V. Asgeirsson, C. Bauer and S. Grimme, Chem. Sci., 2017, 8, 4879.
     DOI: 10.1039/c7sc00601b
   * J. Koopman and S. Grimme, ACS Omega 2019, 4, 12, 15120-15133.
     DOI: 10.1021/acsomega.9b02011
   
   for metadynamics refer to:
   * S. Grimme, J. Chem. Theory Comput., 2019, 155, 2847-2862
     DOI: 10.1021/acs.jctc.9b00143
   
   for SPH calculations refer to:
   * S. Spicher and S. Grimme, J. Chem. Theory Comput., 2021, 17, 1701-1714
     DOI: 10.1021/acs.jctc.0c01306
   
   with help from (in alphabetical order)
   P. Atkinson, C. Bannwarth, F. Bohle, G. Brandenburg, E. Caldeweyher
   M. Checinski, S. Dohm, S. Ehlert, S. Ehrlich, I. Gerasimov, C. Hölzer
   A. Katbashev, J. Koopman, C. Lavigne, S. Lehtola, F. März, M. Müller,
   F. Musil, H. Neugebauer, J. Pisarek, C. Plett, P. Pracht, F. Pultar,
   J. Seibert, P. Shushkov, S. Spicher, M. Stahn, M. Steiner, T. Strunk,
   J. Stückrath, T. Rose, and J. Unsleber
   
 * started run on 2023/06/21 at 17:29:25.447     

           -------------------------------------------------
          |                Calculation Setup                |
           -------------------------------------------------

          program call               : /lustre/hpc/kemi/ree/PhD/git/ReactivityQM/dep/xtb-6.5.1/bin/xtb --gfn 1 /lustre/hpc/kemi/ree/PhD/git/ReactivityQM/calculations/R02methylcation/reac01prodN01/conf05/R02methylcation_reac01prodN01_conf05_gfn1.xyz --opt --vfukui --chrg 0 --uhf 0 --alpb DMSO
          hostname                   : node317
          coordinate file            : /lustre/hpc/kemi/ree/PhD/git/ReactivityQM/calculations/R02methylcation/reac01prodN01/conf05/R02methylcation_reac01prodN01_conf05_gfn1.xyz
          omp threads                :                     1

   ID    Z sym.   atoms
    1    6 C      1, 3, 5, 7-10, 12, 14, 17, 18, 20, 22, 24
    2    8 O      2, 4, 13, 19, 23, 25
    3    7 N      6, 11, 15, 16, 21
    4    1 H      26-42

           -------------------------------------------------
          |                 G F N 1 - x T B                 |
           -------------------------------------------------

        Reference                      10.1021/acs.jctc.7b00118
      * Hamiltonian:
        H0-scaling (s, p, d)           1.850000    2.250000    2.000000
        zeta-weighting                 0.000000
      * Dispersion:
        s8                             2.400000
        a1                             0.630000
        a2                             5.000000
        s9                             0.000000
      * Repulsion:
        kExp                           1.500000
        rExp                           1.000000
      * Coulomb:
        alpha                          2.000000
        third order                    atomic
        anisotropic                    false
      * Halogen bond correction:
        rad-scale                      1.300000
        damping                        0.440000

      * Solvation model:               ALPB
        Solvent                        DMSO
        Parameter file                 internal GFN1-xTB/ALPB
        Dielectric constant                4.6680E+01
        Reference state                gsolv [1 M gas/solution]
        Free energy shift                  7.6243E-03 Eh       4.7843E+00 kcal/mol
        Temperature                        2.9815E+02 K
        Density                            1.1000E+00 kg/L
        Solvent mass                       7.8130E+01 g/mol
        Interaction kernel             P16
        Born radius scaling (c1)           1.7672E+00
        Born radii integrator          GBOBC
        Born offset                        0.0000E+00 a0       0.0000E+00 AA
        H-bond correction              true
        Ion screening                  false
        Surface tension                    1.0000E-05 Eh       1.5569E+01 dyn/cm
        Grid points                               230 per atom

          ...................................................
          :                      SETUP                      :
          :.................................................:
          :  # basis functions                 134          :
          :  # atomic orbitals                 134          :
          :  # shells                           84          :
          :  # electrons                       134          :
          :  # halogen bonds                     0          :
          :  max. iterations                   250          :
          :  Hamiltonian                  GFN1-xTB          :
          :  restarted?                      false          :
          :  GBSA solvation                   true          :
          :  PC potential                    false          :
          :  electronic temp.          300.0000000     K    :
          :  accuracy                    1.0000000          :
          :  -> integral cutoff          0.2500000E+02      :
          :  -> integral neglect         0.1000000E-07      :
          :  -> SCF convergence          0.1000000E-05 Eh   :
          :  -> wf. convergence          0.2000000E-04 e    :
          :  Broyden damping             0.4000000          :
          ...................................................

 iter      E             dE          RMSdq      gap      omega  full diag
   1    -83.2441429 -0.832441E+02  0.852E+00    2.65       0.0  T
   2    -83.6110277 -0.366885E+00  0.510E+00    0.62       1.0  T
   3    -83.2693248  0.341703E+00  0.241E+00    0.45       1.0  T
   4    -83.5484900 -0.279165E+00  0.135E+00    2.43       1.0  T
   5    -83.6221014 -0.736114E-01  0.592E-01    1.68       1.0  T
   6    -83.6311208 -0.901937E-02  0.411E-01    0.90       1.0  T
   7    -83.6372964 -0.617565E-02  0.238E-01    0.25       1.0  T
   8    -83.3089347  0.328362E+00  0.162E+00    0.33       1.0  T
   9    -83.6357976 -0.326863E+00  0.272E-01    0.34       1.0  T
  10    -83.6353930  0.404597E-03  0.279E-01    0.38       1.0  T
  11    -83.6359972 -0.604231E-03  0.259E-01    0.32       1.0  T
  12    -83.6381357 -0.213850E-02  0.207E-01    0.21       1.0  T
  13    -83.6411633 -0.302753E-02  0.130E-01    0.15       1.0  T
  14    -83.6424077 -0.124445E-02  0.819E-02    0.13       1.0  T
  15    -83.6432408 -0.833087E-03  0.845E-03    0.11       1.8  T
  16    -83.6429310  0.309841E-03  0.499E-02    0.12       1.0  T
  17    -83.6430694 -0.138477E-03  0.373E-02    0.09       1.0  T
  18    -83.6431954 -0.126012E-03  0.205E-02    0.11       1.0  T
  19    -83.6432331 -0.376860E-04  0.112E-02    0.10       1.4  T
  20    -83.6432481 -0.149789E-04  0.314E-03    0.10       4.9  T
  21    -83.6432493 -0.115196E-05  0.948E-04    0.10      16.3  T
  22    -83.6432494 -0.109948E-06  0.215E-04    0.10      71.6  T
  23    -83.6432494 -0.595962E-08  0.126E-05    0.10    1221.0  T
  24    -83.6432494 -0.205773E-10  0.135E-06    0.10   11400.0  T

   *** convergence criteria satisfied after 24 iterations ***

         #    Occupation            Energy/Eh            Energy/eV
      -------------------------------------------------------------
         1        2.0000           -0.9295371             -25.2940
       ...           ...                  ...                  ...
        61        2.0000           -0.4684039             -12.7459
        62        2.0000           -0.4641987             -12.6315
        63        2.0000           -0.4611720             -12.5491
        64        2.0000           -0.4514307             -12.2841
        65        2.0000           -0.4360707             -11.8661
        66        2.0000           -0.3930047             -10.6942
        67        1.7642           -0.3764878             -10.2448 (HOMO)
        68        0.2358           -0.3726635             -10.1407 (LUMO)
        69                         -0.3045054              -8.2860
        70                         -0.2867600              -7.8031
        71                         -0.2592795              -7.0554
        72                         -0.2358477              -6.4177
       ...                                ...                  ...
       134                          0.7976827              21.7061
      -------------------------------------------------------------
                  HL-Gap            0.0038243 Eh            0.1041 eV
             Fermi-level           -0.3745756 Eh          -10.1927 eV

 SCC (total)                   0 d,  0 h,  0 min,  0.274 sec
 SCC setup                      ...        0 min,  0.002 sec (  0.751%)
 Dispersion                     ...        0 min,  0.000 sec (  0.145%)
 classical contributions        ...        0 min,  0.000 sec (  0.045%)
 integral evaluation            ...        0 min,  0.059 sec ( 21.673%)
 iterations                     ...        0 min,  0.130 sec ( 47.400%)
 molecular gradient             ...        0 min,  0.081 sec ( 29.628%)
 printout                       ...        0 min,  0.001 sec (  0.340%)

         :::::::::::::::::::::::::::::::::::::::::::::::::::::
         ::                     SUMMARY                     ::
         :::::::::::::::::::::::::::::::::::::::::::::::::::::
         :: total energy             -82.878176243443 Eh    ::
         :: total w/o Gsasa/hb       -82.856971589664 Eh    ::
         :: gradient norm              0.142097722588 Eh/a0 ::
         :: HOMO-LUMO gap              0.104064647321 eV    ::
         ::.................................................::
         :: SCC energy               -83.643249373572 Eh    ::
         :: -> electrostatic           0.439013789608 Eh    ::
         :: -> Gsolv                  -0.103963060098 Eh    ::
         ::    -> Gelec               -0.082758406319 Eh    ::
         ::    -> Gsasa               -0.024554322444 Eh    ::
         ::    -> Ghb                 -0.004274610340 Eh    ::
         ::    -> Gshift               0.007624279005 Eh    ::
         :: repulsion energy           0.791237373934 Eh    ::
         :: dispersion energy         -0.026164243805 Eh    ::
         :: halogen bond corr.         0.000000000000 Eh    ::
         :: add. restraining           0.000000000000 Eh    ::
         :: total charge              -0.000000000001 e     ::
         :::::::::::::::::::::::::::::::::::::::::::::::::::::

      ----------------------------------------------------------- 
     |                   =====================                   |
     |                        A N C O P T                        |
     |                   =====================                   |
     |               Approximate Normal Coordinate               |
     |                Rational Function Optimizer                |
      ----------------------------------------------------------- 

          ...................................................
          :                      SETUP                      :
          :.................................................:
          :   optimization level            normal          :
          :   max. optcycles                   200          :
          :   ANC micro-cycles                  20          :
          :   degrees of freedom               120          :
          :.................................................:
          :   RF solver                   davidson          :
          :   write xtbopt.log                true          :
          :   linear?                        false          :
          :   energy convergence         0.5000000E-05 Eh   :
          :   grad. convergence          0.1000000E-02 Eh/α :
          :   maximium RF displ.         1.0000000          :
          :   Hlow (freq-cutoff)         0.1000000E-01      :
          :   Hmax (freq-cutoff)         5.0000000          :
          :   S6 in model hess.         20.0000000          :
          ...................................................

generating ANC from model Hessian ...
Using Lindh-Hessian (1995)
 Shifting diagonal of input Hessian by   9.829288952252867E-003
 Lowest  eigenvalues of input Hessian
    0.000000    0.000000    0.000000    0.000000    0.000000    0.000000
    0.010000    0.010118    0.010435    0.011684    0.011901    0.012106
    0.013034    0.013536    0.014344    0.015432    0.016292    0.017283
 Highest eigenvalues
    2.068135    2.088034    2.255490    2.333217    2.342231    2.458789
 

........................................................................
.............................. CYCLE    1 ..............................
........................................................................
   1    -83.6432494 -0.836432E+02  0.458E-07    0.10       0.0  T
   2    -83.6432494  0.206057E-11  0.400E-06    0.10    3861.7  T
   3    -83.6432494 -0.191847E-11  0.466E-08    0.10  100000.0  T
     SCC iter.                  ...        0 min,  0.012 sec
     gradient                   ...        0 min,  0.080 sec
 * total energy  :   -82.8781762 Eh     change       -0.5684342E-13 Eh
   gradient norm :     0.1420979 Eh/α   predicted     0.0000000E+00 (-100.00%)
   displ. norm   :     0.3909045 α      lambda       -0.2332239E-01
   maximum displ.:     0.1558008 α      in ANC's #24, #20, #26, ...

........................................................................
.............................. CYCLE    2 ..............................
........................................................................
   1    -83.6553131 -0.836553E+02  0.222E-01    0.39       0.0  T
   2    -83.3224206  0.332892E+00  0.163E+00    0.17       1.0  T
   3    -83.6563972 -0.333977E+00  0.186E-01    0.31       1.0  T
   4    -83.6569876 -0.590400E-03  0.167E-01    0.26       1.0  T
   5    -83.6592398 -0.225211E-02  0.904E-02    0.16       1.0  T
   6    -83.6602200 -0.980244E-03  0.749E-03    0.12       2.1  T
   7    -83.6601795  0.404646E-04  0.197E-02    0.13       1.0  T
   8    -83.6602261 -0.465464E-04  0.223E-03    0.12       6.9  T
   9    -83.6602268 -0.675104E-06  0.338E-04    0.12      45.6  T
  10    -83.6602267  0.290312E-07  0.574E-04    0.12      26.9  T
  11    -83.6602268 -0.270881E-07  0.295E-04    0.12      52.3  T
  12    -83.6602268 -0.103469E-07  0.134E-05    0.12    1147.6  T
  13    -83.6602268 -0.222116E-10  0.262E-06    0.12    5878.6  T
     SCC iter.                  ...        0 min,  0.048 sec
     gradient                   ...        0 min,  0.080 sec
 * total energy  :   -82.8958407 Eh     change       -0.1766443E-01 Eh
   gradient norm :     0.0779612 Eh/α   predicted    -0.1348404E-01 ( -23.67%)
   displ. norm   :     0.4436058 α      lambda       -0.1389489E-01
   maximum displ.:     0.1858609 α      in ANC's #20, #26, #24, ...

........................................................................
.............................. CYCLE    3 ..............................
........................................................................
   1    -83.6775048 -0.836775E+02  0.180E-01    0.48       0.0  T
   2    -83.6628479  0.146570E-01  0.380E-01    0.06       1.0  T
   3    -83.6785607 -0.157128E-01  0.123E-01    0.36       1.0  T
   4    -83.6788798 -0.319122E-03  0.103E-01    0.29       1.0  T
   5    -83.6799393 -0.105950E-02  0.130E-02    0.15       1.2  T
   6    -83.6799274  0.119225E-04  0.148E-02    0.15       1.0  T
   7    -83.6799337 -0.633194E-05  0.135E-02    0.17       1.1  T
   8    -83.6799531 -0.194042E-04  0.322E-03    0.16       4.8  T
   9    -83.6799542 -0.112144E-05  0.130E-03    0.16      11.9  T
  10    -83.6799544 -0.175437E-06  0.347E-04    0.16      44.4  T
  11    -83.6799544 -0.100934E-07  0.147E-04    0.16     104.8  T
  12    -83.6799544 -0.243026E-08  0.461E-06    0.16    3347.6  T
     SCC iter.                  ...        0 min,  0.042 sec
     gradient                   ...        0 min,  0.081 sec
 * total energy  :   -82.9047286 Eh     change       -0.8887924E-02 Eh
   gradient norm :     0.0253183 Eh/α   predicted    -0.8314610E-02 (  -6.45%)
   displ. norm   :     0.3543551 α      lambda       -0.3607932E-02
   maximum displ.:     0.1576046 α      in ANC's #26, #20, #18, ...

........................................................................
.............................. CYCLE    4 ..............................
........................................................................
   1    -83.6840861 -0.836841E+02  0.862E-02    0.31       0.0  T
   2    -83.6814090  0.267711E-02  0.170E-01    0.11       1.0  T
   3    -83.6844955 -0.308655E-02  0.513E-02    0.25       1.0  T
   4    -83.6846086 -0.113035E-03  0.370E-02    0.23       1.0  T
   5    -83.6847054 -0.968528E-04  0.176E-02    0.17       1.0  T
   6    -83.6847413 -0.358639E-04  0.259E-03    0.18       6.0  T
   7    -83.6847420 -0.750965E-06  0.483E-04    0.19      31.9  T
   8    -83.6847420  0.620261E-09  0.311E-04    0.19      49.7  T
   9    -83.6847420 -0.117037E-07  0.467E-05    0.19     330.3  T
  10    -83.6847420  0.132445E-10  0.240E-05    0.19     642.3  T
     SCC iter.                  ...        0 min,  0.037 sec
     gradient                   ...        0 min,  0.081 sec
 * total energy  :   -82.9073976 Eh     change       -0.2669049E-02 Eh
   gradient norm :     0.0194500 Eh/α   predicted    -0.2030543E-02 ( -23.92%)
   displ. norm   :     0.3912921 α      lambda       -0.2480171E-02
   maximum displ.:     0.1527577 α      in ANC's #26, #20, #8, ...

........................................................................
.............................. CYCLE    5 ..............................
........................................................................
   1    -83.6863384 -0.836863E+02  0.528E-02    0.30       0.0  T
   2    -83.6864153 -0.769139E-04  0.460E-02    0.19       1.0  T
   3    -83.6865660 -0.150745E-03  0.157E-02    0.23       1.0  T
   4    -83.6865767 -0.106929E-04  0.665E-03    0.22       2.3  T
   5    -83.6865768 -0.166961E-07  0.277E-03    0.22       5.6  T
   6    -83.6865771 -0.358890E-06  0.666E-04    0.22      23.2  T
   7    -83.6865771 -0.132515E-07  0.226E-04    0.22      68.3  T
   8    -83.6865771 -0.222589E-08  0.833E-05    0.22     185.2  T
   9    -83.6865771 -0.141455E-09  0.249E-05    0.22     620.3  T
     SCC iter.                  ...        0 min,  0.038 sec
     gradient                   ...        0 min,  0.081 sec
 * total energy  :   -82.9091293 Eh     change       -0.1731706E-02 Eh
   gradient norm :     0.0169743 Eh/α   predicted    -0.1429957E-02 ( -17.42%)
   displ. norm   :     0.3127501 α      lambda       -0.1259483E-02
   maximum displ.:     0.1081495 α      in ANC's #16, #8, #26, ...

........................................................................
.............................. CYCLE    6 ..............................
........................................................................
   1    -83.6890475 -0.836890E+02  0.259E-02    0.28       0.0  T
   2    -83.6890878 -0.402584E-04  0.181E-02    0.23       1.0  T
   3    -83.6891045 -0.166648E-04  0.542E-03    0.25       2.8  T
   4    -83.6891045 -0.138421E-07  0.278E-03    0.24       5.6  T
   5    -83.6891047 -0.180316E-06  0.759E-04    0.25      20.3  T
   6    -83.6891047 -0.951063E-08  0.168E-04    0.25      91.8  T
   7    -83.6891047 -0.424834E-09  0.700E-05    0.25     220.6  T
     SCC iter.                  ...        0 min,  0.025 sec
     gradient                   ...        0 min,  0.077 sec
 * total energy  :   -82.9100476 Eh     change       -0.9182835E-03 Eh
   gradient norm :     0.0157005 Eh/α   predicted    -0.6913390E-03 ( -24.71%)
   displ. norm   :     0.3123724 α      lambda       -0.9986530E-03
   maximum displ.:     0.1271124 α      in ANC's #16, #8, #15, ...

........................................................................
.............................. CYCLE    7 ..............................
........................................................................
   1    -83.6913460 -0.836913E+02  0.145E-02    0.27       0.0  T
   2    -83.6913546 -0.862576E-05  0.800E-03    0.26       1.9  T
   3    -83.6913561 -0.151222E-05  0.422E-03    0.26       3.7  T
   4    -83.6913562 -0.815825E-07  0.157E-03    0.26       9.8  T
   5    -83.6913562 -0.124885E-07  0.270E-04    0.26      57.1  T
   6    -83.6913562 -0.289749E-08  0.991E-05    0.26     155.7  T
   7    -83.6913562 -0.140261E-09  0.346E-05    0.26     446.4  T
     SCC iter.                  ...        0 min,  0.025 sec
     gradient                   ...        0 min,  0.077 sec
 * total energy  :   -82.9107978 Eh     change       -0.7501420E-03 Eh
   gradient norm :     0.0130461 Eh/α   predicted    -0.5480499E-03 ( -26.94%)
   displ. norm   :     0.3373901 α      lambda       -0.8772806E-03
   maximum displ.:     0.1447275 α      in ANC's #16, #8, #17, ...

........................................................................
.............................. CYCLE    8 ..............................
........................................................................
   1    -83.6929925 -0.836930E+02  0.159E-02    0.27       0.0  T
   2    -83.6929980 -0.545563E-05  0.818E-03    0.27       1.9  T
   3    -83.6929982 -0.233858E-06  0.450E-03    0.27       3.4  T
   4    -83.6929983 -0.637893E-07  0.110E-03    0.27      14.0  T
   5    -83.6929983 -0.189899E-07  0.227E-04    0.27      68.0  T
   6    -83.6929983 -0.101501E-08  0.817E-05    0.27     188.9  T
   7    -83.6929983 -0.100556E-09  0.302E-05    0.27     511.3  T
     SCC iter.                  ...        0 min,  0.024 sec
     gradient                   ...        0 min,  0.077 sec
 * total energy  :   -82.9114406 Eh     change       -0.6428191E-03 Eh
   gradient norm :     0.0094256 Eh/α   predicted    -0.4885770E-03 ( -23.99%)
   displ. norm   :     0.3195971 α      lambda       -0.5949890E-03
   maximum displ.:     0.1315010 α      in ANC's #16, #8, #17, ...

........................................................................
.............................. CYCLE    9 ..............................
........................................................................
   1    -83.6928663 -0.836929E+02  0.139E-02    0.27       0.0  T
   2    -83.6928725 -0.617652E-05  0.663E-03    0.27       2.3  T
   3    -83.6928731 -0.613169E-06  0.360E-03    0.27       4.3  T
   4    -83.6928732 -0.516139E-07  0.130E-03    0.27      11.8  T
   5    -83.6928732 -0.223884E-07  0.282E-04    0.27      54.8  T
   6    -83.6928732 -0.214663E-08  0.112E-04    0.27     138.1  T
   7    -83.6928732 -0.295330E-09  0.345E-05    0.27     447.8  T
     SCC iter.                  ...        0 min,  0.025 sec
     gradient                   ...        0 min,  0.077 sec
 * total energy  :   -82.9118625 Eh     change       -0.4219127E-03 Eh
   gradient norm :     0.0096286 Eh/α   predicted    -0.3278839E-03 ( -22.29%)
   displ. norm   :     0.2610967 α      lambda       -0.4055810E-03
   maximum displ.:     0.1086089 α      in ANC's #17, #16, #3, ...

........................................................................
.............................. CYCLE   10 ..............................
........................................................................
   1    -83.6954972 -0.836955E+02  0.152E-02    0.29       0.0  T
   2    -83.6955044 -0.714156E-05  0.797E-03    0.28       1.9  T
   3    -83.6955053 -0.969778E-06  0.488E-03    0.28       3.2  T
   4    -83.6955054 -0.105071E-06  0.905E-04    0.28      17.1  T
   5    -83.6955054 -0.506688E-08  0.229E-04    0.28      67.4  T
   6    -83.6955054 -0.133100E-08  0.830E-05    0.28     186.0  T
   7    -83.6955054 -0.159119E-09  0.197E-05    0.28     782.3  T
     SCC iter.                  ...        0 min,  0.024 sec
     gradient                   ...        0 min,  0.077 sec
 * total energy  :   -82.9121116 Eh     change       -0.2490579E-03 Eh
   gradient norm :     0.0101868 Eh/α   predicted    -0.2166156E-03 ( -13.03%)
   displ. norm   :     0.3416172 α      lambda       -0.3956108E-03
   maximum displ.:     0.1478642 α      in ANC's #17, #16, #2, ...

........................................................................
.............................. CYCLE   11 ..............................
........................................................................
   1    -83.6893778 -0.836894E+02  0.235E-02    0.24       0.0  T
   2    -83.6893983 -0.204436E-04  0.133E-02    0.27       1.2  T
   3    -83.6894066 -0.834220E-05  0.591E-03    0.26       2.6  T
   4    -83.6894067 -0.542455E-07  0.171E-03    0.26       9.0  T
   5    -83.6894067 -0.278883E-07  0.452E-04    0.26      34.1  T
   6    -83.6894067 -0.238039E-08  0.127E-04    0.26     121.9  T
   7    -83.6894067 -0.204651E-09  0.454E-05    0.26     339.6  T
     SCC iter.                  ...        0 min,  0.024 sec
     gradient                   ...        0 min,  0.077 sec
 * total energy  :   -82.9122122 Eh     change       -0.1006252E-03 Eh
   gradient norm :     0.0149514 Eh/α   predicted    -0.2208899E-03 ( 119.52%)
   displ. norm   :     0.1080303 α      lambda       -0.3172292E-03
   maximum displ.:     0.0527948 α      in ANC's #4, #8, #3, ...

........................................................................
.............................. CYCLE   12 ..............................
........................................................................
   1    -83.6951432 -0.836951E+02  0.177E-02    0.30       0.0  T
   2    -83.6951578 -0.146062E-04  0.837E-03    0.27       1.8  T
   3    -83.6951607 -0.294240E-05  0.294E-03    0.28       5.2  T
   4    -83.6951608 -0.281943E-07  0.132E-03    0.27      11.6  T
   5    -83.6951608 -0.762830E-08  0.278E-04    0.27      55.4  T
   6    -83.6951608 -0.195155E-08  0.678E-05    0.27     227.5  T
   7    -83.6951608 -0.143970E-09  0.226E-05    0.27     683.7  T
     SCC iter.                  ...        0 min,  0.024 sec
     gradient                   ...        0 min,  0.077 sec
 * total energy  :   -82.9124050 Eh     change       -0.1928165E-03 Eh
   gradient norm :     0.0054375 Eh/α   predicted    -0.1604875E-03 ( -16.77%)
   displ. norm   :     0.1532239 α      lambda       -0.1640501E-03
   maximum displ.:     0.0739016 α      in ANC's #4, #3, #2, ...

........................................................................
.............................. CYCLE   13 ..............................
........................................................................
   1    -83.6952915 -0.836953E+02  0.108E-02    0.29       0.0  T
   2    -83.6952954 -0.392593E-05  0.434E-03    0.28       3.6  T
   3    -83.6952961 -0.636430E-06  0.159E-03    0.28       9.7  T
   4    -83.6952961 -0.634616E-08  0.628E-04    0.28      24.6  T
   5    -83.6952961 -0.414215E-08  0.124E-04    0.28     124.4  T
   6    -83.6952961 -0.257387E-09  0.316E-05    0.28     489.0  T
     SCC iter.                  ...        0 min,  0.021 sec
     gradient                   ...        0 min,  0.077 sec
 * total energy  :   -82.9125056 Eh     change       -0.1006176E-03 Eh
   gradient norm :     0.0072378 Eh/α   predicted    -0.8397600E-04 ( -16.54%)
   displ. norm   :     0.2172200 α      lambda       -0.1587614E-03
   maximum displ.:     0.1206872 α      in ANC's #4, #2, #17, ...

........................................................................
.............................. CYCLE   14 ..............................
........................................................................
   1    -83.6958458 -0.836958E+02  0.806E-03    0.28       0.0  T
   2    -83.6958475 -0.169850E-05  0.403E-03    0.28       3.8  T
   3    -83.6958476 -0.116773E-06  0.226E-03    0.28       6.8  T
   4    -83.6958476 -0.588932E-08  0.571E-04    0.28      27.0  T
   5    -83.6958476 -0.461242E-08  0.120E-04    0.28     128.5  T
   6    -83.6958476 -0.600195E-09  0.350E-05    0.28     440.7  T
     SCC iter.                  ...        0 min,  0.021 sec
     gradient                   ...        0 min,  0.077 sec
 * total energy  :   -82.9126127 Eh     change       -0.1070991E-03 Eh
   gradient norm :     0.0055779 Eh/α   predicted    -0.8312792E-04 ( -22.38%)
   displ. norm   :     0.2124129 α      lambda       -0.1232471E-03
   maximum displ.:     0.1178183 α      in ANC's #2, #4, #17, ...

........................................................................
.............................. CYCLE   15 ..............................
........................................................................
   1    -83.6948912 -0.836949E+02  0.672E-03    0.27       0.0  T
   2    -83.6948932 -0.199136E-05  0.364E-03    0.28       4.2  T
   3    -83.6948935 -0.313380E-06  0.181E-03    0.28       8.5  T
   4    -83.6948935 -0.374816E-08  0.609E-04    0.28      25.3  T
   5    -83.6948935 -0.307918E-08  0.147E-04    0.28     105.0  T
   6    -83.6948935 -0.350127E-09  0.379E-05    0.28     407.5  T
     SCC iter.                  ...        0 min,  0.021 sec
     gradient                   ...        0 min,  0.077 sec
 * total energy  :   -82.9127061 Eh     change       -0.9337620E-04 Eh
   gradient norm :     0.0050221 Eh/α   predicted    -0.6440925E-04 ( -31.02%)
   displ. norm   :     0.2360868 α      lambda       -0.1270900E-03
   maximum displ.:     0.1426490 α      in ANC's #2, #4, #16, ...

........................................................................
.............................. CYCLE   16 ..............................
........................................................................
   1    -83.6943161 -0.836943E+02  0.602E-03    0.27       0.0  T
   2    -83.6943170 -0.967025E-06  0.287E-03    0.28       5.4  T
   3    -83.6943172 -0.173817E-06  0.139E-03    0.27      11.1  T
   4    -83.6943172 -0.107209E-07  0.440E-04    0.28      35.1  T
   5    -83.6943172 -0.144456E-08  0.115E-04    0.28     133.9  T
   6    -83.6943172 -0.178744E-09  0.380E-05    0.28     406.2  T
     SCC iter.                  ...        0 min,  0.021 sec
     gradient                   ...        0 min,  0.076 sec
 * total energy  :   -82.9127989 Eh     change       -0.9282128E-04 Eh
   gradient norm :     0.0049887 Eh/α   predicted    -0.6708727E-04 ( -27.72%)
   displ. norm   :     0.2414120 α      lambda       -0.1082011E-03
   maximum displ.:     0.1591404 α      in ANC's #2, #4, #16, ...

........................................................................
.............................. CYCLE   17 ..............................
........................................................................
   1    -83.6946830 -0.836947E+02  0.673E-03    0.27       0.0  T
   2    -83.6946852 -0.214097E-05  0.319E-03    0.27       4.8  T
   3    -83.6946854 -0.253080E-06  0.135E-03    0.27      11.4  T
   4    -83.6946854 -0.345065E-08  0.609E-04    0.27      25.3  T
   5    -83.6946854 -0.377257E-08  0.162E-04    0.27      95.4  T
   6    -83.6946854 -0.324121E-09  0.402E-05    0.27     383.8  T
     SCC iter.                  ...        0 min,  0.021 sec
     gradient                   ...        0 min,  0.081 sec
 * total energy  :   -82.9128753 Eh     change       -0.7639554E-04 Eh
   gradient norm :     0.0048802 Eh/α   predicted    -0.5725438E-04 ( -25.06%)
   displ. norm   :     0.2342765 α      lambda       -0.9778499E-04
   maximum displ.:     0.1609437 α      in ANC's #2, #4, #16, ...

........................................................................
.............................. CYCLE   18 ..............................
........................................................................
   1    -83.6950139 -0.836950E+02  0.485E-03    0.28       0.0  T
   2    -83.6950145 -0.556212E-06  0.259E-03    0.27       5.9  T
   3    -83.6950145 -0.407414E-07  0.139E-03    0.27      11.1  T
   4    -83.6950145 -0.368776E-08  0.353E-04    0.27      43.7  T
   5    -83.6950145 -0.236840E-08  0.100E-04    0.27     153.7  T
   6    -83.6950145 -0.166622E-09  0.281E-05    0.27     549.4  T
     SCC iter.                  ...        0 min,  0.022 sec
     gradient                   ...        0 min,  0.081 sec
 * total energy  :   -82.9129465 Eh     change       -0.7114507E-04 Eh
   gradient norm :     0.0041047 Eh/α   predicted    -0.5157855E-04 ( -27.50%)
   displ. norm   :     0.3076996 α      lambda       -0.1158023E-03
   maximum displ.:     0.2224438 α      in ANC's #2, #4, #17, ...

........................................................................
.............................. CYCLE   19 ..............................
........................................................................
   1    -83.6950976 -0.836951E+02  0.573E-03    0.27       0.0  T
   2    -83.6950987 -0.106601E-05  0.299E-03    0.27       5.2  T
   3    -83.6950988 -0.788040E-07  0.156E-03    0.27       9.9  T
   4    -83.6950988 -0.381003E-08  0.453E-04    0.27      34.0  T
   5    -83.6950988 -0.202961E-08  0.120E-04    0.27     128.5  T
   6    -83.6950988 -0.287429E-09  0.339E-05    0.27     455.1  T
     SCC iter.                  ...        0 min,  0.022 sec
     gradient                   ...        0 min,  0.080 sec
 * total energy  :   -82.9130330 Eh     change       -0.8655684E-04 Eh
   gradient norm :     0.0045393 Eh/α   predicted    -0.6338667E-04 ( -26.77%)
   displ. norm   :     0.2465543 α      lambda       -0.1135998E-03
   maximum displ.:     0.1808709 α      in ANC's #2, #10, #1, ...

........................................................................
.............................. CYCLE   20 ..............................
........................................................................
   1    -83.6972068 -0.836972E+02  0.442E-03    0.28       0.0  T
   2    -83.6972072 -0.396422E-06  0.221E-03    0.27       7.0  T
   3    -83.6972073 -0.233140E-07  0.115E-03    0.27      13.4  T
   4    -83.6972073 -0.603085E-08  0.317E-04    0.27      48.6  T
   5    -83.6972073 -0.175672E-08  0.716E-05    0.27     215.4  T
   6    -83.6972073 -0.775344E-10  0.245E-05    0.27     629.7  T
     SCC iter.                  ...        0 min,  0.022 sec
     gradient                   ...        0 min,  0.080 sec
 * total energy  :   -82.9131167 Eh     change       -0.8364131E-04 Eh
   gradient norm :     0.0056392 Eh/α   predicted    -0.6025657E-04 ( -27.96%)
   displ. norm   :     0.3387070 α      lambda       -0.1390754E-03
   maximum displ.:     0.2389398 α      in ANC's #2, #10, #1, ...
 * RMSD in coord.:     0.5682141 α      energy gain  -0.3494041E-01 Eh

generating ANC from model Hessian ...
Using Lindh-Hessian (1995)
 Shifting diagonal of input Hessian by   9.810474287974939E-003
 Lowest  eigenvalues of input Hessian
    0.000000    0.000000    0.000000    0.000000    0.000000    0.000000
    0.010000    0.010074    0.010454    0.011418    0.011761    0.012127
    0.013084    0.013532    0.014173    0.016016    0.017158    0.017583
 Highest eigenvalues
    2.073636    2.191273    2.239046    2.307928    2.367907    2.451648
 

........................................................................
.............................. CYCLE   21 ..............................
........................................................................
   1    -83.6953437 -0.836953E+02  0.675E-03    0.27       0.0  T
   2    -83.6953445 -0.811602E-06  0.313E-03    0.27       4.9  T
   3    -83.6953446 -0.668706E-07  0.162E-03    0.27       9.5  T
   4    -83.6953446 -0.193899E-07  0.413E-04    0.27      37.4  T
   5    -83.6953446 -0.210099E-08  0.142E-04    0.27     109.0  T
   6    -83.6953446 -0.320867E-09  0.391E-05    0.27     394.9  T
     SCC iter.                  ...        0 min,  0.022 sec
     gradient                   ...        0 min,  0.081 sec
 * total energy  :   -82.9132134 Eh     change       -0.9676845E-04 Eh
   gradient norm :     0.0069791 Eh/α   predicted     0.0000000E+00 (-100.00%)
   displ. norm   :     0.0421200 α      lambda       -0.8066015E-04
   maximum displ.:     0.0168792 α      in ANC's #1, #2, #6, ...

........................................................................
.............................. CYCLE   22 ..............................
........................................................................
   1    -83.6962827 -0.836963E+02  0.334E-03    0.27       0.0  T
   2    -83.6962829 -0.198591E-06  0.191E-03    0.27       8.1  T
   3    -83.6962829 -0.137904E-07  0.106E-03    0.27      14.6  T
   4    -83.6962829 -0.203434E-08  0.207E-04    0.27      74.4  T
   5    -83.6962829 -0.908614E-09  0.513E-05    0.27     300.5  T
   6    -83.6962829 -0.644320E-10  0.161E-05    0.27     958.6  T
     SCC iter.                  ...        0 min,  0.022 sec
     gradient                   ...        0 min,  0.081 sec
 * total energy  :   -82.9132823 Eh     change       -0.6890783E-04 Eh
   gradient norm :     0.0034066 Eh/α   predicted    -0.4527888E-04 ( -34.29%)
   displ. norm   :     0.0999552 α      lambda       -0.9886616E-04
   maximum displ.:     0.0422531 α      in ANC's #1, #2, #12, ...

........................................................................
.............................. CYCLE   23 ..............................
........................................................................
   1    -83.6970745 -0.836971E+02  0.434E-03    0.27       0.0  T
   2    -83.6970750 -0.442832E-06  0.257E-03    0.28       6.0  T
   3    -83.6970750 -0.381783E-07  0.138E-03    0.28      11.2  T
   4    -83.6970750 -0.115499E-08  0.389E-04    0.28      39.7  T
   5    -83.6970750 -0.183444E-08  0.624E-05    0.28     247.4  T
   6    -83.6970750 -0.534612E-10  0.217E-05    0.28     710.5  T
     SCC iter.                  ...        0 min,  0.022 sec
     gradient                   ...        0 min,  0.081 sec
 * total energy  :   -82.9133502 Eh     change       -0.6787828E-04 Eh
   gradient norm :     0.0025257 Eh/α   predicted    -0.4992734E-04 ( -26.45%)
   displ. norm   :     0.1275725 α      lambda       -0.6904413E-04
   maximum displ.:     0.0561365 α      in ANC's #12, #1, #2, ...

........................................................................
.............................. CYCLE   24 ..............................
........................................................................
   1    -83.6971166 -0.836971E+02  0.353E-03    0.28       0.0  T
   2    -83.6971170 -0.358065E-06  0.215E-03    0.28       7.2  T
   3    -83.6971170 -0.569246E-07  0.105E-03    0.28      14.7  T
   4    -83.6971170 -0.521993E-09  0.289E-04    0.28      53.4  T
   5    -83.6971170 -0.748656E-09  0.574E-05    0.28     268.6  T
   6    -83.6971170 -0.348592E-10  0.190E-05    0.28     813.9  T
     SCC iter.                  ...        0 min,  0.022 sec
     gradient                   ...        0 min,  0.081 sec
 * total energy  :   -82.9134057 Eh     change       -0.5548124E-04 Eh
   gradient norm :     0.0043001 Eh/α   predicted    -0.3526714E-04 ( -36.43%)
   displ. norm   :     0.2617894 α      lambda       -0.1213020E-03
   maximum displ.:     0.1245710 α      in ANC's #12, #1, #2, ...

........................................................................
.............................. CYCLE   25 ..............................
........................................................................
   1    -83.6961855 -0.836962E+02  0.653E-03    0.28       0.0  T
   2    -83.6961865 -0.107900E-05  0.372E-03    0.28       4.1  T
   3    -83.6961867 -0.197554E-06  0.175E-03    0.28       8.8  T
   4    -83.6961867 -0.386953E-08  0.371E-04    0.28      41.6  T
   5    -83.6961867 -0.918305E-09  0.833E-05    0.28     185.2  T
   6    -83.6961867 -0.741380E-10  0.289E-05    0.28     533.7  T
     SCC iter.                  ...        0 min,  0.022 sec
     gradient                   ...        0 min,  0.081 sec
 * total energy  :   -82.9134943 Eh     change       -0.8858020E-04 Eh
   gradient norm :     0.0060494 Eh/α   predicted    -0.6480882E-04 ( -26.84%)
   displ. norm   :     0.2511146 α      lambda       -0.1001108E-03
   maximum displ.:     0.1229864 α      in ANC's #12, #1, #2, ...

........................................................................
.............................. CYCLE   26 ..............................
........................................................................
   1    -83.6951502 -0.836952E+02  0.570E-03    0.29       0.0  T
   2    -83.6951509 -0.747879E-06  0.289E-03    0.29       5.3  T
   3    -83.6951511 -0.120079E-06  0.144E-03    0.29      10.7  T
   4    -83.6951511 -0.614330E-08  0.310E-04    0.29      49.8  T
   5    -83.6951511 -0.471147E-09  0.703E-05    0.29     219.5  T
   6    -83.6951511 -0.569855E-10  0.224E-05    0.29     689.3  T
     SCC iter.                  ...        0 min,  0.022 sec
     gradient                   ...        0 min,  0.081 sec
 * total energy  :   -82.9135659 Eh     change       -0.7161775E-04 Eh
   gradient norm :     0.0065394 Eh/α   predicted    -0.5321545E-04 ( -25.70%)
   displ. norm   :     0.1953873 α      lambda       -0.1080070E-03
   maximum displ.:     0.0973026 α      in ANC's #1, #2, #12, ...

........................................................................
.............................. CYCLE   27 ..............................
........................................................................
   1    -83.6954425 -0.836954E+02  0.458E-03    0.29       0.0  T
   2    -83.6954430 -0.479602E-06  0.234E-03    0.29       6.6  T
   3    -83.6954431 -0.448429E-07  0.128E-03    0.29      12.0  T
   4    -83.6954431 -0.366848E-08  0.336E-04    0.29      46.0  T
   5    -83.6954431 -0.112644E-08  0.639E-05    0.29     241.6  T
   6    -83.6954431 -0.776481E-10  0.179E-05    0.29     862.5  T
     SCC iter.                  ...        0 min,  0.022 sec
     gradient                   ...        0 min,  0.081 sec
 * total energy  :   -82.9136490 Eh     change       -0.8315123E-04 Eh
   gradient norm :     0.0052620 Eh/α   predicted    -0.5616816E-04 ( -32.45%)
   displ. norm   :     0.2010062 α      lambda       -0.1222638E-03
   maximum displ.:     0.1093852 α      in ANC's #1, #2, #12, ...

........................................................................
.............................. CYCLE   28 ..............................
........................................................................
   1    -83.6965878 -0.836966E+02  0.543E-03    0.29       0.0  T
   2    -83.6965884 -0.622134E-06  0.332E-03    0.29       4.6  T
   3    -83.6965885 -0.790008E-07  0.175E-03    0.28       8.8  T
   4    -83.6965885 -0.183198E-08  0.420E-04    0.28      36.7  T
   5    -83.6965885 -0.217371E-08  0.647E-05    0.28     238.5  T
   6    -83.6965885 -0.679421E-10  0.229E-05    0.28     673.9  T
     SCC iter.                  ...        0 min,  0.023 sec
     gradient                   ...        0 min,  0.081 sec
 * total energy  :   -82.9137349 Eh     change       -0.8586931E-04 Eh
   gradient norm :     0.0044422 Eh/α   predicted    -0.6385470E-04 ( -25.64%)
   displ. norm   :     0.2411816 α      lambda       -0.8395911E-04
   maximum displ.:     0.1331303 α      in ANC's #1, #2, #12, ...

........................................................................
.............................. CYCLE   29 ..............................
........................................................................
   1    -83.6960148 -0.836960E+02  0.420E-03    0.28       0.0  T
   2    -83.6960152 -0.425713E-06  0.247E-03    0.28       6.3  T
   3    -83.6960153 -0.821025E-07  0.117E-03    0.28      13.2  T
   4    -83.6960153 -0.196157E-08  0.237E-04    0.28      65.2  T
   5    -83.6960153 -0.678639E-09  0.734E-05    0.28     210.2  T
   6    -83.6960153 -0.576961E-10  0.217E-05    0.28     712.7  T
     SCC iter.                  ...        0 min,  0.025 sec
     gradient                   ...        0 min,  0.081 sec
 * total energy  :   -82.9137982 Eh     change       -0.6326645E-04 Eh
   gradient norm :     0.0052466 Eh/α   predicted    -0.4444413E-04 ( -29.75%)
   displ. norm   :     0.2400827 α      lambda       -0.1197178E-03
   maximum displ.:     0.1437571 α      in ANC's #1, #2, #12, ...

........................................................................
.............................. CYCLE   30 ..............................
........................................................................
   1    -83.6975452 -0.836975E+02  0.647E-03    0.28       0.0  T
   2    -83.6975464 -0.115804E-05  0.409E-03    0.28       3.8  T
   3    -83.6975466 -0.236632E-06  0.203E-03    0.28       7.6  T
   4    -83.6975466 -0.941512E-09  0.273E-04    0.28      56.6  T
   5    -83.6975466 -0.107306E-08  0.780E-05    0.28     197.9  T
   6    -83.6975466 -0.112649E-09  0.279E-05    0.28     553.6  T
     SCC iter.                  ...        0 min,  0.024 sec
     gradient                   ...        0 min,  0.081 sec
 * total energy  :   -82.9138703 Eh     change       -0.7213847E-04 Eh
   gradient norm :     0.0049127 Eh/α   predicted    -0.6330939E-04 ( -12.24%)
   displ. norm   :     0.3218087 α      lambda       -0.9323159E-04
   maximum displ.:     0.1867155 α      in ANC's #1, #2, #12, ...

........................................................................
.............................. CYCLE   31 ..............................
........................................................................
   1    -83.6954826 -0.836955E+02  0.618E-03    0.28       0.0  T
   2    -83.6954829 -0.304670E-06  0.325E-03    0.28       4.7  T
   3    -83.6954829 -0.521528E-08  0.145E-03    0.28      10.6  T
   4    -83.6954829 -0.229088E-07  0.278E-04    0.28      55.5  T
   5    -83.6954829 -0.123551E-08  0.873E-05    0.28     176.7  T
   6    -83.6954829 -0.727312E-10  0.270E-05    0.28     572.1  T
     SCC iter.                  ...        0 min,  0.023 sec
     gradient                   ...        0 min,  0.081 sec
 * total energy  :   -82.9139248 Eh     change       -0.5445935E-04 Eh
   gradient norm :     0.0051676 Eh/α   predicted    -0.5145381E-04 (  -5.52%)
   displ. norm   :     0.1250993 α      lambda       -0.6050038E-04
   maximum displ.:     0.0787980 α      in ANC's #1, #2, #5, ...

........................................................................
.............................. CYCLE   32 ..............................
........................................................................
   1    -83.6964880 -0.836965E+02  0.301E-03    0.28       0.0  T
   2    -83.6964882 -0.227426E-06  0.162E-03    0.28       9.5  T
   3    -83.6964882 -0.252939E-07  0.829E-04    0.28      18.6  T
   4    -83.6964882 -0.527123E-09  0.257E-04    0.28      60.1  T
   5    -83.6964883 -0.103167E-08  0.445E-05    0.28     347.0  T
   6    -83.6964883 -0.290044E-10  0.163E-05    0.28     947.6  T
     SCC iter.                  ...        0 min,  0.022 sec
     gradient                   ...        0 min,  0.081 sec
 * total energy  :   -82.9139720 Eh     change       -0.4719392E-04 Eh
   gradient norm :     0.0031167 Eh/α   predicted    -0.3073194E-04 ( -34.88%)
   displ. norm   :     0.1812919 α      lambda       -0.5697085E-04
   maximum displ.:     0.1176019 α      in ANC's #1, #2, #5, ...

........................................................................
.............................. CYCLE   33 ..............................
........................................................................
   1    -83.6975793 -0.836976E+02  0.385E-03    0.28       0.0  T
   2    -83.6975798 -0.465821E-06  0.224E-03    0.28       6.9  T
   3    -83.6975799 -0.847712E-07  0.100E-03    0.28      15.4  T
   4    -83.6975799 -0.317982E-09  0.256E-04    0.28      60.4  T
   5    -83.6975799 -0.973742E-09  0.605E-05    0.28     255.0  T
   6    -83.6975799 -0.678284E-10  0.189E-05    0.28     815.7  T
     SCC iter.                  ...        0 min,  0.025 sec
     gradient                   ...        0 min,  0.081 sec
 * total energy  :   -82.9140128 Eh     change       -0.4079192E-04 Eh
   gradient norm :     0.0021529 Eh/α   predicted    -0.2942254E-04 ( -27.87%)
   displ. norm   :     0.1809026 α      lambda       -0.3185042E-04
   maximum displ.:     0.1195041 α      in ANC's #1, #2, #5, ...

........................................................................
.............................. CYCLE   34 ..............................
........................................................................
   1    -83.6977353 -0.836977E+02  0.262E-03    0.28       0.0  T
   2    -83.6977355 -0.173976E-06  0.150E-03    0.28      10.3  T
   3    -83.6977355 -0.269549E-07  0.714E-04    0.28      21.6  T
   4    -83.6977355 -0.632994E-09  0.163E-04    0.28      94.5  T
   5    -83.6977355 -0.299579E-09  0.375E-05    0.28     411.1  T
     SCC iter.                  ...        0 min,  0.019 sec
     gradient                   ...        0 min,  0.081 sec
 * total energy  :   -82.9140386 Eh     change       -0.2579143E-04 Eh
   gradient norm :     0.0021676 Eh/α   predicted    -0.1644762E-04 ( -36.23%)
   displ. norm   :     0.1589440 α      lambda       -0.2917161E-04
   maximum displ.:     0.1075487 α      in ANC's #1, #2, #5, ...

........................................................................
.............................. CYCLE   35 ..............................
........................................................................
   1    -83.6980320 -0.836980E+02  0.246E-03    0.28       0.0  T
   2    -83.6980322 -0.151837E-06  0.116E-03    0.28      13.3  T
   3    -83.6980322 -0.113004E-07  0.592E-04    0.28      26.1  T
   4    -83.6980322 -0.941455E-09  0.186E-04    0.28      82.9  T
   5    -83.6980322 -0.301526E-09  0.287E-05    0.28     537.7  T
     SCC iter.                  ...        0 min,  0.020 sec
     gradient                   ...        0 min,  0.081 sec
 * total energy  :   -82.9140633 Eh     change       -0.2472847E-04 Eh
   gradient norm :     0.0020321 Eh/α   predicted    -0.1495608E-04 ( -39.52%)
   displ. norm   :     0.1937537 α      lambda       -0.3346171E-04
   maximum displ.:     0.1314854 α      in ANC's #1, #2, #13, ...

........................................................................
.............................. CYCLE   36 ..............................
........................................................................
   1    -83.6977983 -0.836978E+02  0.277E-03    0.28       0.0  T
   2    -83.6977985 -0.212552E-06  0.121E-03    0.28      12.7  T
   3    -83.6977986 -0.172780E-07  0.622E-04    0.28      24.8  T
   4    -83.6977986 -0.175612E-08  0.220E-04    0.28      70.2  T
   5    -83.6977986 -0.655504E-09  0.343E-05    0.28     449.4  T
   6    -83.6977986 -0.139408E-10  0.144E-05    0.28    1075.2  T
     SCC iter.                  ...        0 min,  0.022 sec
     gradient                   ...        0 min,  0.081 sec
 * total energy  :   -82.9140918 Eh     change       -0.2852052E-04 Eh
   gradient norm :     0.0017692 Eh/α   predicted    -0.1736110E-04 ( -39.13%)
   displ. norm   :     0.3065135 α      lambda       -0.3504206E-04
   maximum displ.:     0.2094407 α      in ANC's #1, #2, #5, ...

........................................................................
.............................. CYCLE   37 ..............................
........................................................................
   1    -83.6975455 -0.836975E+02  0.451E-03    0.28       0.0  T
   2    -83.6975462 -0.685525E-06  0.212E-03    0.28       7.3  T
   3    -83.6975463 -0.116333E-06  0.961E-04    0.28      16.1  T
   4    -83.6975463 -0.453110E-08  0.336E-04    0.28      45.9  T
   5    -83.6975463 -0.788290E-09  0.568E-05    0.28     271.5  T
   6    -83.6975463 -0.607372E-10  0.241E-05    0.28     639.8  T
     SCC iter.                  ...        0 min,  0.023 sec
     gradient                   ...        0 min,  0.081 sec
 * total energy  :   -82.9141303 Eh     change       -0.3851626E-04 Eh
   gradient norm :     0.0027238 Eh/α   predicted    -0.1825321E-04 ( -52.61%)
   displ. norm   :     0.1412679 α      lambda       -0.2352341E-04
   maximum displ.:     0.0981849 α      in ANC's #1, #2, #3, ...

........................................................................
.............................. CYCLE   38 ..............................
........................................................................
   1    -83.6974091 -0.836974E+02  0.158E-03    0.28       0.0  T
   2    -83.6974092 -0.735060E-07  0.853E-04    0.28      18.1  T
   3    -83.6974092 -0.115241E-07  0.448E-04    0.28      34.5  T
   4    -83.6974092 -0.104058E-08  0.117E-04    0.28     131.8  T
   5    -83.6974092 -0.913900E-10  0.299E-05    0.28     515.8  T
     SCC iter.                  ...        0 min,  0.019 sec
     gradient                   ...        0 min,  0.082 sec
 * total energy  :   -82.9141501 Eh     change       -0.1976667E-04 Eh
   gradient norm :     0.0022326 Eh/α   predicted    -0.1199844E-04 ( -39.30%)
   displ. norm   :     0.1415539 α      lambda       -0.3033205E-04
   maximum displ.:     0.0980574 α      in ANC's #1, #2, #3, ...

........................................................................
.............................. CYCLE   39 ..............................
........................................................................
   1    -83.6980587 -0.836981E+02  0.205E-03    0.28       0.0  T
   2    -83.6980588 -0.140538E-06  0.105E-03    0.28      14.7  T
   3    -83.6980588 -0.123470E-07  0.553E-04    0.28      27.9  T
   4    -83.6980588 -0.562096E-09  0.174E-04    0.28      88.5  T
   5    -83.6980588 -0.286164E-09  0.349E-05    0.28     441.8  T
     SCC iter.                  ...        0 min,  0.020 sec
     gradient                   ...        0 min,  0.081 sec
 * total energy  :   -82.9141743 Eh     change       -0.2424541E-04 Eh
   gradient norm :     0.0018517 Eh/α   predicted    -0.1547173E-04 ( -36.19%)
   displ. norm   :     0.2556889 α      lambda       -0.3052434E-04
   maximum displ.:     0.1792233 α      in ANC's #1, #2, #3, ...

........................................................................
.............................. CYCLE   40 ..............................
........................................................................
   1    -83.6976658 -0.836977E+02  0.391E-03    0.28       0.0  T
   2    -83.6976664 -0.673574E-06  0.156E-03    0.28       9.9  T
   3    -83.6976665 -0.374027E-07  0.777E-04    0.28      19.9  T
   4    -83.6976665 -0.581466E-09  0.330E-04    0.28      46.7  T
   5    -83.6976665 -0.124219E-08  0.719E-05    0.28     214.7  T
   6    -83.6976665 -0.650573E-10  0.175E-05    0.28     881.8  T
     SCC iter.                  ...        0 min,  0.022 sec
     gradient                   ...        0 min,  0.081 sec
 * total energy  :   -82.9142038 Eh     change       -0.2948816E-04 Eh
   gradient norm :     0.0020031 Eh/α   predicted    -0.1570695E-04 ( -46.73%)
   displ. norm   :     0.0708103 α      lambda       -0.1316097E-04
   maximum displ.:     0.0510558 α      in ANC's #1, #2, #3, ...

........................................................................
.............................. CYCLE   41 ..............................
........................................................................
   1    -83.6981137 -0.836981E+02  0.140E-03    0.28       0.0  T
   2    -83.6981138 -0.714080E-07  0.554E-04    0.28      27.8  T
   3    -83.6981138 -0.211564E-08  0.309E-04    0.28      49.9  T
   4    -83.6981138 -0.161322E-09  0.117E-04    0.28     132.3  T
   5    -83.6981138 -0.155779E-09  0.201E-05    0.28     766.8  T
     SCC iter.                  ...        0 min,  0.019 sec
     gradient                   ...        0 min,  0.081 sec
 * total energy  :   -82.9142146 Eh     change       -0.1076853E-04 Eh
   gradient norm :     0.0018489 Eh/α   predicted    -0.6614652E-05 ( -38.57%)
   displ. norm   :     0.1309666 α      lambda       -0.2020471E-04
   maximum displ.:     0.0950613 α      in ANC's #1, #3, #13, ...

........................................................................
.............................. CYCLE   42 ..............................
........................................................................
   1    -83.6985122 -0.836985E+02  0.309E-03    0.28       0.0  T
   2    -83.6985125 -0.278225E-06  0.137E-03    0.28      11.3  T
   3    -83.6985125 -0.450647E-07  0.626E-04    0.28      24.6  T
   4    -83.6985125 -0.279937E-08  0.216E-04    0.28      71.5  T
   5    -83.6985125 -0.420911E-09  0.414E-05    0.28     372.5  T
   6    -83.6985125 -0.291180E-10  0.148E-05    0.28    1040.9  T
     SCC iter.                  ...        0 min,  0.022 sec
     gradient                   ...        0 min,  0.082 sec
 * total energy  :   -82.9142380 Eh     change       -0.2342764E-04 Eh
   gradient norm :     0.0016514 Eh/α   predicted    -0.1018148E-04 ( -56.54%)
   displ. norm   :     0.1281295 α      lambda       -0.1847411E-04
   maximum displ.:     0.0938453 α      in ANC's #1, #13, #3, ...
 * RMSD in coord.:     0.5437416 α      energy gain  -0.1121357E-02 Eh

generating ANC from model Hessian ...
Using Lindh-Hessian (1995)
 Shifting diagonal of input Hessian by   9.821385908013897E-003
 Lowest  eigenvalues of input Hessian
    0.000000    0.000000    0.000000    0.000000    0.000000    0.000000
    0.010000    0.010104    0.010451    0.011447    0.011796    0.012131
    0.013130    0.013615    0.014264    0.015843    0.017323    0.017675
 Highest eigenvalues
    2.075885    2.188129    2.243399    2.310029    2.370965    2.454593
 

........................................................................
.............................. CYCLE   43 ..............................
........................................................................
   1    -83.6981137 -0.836981E+02  0.252E-03    0.29       0.0  T
   2    -83.6981138 -0.104140E-06  0.121E-03    0.28      12.7  T
   3    -83.6981138 -0.708492E-08  0.624E-04    0.29      24.7  T
   4    -83.6981138 -0.381738E-08  0.158E-04    0.28      97.7  T
   5    -83.6981138 -0.416378E-09  0.421E-05    0.29     366.5  T
     SCC iter.                  ...        0 min,  0.019 sec
     gradient                   ...        0 min,  0.082 sec
 * total energy  :   -82.9142599 Eh     change       -0.2189816E-04 Eh
   gradient norm :     0.0017501 Eh/α   predicted     0.0000000E+00 (-100.00%)
   displ. norm   :     0.0295893 α      lambda       -0.6638649E-05
   maximum displ.:     0.0205362 α      in ANC's #1, #12, #16, ...

........................................................................
.............................. CYCLE   44 ..............................
........................................................................
   1    -83.6978202 -0.836978E+02  0.154E-03    0.28       0.0  T
   2    -83.6978202 -0.835322E-07  0.609E-04    0.28      25.3  T
   3    -83.6978202 -0.875229E-08  0.279E-04    0.28      55.4  T
   4    -83.6978202 -0.273417E-09  0.135E-04    0.28     114.6  T
   5    -83.6978202 -0.153690E-09  0.174E-05    0.28     889.3  T
     SCC iter.                  ...        0 min,  0.019 sec
     gradient                   ...        0 min,  0.082 sec
 * total energy  :   -82.9142708 Eh     change       -0.1090273E-04 Eh
   gradient norm :     0.0008336 Eh/α   predicted    -0.4661308E-05 ( -57.25%)
   displ. norm   :     0.0875355 α      lambda       -0.1837271E-04
   maximum displ.:     0.0573311 α      in ANC's #1, #12, #5, ...

........................................................................
.............................. CYCLE   45 ..............................
........................................................................
   1    -83.6973677 -0.836974E+02  0.352E-03    0.28       0.0  T
   2    -83.6973682 -0.448903E-06  0.147E-03    0.28      10.5  T
   3    -83.6973682 -0.600118E-07  0.616E-04    0.28      25.0  T
   4    -83.6973682 -0.192308E-08  0.300E-04    0.28      51.4  T
   5    -83.6973682 -0.812676E-09  0.422E-05    0.28     365.2  T
   6    -83.6973682 -0.312781E-10  0.150E-05    0.28    1031.8  T
     SCC iter.                  ...        0 min,  0.022 sec
     gradient                   ...        0 min,  0.081 sec
 * total energy  :   -82.9142874 Eh     change       -0.1659330E-04 Eh
   gradient norm :     0.0018473 Eh/α   predicted    -0.9219806E-05 ( -44.44%)
   displ. norm   :     0.0793389 α      lambda       -0.1167218E-04
   maximum displ.:     0.0555263 α      in ANC's #1, #12, #16, ...

........................................................................
.............................. CYCLE   46 ..............................
........................................................................
   1    -83.6974606 -0.836975E+02  0.186E-03    0.28       0.0  T
   2    -83.6974607 -0.118597E-06  0.925E-04    0.28      16.7  T
   3    -83.6974607 -0.146228E-07  0.446E-04    0.28      34.6  T
   4    -83.6974607 -0.509274E-09  0.161E-04    0.28      96.0  T
   5    -83.6974607 -0.398245E-09  0.357E-05    0.28     432.8  T
     SCC iter.                  ...        0 min,  0.025 sec
     gradient                   ...        0 min,  0.082 sec
 * total energy  :   -82.9142997 Eh     change       -0.1225831E-04 Eh
   gradient norm :     0.0018782 Eh/α   predicted    -0.5852725E-05 ( -52.26%)
   displ. norm   :     0.0846186 α      lambda       -0.1079262E-04
   maximum displ.:     0.0600169 α      in ANC's #1, #12, #4, ...

........................................................................
.............................. CYCLE   47 ..............................
........................................................................
   1    -83.6976578 -0.836977E+02  0.156E-03    0.28       0.0  T
   2    -83.6976579 -0.539354E-07  0.784E-04    0.28      19.7  T
   3    -83.6976579 -0.501292E-08  0.387E-04    0.28      39.8  T
   4    -83.6976579 -0.275534E-09  0.110E-04    0.28     140.8  T
   5    -83.6976579 -0.156859E-09  0.232E-05    0.28     666.0  T
     SCC iter.                  ...        0 min,  0.019 sec
     gradient                   ...        0 min,  0.082 sec
 * total energy  :   -82.9143135 Eh     change       -0.1378557E-04 Eh
   gradient norm :     0.0013693 Eh/α   predicted    -0.5415276E-05 ( -60.72%)
   displ. norm   :     0.1208801 α      lambda       -0.1487783E-04
   maximum displ.:     0.0870635 α      in ANC's #1, #12, #4, ...

........................................................................
.............................. CYCLE   48 ..............................
........................................................................
   1    -83.6978768 -0.836979E+02  0.262E-03    0.28       0.0  T
   2    -83.6978770 -0.162474E-06  0.123E-03    0.28      12.6  T
   3    -83.6978770 -0.161517E-07  0.612E-04    0.28      25.2  T
   4    -83.6978770 -0.129654E-08  0.209E-04    0.28      74.0  T
   5    -83.6978770 -0.704816E-09  0.367E-05    0.28     421.0  T
   6    -83.6978770 -0.191420E-10  0.142E-05    0.28    1088.6  T
     SCC iter.                  ...        0 min,  0.022 sec
     gradient                   ...        0 min,  0.082 sec
 * total energy  :   -82.9143302 Eh     change       -0.1673584E-04 Eh
   gradient norm :     0.0008087 Eh/α   predicted    -0.7490199E-05 ( -55.24%)
   displ. norm   :     0.0940811 α      lambda       -0.8211297E-05
   maximum displ.:     0.0719397 α      in ANC's #1, #12, #4, ...

........................................................................
.............................. CYCLE   49 ..............................
........................................................................
   1    -83.6980092 -0.836980E+02  0.160E-03    0.29       0.0  T
   2    -83.6980093 -0.512160E-07  0.726E-04    0.29      21.3  T
   3    -83.6980093 -0.328556E-08  0.367E-04    0.29      42.0  T
   4    -83.6980093 -0.688132E-09  0.117E-04    0.29     132.3  T
   5    -83.6980093 -0.271669E-09  0.214E-05    0.29     722.7  T
     SCC iter.                  ...        0 min,  0.017 sec
     gradient                   ...        0 min,  0.081 sec
 * total energy  :   -82.9143396 Eh     change       -0.9405450E-05 Eh
   gradient norm :     0.0009256 Eh/α   predicted    -0.4123426E-05 ( -56.16%)
   displ. norm   :     0.0625761 α      lambda       -0.5174656E-05
   maximum displ.:     0.0498902 α      in ANC's #1, #12, #7, ...

........................................................................
.............................. CYCLE   50 ..............................
........................................................................
   1    -83.6980915 -0.836981E+02  0.976E-04    0.29       0.0  T
   2    -83.6980915 -0.229786E-07  0.515E-04    0.29      30.0  T
   3    -83.6980915 -0.252230E-08  0.252E-04    0.29      61.1  T
   4    -83.6980915 -0.869136E-10  0.686E-05    0.29     224.9  T
   5    -83.6980915 -0.691500E-10  0.143E-05    0.29    1077.9  T
     SCC iter.                  ...        0 min,  0.017 sec
     gradient                   ...        0 min,  0.081 sec
 * total energy  :   -82.9143461 Eh     change       -0.6541976E-05 Eh
   gradient norm :     0.0007813 Eh/α   predicted    -0.2596722E-05 ( -60.31%)
   displ. norm   :     0.0518372 α      lambda       -0.4687219E-05
   maximum displ.:     0.0420410 α      in ANC's #1, #12, #6, ...

........................................................................
.............................. CYCLE   51 ..............................
........................................................................
   1    -83.6980710 -0.836981E+02  0.105E-03    0.29       0.0  T
   2    -83.6980710 -0.359784E-07  0.615E-04    0.29      25.1  T
   3    -83.6980710 -0.535167E-08  0.288E-04    0.29      53.6  T
   4    -83.6980710  0.357119E-10  0.826E-05    0.29     186.9  T
   5    -83.6980710 -0.870983E-10  0.136E-05    0.29    1132.8  T
     SCC iter.                  ...        0 min,  0.017 sec
     gradient                   ...        0 min,  0.081 sec
 * total energy  :   -82.9143522 Eh     change       -0.6090498E-05 Eh
   gradient norm :     0.0004970 Eh/α   predicted    -0.2346943E-05 ( -61.47%)
   displ. norm   :     0.0503014 α      lambda       -0.4327432E-05
   maximum displ.:     0.0407076 α      in ANC's #1, #6, #12, ...

........................................................................
.............................. CYCLE   52 ..............................
........................................................................
   1    -83.6979870 -0.836980E+02  0.956E-04    0.28       0.0  T
   2    -83.6979870 -0.356015E-07  0.531E-04    0.29      29.0  T
   3    -83.6979870 -0.548931E-08  0.229E-04    0.29      67.5  T
   4    -83.6979870  0.172520E-10  0.828E-05    0.29     186.3  T
   5    -83.6979870 -0.753317E-10  0.143E-05    0.29    1080.6  T
     SCC iter.                  ...        0 min,  0.017 sec
     gradient                   ...        0 min,  0.081 sec
 * total energy  :   -82.9143578 Eh     change       -0.5598047E-05 Eh
   gradient norm :     0.0004271 Eh/α   predicted    -0.2166821E-05 ( -61.29%)
   displ. norm   :     0.0461554 α      lambda       -0.3614728E-05
   maximum displ.:     0.0374415 α      in ANC's #1, #6, #2, ...

........................................................................
.............................. CYCLE   53 ..............................
........................................................................
   1    -83.6979614 -0.836980E+02  0.660E-04    0.28       0.0  T
   2    -83.6979614 -0.162385E-07  0.317E-04    0.29      48.6  T
   3    -83.6979614 -0.218620E-08  0.148E-04    0.29     104.4  T
   4    -83.6979614 -0.676152E-10  0.550E-05    0.29     280.4  T
     SCC iter.                  ...        0 min,  0.014 sec
     gradient                   ...        0 min,  0.081 sec
 * total energy  :   -82.9143626 Eh     change       -0.4760275E-05 Eh
   gradient norm :     0.0005383 Eh/α   predicted    -0.1809801E-05 ( -61.98%)
   displ. norm   :     0.0412000 α      lambda       -0.3126976E-05
   maximum displ.:     0.0338359 α      in ANC's #1, #2, #6, ...

   *** GEOMETRY OPTIMIZATION CONVERGED AFTER 53 ITERATIONS ***

------------------------------------------------------------------------
 total energy gain   :        -0.0361863 Eh      -22.7073 kcal/mol
 total RMSD          :         0.9915023 a0        0.5247 Å
 total power (kW/mol):        -1.7925892 (step)  -12.5276 (real)
------------------------------------------------------------------------

 ANCopt (total)                0 d,  0 h,  0 min,  7.584 sec
 optimizer setup                ...        0 min,  0.001 sec (  0.009%)
 model hessian                  ...        0 min,  0.081 sec (  1.068%)
 ANC generation                 ...        0 min,  0.007 sec (  0.096%)
 coordinate transformation      ...        0 min,  0.002 sec (  0.026%)
 single point calculation       ...        0 min,  7.463 sec ( 98.406%)
 optimization log               ...        0 min,  0.014 sec (  0.191%)
 hessian update                 ...        0 min,  0.002 sec (  0.023%)
 rational function              ...        0 min,  0.008 sec (  0.110%)

================
 final structure:
================
42
 xtb: 6.5.1 (579679a)
C            6.53558044385658        2.05467201446740       -0.29345931457306
O            5.38007298599834        1.46248701258257       -0.87180563083324
C            4.46664115243275        0.97303515429159        0.00121478659208
O            4.65175986866191        1.05139648940485        1.20977936393404
C            3.29860799514119        0.36097925923593       -0.61871106550515
N            2.40951630266194       -0.14864388276399        0.30964976429362
C            1.34600060482546       -0.74833159424130       -0.07024472505718
C            0.42095770646029       -1.37744464372086        0.95028212732526
C            0.52458369577802       -0.63741928879757        2.28566895243557
C            0.77743718000065       -2.85834237023349        1.11584936584682
N           -0.96962252722176       -1.32538681620824        0.45719803736741
C           -1.60364915799027       -0.18719332070044        0.16497559237424
O           -1.14810707376548        0.94079090332029        0.20080276184274
C           -3.01471335277584       -0.45310782308985       -0.25743672932339
N           -3.61733200673102       -1.57236644674804       -0.41228155045759
N           -4.90134348085896       -1.33123238023766       -0.81509250908753
C           -5.08051014588259       -0.06919697705560       -0.90403295121886
C           -6.28809518054343        0.67679186345757       -1.28909366819700
O           -3.89244385022158        0.58990153300224       -0.55762745512280
C           -3.59924935583630        2.02264383878063       -0.50182683504459
N            1.04326168554862       -0.93555124787800       -1.40298928989539
C            1.81179881709628       -0.44833259486383       -2.43099910042340
O            1.45616399003129       -0.62689551046957       -3.59243273612690
C            3.07768350082878        0.27283499351572       -2.01928385293268
O            3.81846675788506        0.72219401679555       -2.91105634305120
H            7.07505416526382        1.32833876803328        0.32252327215132
H            6.26020331728920        2.91032416437527        0.33078608679951
H            7.17032757699762        2.38581535695902       -1.11473150756647
H            1.55553176949940       -0.68644585211786        2.63556747564249
H            0.24710600356480        0.40770918941601        2.16104677170486
H           -0.13127462632417       -1.09777616314523        3.02114132616329
H            0.11724439067703       -3.32598627902895        1.84374734398780
H            1.80587867497454       -2.94626689178179        1.46381948890683
H            0.68098554286100       -3.37645859288174        0.16311808929840
H           -1.49325549353368       -2.18450578545937        0.42971201691312
H           -6.60820900365158        1.32907546300488       -0.47630224378969
H           -7.07871988609307       -0.03712453668648       -1.51310622921347
H           -6.09495099912780        1.29331577818933       -2.16734253233418
H           -2.82202417175062        2.22696372622400       -1.23613524221852
H           -3.26176516685862        2.24494562076611        0.50813713658321
H           -4.52389753232451        2.53846487776787       -0.73835951156857
H            0.19829888314801       -1.41867002549178       -1.65154173661996
 
 Bond Distances (Angstroems)
 ---------------------------
C1-O2=1.4214         C1-H26=1.0945        C1-H27=1.0944        C1-H28=1.0895        O2-C1=1.4214         O2-C3=1.3550         
C3-O2=1.3550         C3-O4=1.2252         C3-C5=1.4571         O4-C3=1.2252         C5-C3=1.4571         C5-N6=1.3828         
C5-C24=1.4206        N6-C5=1.3828         N6-C7=1.2787         C7-N6=1.2787         C7-C8=1.5143         C7-N21=1.3795        
C8-C7=1.5143         C8-C9=1.5302         C8-C10=1.5322        C8-N11=1.4763        C9-C8=1.5302         C9-H29=1.0898        
C9-H30=1.0885        C9-H31=1.0877        C10-C8=1.5322        C10-H32=1.0883       C10-H33=1.0893       C10-H34=1.0888       
N11-C8=1.4763        N11-C12=1.3352       N11-H35=1.0065       C12-N11=1.3352       C12-O13=1.2170       C12-C14=1.4967       
O13-C12=1.2170       C14-C12=1.4967       C14-N15=1.2806       C14-O19=1.3958       N15-C14=1.2806       N15-N16=1.3671       
N16-N15=1.3671       N16-C17=1.2778       C17-N16=1.2778       C17-C18=1.4707       C17-O19=1.4021       C18-C17=1.4707       
C18-H36=1.0902       C18-H37=1.0886       C18-H38=1.0903       O19-C14=1.3958       O19-C17=1.4021       O19-C20=1.4635       
C20-O19=1.4635       C20-H39=1.0886       C20-H40=1.0878       C20-H41=1.0849       N21-C7=1.3795        N21-C22=1.3729       
N21-H42=1.0046       C22-N21=1.3729       C22-O23=1.2277       C22-C24=1.5140       O23-C22=1.2277       C24-C5=1.4206        
C24-C22=1.5140       C24-O25=1.2434       O25-C24=1.2434       H26-C1=1.0945        H27-C1=1.0944        H28-C1=1.0895        
H29-C9=1.0898        H30-C9=1.0885        H31-C9=1.0877        H32-C10=1.0883       H33-C10=1.0893       H34-C10=1.0888       
H35-N11=1.0065       H36-C18=1.0902       H37-C18=1.0886       H38-C18=1.0903       H39-C20=1.0886       H40-C20=1.0878       
H41-C20=1.0849       H42-N21=1.0046       
 C  H  Rav=1.0894 sigma=0.0023  Rmin=1.0849  Rmax=1.0945    15
 C  C  Rav=1.4920 sigma=0.0368  Rmin=1.4206  Rmax=1.5322     8
 N  H  Rav=1.0055 sigma=0.0010  Rmin=1.0046  Rmax=1.0065     2
 N  C  Rav=1.3480 sigma=0.0649  Rmin=1.2778  Rmax=1.4763     8
 N  N  Rav=1.3671 sigma=0.0000  Rmin=1.3671  Rmax=1.3671     1
 O  C  Rav=1.3279 sigma=0.0931  Rmin=1.2170  Rmax=1.4635     9
 
 selected bond angles (degree)
 --------------------
H26-C1-O2=110.68               H27-C1-O2=110.69               H27-C1-H26=108.77              H28-C1-O2=107.07               
H28-C1-H26=109.80              H28-C1-H27=109.81              C3-O2-C1=115.87                O4-C3-O2=120.70                
C5-C3-O2=114.71                C5-C3-O4=124.59                N6-C5-C3=112.62                C24-C5-C3=124.76               
C24-C5-N6=122.62               C7-N6-C5=120.54                C8-C7-N6=120.18                N21-C7-N6=122.22               
N21-C7-C8=117.43               C9-C8-C7=110.23                C10-C8-C7=109.41               C10-C8-C9=110.94               
N11-C8-C7=109.61               N11-C8-C9=109.77               N11-C8-C10=106.82              H29-C9-C8=108.81               
H30-C9-C8=110.31               H30-C9-H29=108.73              H31-C9-C8=110.16               H31-C9-H29=109.53              
H31-C9-H30=109.27              H32-C10-C8=110.27              H33-C10-C8=109.40              H33-C10-H32=108.93             
H34-C10-C8=110.17              H34-C10-H32=109.09             H34-C10-H33=108.95             
 
 selected dihedral angles (degree)
 ---------------------------------
C3-O2-C1-H26= 59.74           C3-O2-C1-H27=299.06           C3-O2-C1-H28=179.39           O4-C3-O2-C1=  0.07            
C5-C3-O2-C1=180.54            N6-C5-C3-O2=178.71            N6-C5-C3-O4=359.20            C24-C5-C3-O2=359.24           
C24-C5-C3-O4=179.74           C7-N6-C5-C3=181.68            C7-N6-C5-C24=  1.15           C8-C7-N6-C5=176.24            
N21-C7-N6-C5=  1.05           C9-C8-C7-N6= 27.99            C9-C8-C7-N21=203.40           C10-C8-C7-N6=265.73           
C10-C8-C7-N21= 81.15          N11-C8-C7-N6=148.92           N11-C8-C7-N21=324.33          H29-C9-C8-C7=300.77           
H29-C9-C8-C10= 62.11          H29-C9-C8-N11=179.93          H30-C9-C8-C7= 59.97           H30-C9-C8-C10=181.31          
H30-C9-C8-N11=299.13          H31-C9-C8-C7=180.69           H31-C9-C8-C10=302.03          H31-C9-C8-N11= 59.85          
H32-C10-C8-C7=180.27          H32-C10-C8-C9= 58.44          H32-C10-C8-N11=298.84         H33-C10-C8-C7= 60.48          
H33-C10-C8-C9=298.65          H33-C10-C8-N11=179.05         H34-C10-C8-C7=300.73          H34-C10-C8-C9=178.90          
H34-C10-C8-N11= 59.31         
           -------------------------------------------------
          |                Final Singlepoint                |
           -------------------------------------------------

          ...................................................
          :                      SETUP                      :
          :.................................................:
          :  # basis functions                 134          :
          :  # atomic orbitals                 134          :
          :  # shells                           84          :
          :  # electrons                       134          :
          :  # halogen bonds                     0          :
          :  max. iterations                   250          :
          :  Hamiltonian                  GFN1-xTB          :
          :  restarted?                      false          :
          :  GBSA solvation                   true          :
          :  PC potential                    false          :
          :  electronic temp.          300.0000000     K    :
          :  accuracy                    1.0000000          :
          :  -> integral cutoff          0.2500000E+02      :
          :  -> integral neglect         0.1000000E-07      :
          :  -> SCF convergence          0.1000000E-05 Eh   :
          :  -> wf. convergence          0.2000000E-04 e    :
          :  Broyden damping             0.4000000          :
          ...................................................

 iter      E             dE          RMSdq      gap      omega  full diag
   1    -83.6979614 -0.836980E+02  0.114E-05    0.29       0.0  T
   2    -83.6979614 -0.191847E-11  0.552E-06    0.29    2794.1  T
   3    -83.6979614  0.994760E-13  0.296E-06    0.29    5221.4  T

   *** convergence criteria satisfied after 3 iterations ***

         #    Occupation            Energy/Eh            Energy/eV
      -------------------------------------------------------------
         1        2.0000           -0.9641430             -26.2357
       ...           ...                  ...                  ...
        61        2.0000           -0.4673040             -12.7160
        62        2.0000           -0.4614644             -12.5571
        63        2.0000           -0.4452593             -12.1161
        64        2.0000           -0.4397884             -11.9673
        65        2.0000           -0.4223726             -11.4933
        66        2.0000           -0.3837909             -10.4435
        67        1.9920           -0.3707422             -10.0884 (HOMO)
        68        0.0080           -0.3602631              -9.8033 (LUMO)
        69                         -0.3101282              -8.4390
        70                         -0.2745230              -7.4702
        71                         -0.2450933              -6.6693
        72                         -0.2392782              -6.5111
       ...                                ...                  ...
       134                          0.7527530              20.4835
      -------------------------------------------------------------
                  HL-Gap            0.0104792 Eh            0.2852 eV
             Fermi-level           -0.3655026 Eh           -9.9458 eV

 SCC (total)                   0 d,  0 h,  0 min,  0.130 sec
 SCC setup                      ...        0 min,  0.002 sec (  1.427%)
 Dispersion                     ...        0 min,  0.000 sec (  0.258%)
 classical contributions        ...        0 min,  0.000 sec (  0.082%)
 integral evaluation            ...        0 min,  0.035 sec ( 26.815%)
 iterations                     ...        0 min,  0.011 sec (  8.344%)
 molecular gradient             ...        0 min,  0.081 sec ( 62.351%)
 printout                       ...        0 min,  0.001 sec (  0.691%)

         :::::::::::::::::::::::::::::::::::::::::::::::::::::
         ::                     SUMMARY                     ::
         :::::::::::::::::::::::::::::::::::::::::::::::::::::
         :: total energy             -82.914362584731 Eh    ::
         :: total w/o Gsasa/hb       -82.892487440130 Eh    ::
         :: gradient norm              0.000538190361 Eh/a0 ::
         :: HOMO-LUMO gap              0.285152617745 eV    ::
         ::.................................................::
         :: SCC energy               -83.697961369046 Eh    ::
         :: -> electrostatic           0.487662070769 Eh    ::
         :: -> Gsolv                  -0.131252721096 Eh    ::
         ::    -> Gelec               -0.109377576496 Eh    ::
         ::    -> Gsasa               -0.024760020234 Eh    ::
         ::    -> Ghb                 -0.004739403371 Eh    ::
         ::    -> Gshift               0.007624279005 Eh    ::
         :: repulsion energy           0.809752195245 Eh    ::
         :: dispersion energy         -0.026153410929 Eh    ::
         :: halogen bond corr.         0.000000000000 Eh    ::
         :: add. restraining           0.000000000000 Eh    ::
         :: total charge               0.000000000000 e     ::
         :::::::::::::::::::::::::::::::::::::::::::::::::::::

           -------------------------------------------------
          |                Property Printout                |
           -------------------------------------------------

    * Orbital Energies and Occupations

         #    Occupation            Energy/Eh            Energy/eV
      -------------------------------------------------------------
         1        2.0000           -0.9641430             -26.2357
       ...           ...                  ...                  ...
        55        2.0000           -0.5061549             -13.7732
        56        2.0000           -0.5039646             -13.7136
        57        2.0000           -0.4958922             -13.4939
        58        2.0000           -0.4898217             -13.3287
        59        2.0000           -0.4845784             -13.1860
        60        2.0000           -0.4711052             -12.8194
        61        2.0000           -0.4673040             -12.7160
        62        2.0000           -0.4614644             -12.5571
        63        2.0000           -0.4452593             -12.1161
        64        2.0000           -0.4397884             -11.9673
        65        2.0000           -0.4223726             -11.4933
        66        2.0000           -0.3837909             -10.4435
        67        1.9920           -0.3707422             -10.0884 (HOMO)
        68        0.0080           -0.3602631              -9.8033 (LUMO)
        69                         -0.3101282              -8.4390
        70                         -0.2745230              -7.4702
        71                         -0.2450933              -6.6693
        72                         -0.2392782              -6.5111
        73                         -0.2012357              -5.4759
        74                         -0.1880419              -5.1169
        75                         -0.1735749              -4.7232
        76                         -0.1360181              -3.7012
        77                         -0.1230107              -3.3473
        78                         -0.1227415              -3.3400
       ...                                ...                  ...
       134                          0.7527530              20.4835
      -------------------------------------------------------------
                  HL-Gap            0.0104792 Eh            0.2852 eV
             Fermi-level           -0.3655026 Eh           -9.9458 eV

  Mulliken/CM5 charges         n(s)   n(p)   n(d)
     1C     0.17160  0.05211   0.972  2.857  0.000
     2O    -0.42929 -0.51198   1.688  4.742  0.000
     3C     0.54829  0.61321   0.975  2.477  0.000
     4O    -0.62170 -0.66507   1.734  4.887  0.000
     5C    -0.01698  0.05880   1.040  2.977  0.000
     6N    -0.37486 -0.55982   1.531  3.844  0.000
     7C     0.24485  0.39712   0.996  2.759  0.000
     8C     0.15051  0.18918   1.069  2.781  0.000
     9C    -0.09795 -0.23635   1.016  3.082  0.000
    10C    -0.11241 -0.25303   1.023  3.089  0.000
    11N    -0.32546 -0.68314   1.438  3.888  0.000
    12C     0.47543  0.58641   0.964  2.560  0.000
    13O    -0.55785 -0.60674   1.722  4.836  0.000
    14C     0.33460  0.45929   1.034  2.632  0.000
    15N    -0.17271 -0.28583   1.550  3.623  0.000
    16N    -0.18874 -0.30090   1.544  3.644  0.000
    17C     0.38637  0.49336   1.028  2.586  0.000
    18C    -0.11501 -0.25349   1.019  3.096  0.000
    19O    -0.19665 -0.29253   1.647  4.549  0.000
    20C     0.15005  0.02585   1.020  2.830  0.000
    21N    -0.31913 -0.66280   1.433  3.886  0.000
    22C     0.42830  0.53170   1.011  2.561  0.000
    23O    -0.60711 -0.64455   1.735  4.872  0.000
    24C     0.28932  0.33483   1.033  2.678  0.000
    25O    -0.62856 -0.66667   1.743  4.886  0.000
    26H     0.03451  0.09627   0.965  0.000  0.000
    27H     0.03448  0.09613   0.966  0.000  0.000
    28H     0.03619  0.09641   0.964  0.000  0.000
    29H     0.05163  0.10971   0.948  0.000  0.000
    30H     0.05486  0.11650   0.945  0.000  0.000
    31H     0.04176  0.09752   0.958  0.000  0.000
    32H     0.05347  0.10899   0.947  0.000  0.000
    33H     0.05782  0.11271   0.942  0.000  0.000
    34H     0.05091  0.10836   0.949  0.000  0.000
    35H     0.26924  0.47486   0.731  0.000  0.000
    36H     0.10448  0.15902   0.896  0.000  0.000
    37H     0.10569  0.16161   0.894  0.000  0.000
    38H     0.10457  0.15907   0.895  0.000  0.000
    39H     0.11627  0.17971   0.884  0.000  0.000
    40H     0.11623  0.18042   0.884  0.000  0.000
    41H     0.10226  0.16431   0.898  0.000  0.000
    42H     0.25074  0.45946   0.749  0.000  0.000

Wiberg/Mayer (AO) data.
largest (>0.10) Wiberg bond orders for each atom

 ---------------------------------------------------------------------------
     #   Z sym  total        # sym  WBO       # sym  WBO       # sym  WBO
 ---------------------------------------------------------------------------
     1   6 C    3.897 --    28 H    0.987    27 H    0.980    26 H    0.980
                             2 O    0.923
     2   8 O    2.163 --     3 C    1.053     1 C    0.923     4 O    0.111
     3   6 C    3.850 --     4 O    1.579     5 C    1.108     2 O    1.053
     4   8 O    1.852 --     3 C    1.579     2 O    0.111
     5   6 C    3.907 --    24 C    1.268     6 N    1.156     3 C    1.108
                            25 O    0.128
     6   7 N    3.031 --     7 C    1.633     5 C    1.156
     7   6 C    3.931 --     6 N    1.633    21 N    1.093     8 C    0.972
     8   6 C    3.913 --     9 C    0.990    10 C    0.988     7 C    0.972
                            11 N    0.897
     9   6 C    3.989 --     8 C    0.990    31 H    0.987    30 H    0.981
                            29 H    0.981
    10   6 C    3.989 --     8 C    0.988    34 H    0.984    32 H    0.983
                            33 H    0.982
    11   7 N    3.389 --    12 C    1.303     8 C    0.897    35 H    0.891
                            13 O    0.195
    12   6 C    3.927 --    13 O    1.579    11 N    1.303    14 C    0.969
    13   8 O    1.927 --    12 C    1.579    11 N    0.195
    14   6 C    3.790 --    15 N    1.697    12 C    0.969    19 O    0.884
    15   7 N    3.035 --    14 C    1.697    16 N    1.147
    16   7 N    3.025 --    17 C    1.698    15 N    1.147
    17   6 C    3.799 --    16 N    1.698    18 C    1.043    19 O    0.873
    18   6 C    3.970 --    17 C    1.043    37 H    0.970    38 H    0.952
                            36 H    0.951
    19   8 O    2.651 --    14 C    0.884    17 C    0.873    20 C    0.749
    20   6 C    3.727 --    41 H    0.975    40 H    0.968    39 H    0.968
                            19 O    0.749
    21   7 N    3.421 --    22 C    1.155     7 C    1.093    42 H    0.898
                            23 O    0.134
    22   6 C    3.875 --    23 O    1.583    21 N    1.155    24 C    0.966
    23   8 O    1.862 --    22 C    1.583    21 N    0.134
    24   6 C    3.941 --    25 O    1.525     5 C    1.268    22 C    0.966
    25   8 O    1.826 --    24 C    1.525     5 C    0.128
    26   1 H    1.014 --     1 C    0.980
    27   1 H    1.013 --     1 C    0.980
    28   1 H    1.015 --     1 C    0.987
    29   1 H    1.013 --     9 C    0.981
    30   1 H    1.010 --     9 C    0.981
    31   1 H    1.001 --     9 C    0.987
    32   1 H    0.997 --    10 C    0.983
    33   1 H    1.002 --    10 C    0.982
    34   1 H    0.999 --    10 C    0.984
    35   1 H    0.937 --    11 N    0.891
    36   1 H    0.988 --    18 C    0.951
    37   1 H    0.989 --    18 C    0.970
    38   1 H    0.988 --    18 C    0.952
    39   1 H    0.999 --    20 C    0.968
    40   1 H    1.000 --    20 C    0.968
    41   1 H    0.991 --    20 C    0.975
    42   1 H    0.948 --    21 N    0.898
 ---------------------------------------------------------------------------

Topologies differ in total number of bonds
Writing topology from bond orders to xtbtopo.mol

 dipole moment from electron density (au)
     X       Y       Z   
 -14.2180  -0.3640   2.8038  total (Debye):   36.846

           -------------------------------------------------
          |                Geometry Summary                 |
           -------------------------------------------------

      molecular mass/u    :      351.3152409
   center of mass at/Å    :        0.2984729      -0.0330350      -0.4921172
  moments of inertia/u·Å² :        0.1101932E+04   0.4890382E+04   0.5122846E+04
rotational constants/cm⁻¹ :        0.1529825E-01   0.3447100E-02   0.3290677E-02

 * 37 selected distances

     #   Z          #   Z                                           value/Å
     1   6 C        2   8 O                                       1.4213956
     2   8 O        3   6 C                                       1.3550224
     3   6 C        4   8 O                                       1.2251686
     6   7 N        7   6 C                                       1.2786755
     8   6 C        9   6 C                                       1.5302399
     8   6 C       10   6 C                                       1.5321712 (max)
     8   6 C       11   7 N                                       1.4763318
    11   7 N       12   6 C                                       1.3352410
    12   6 C       13   8 O                                       1.2170254
    14   6 C       15   7 N                                       1.2805727
    16   7 N       17   6 C                                       1.2777890
    17   6 C       18   6 C                                       1.4707254
    14   6 C       19   8 O                                       1.3958489
    17   6 C       19   8 O                                       1.4021089
    19   8 O       20   6 C                                       1.4634984
     7   6 C       21   7 N                                       1.3794602
    21   7 N       22   6 C                                       1.3728932
    22   6 C       23   8 O                                       1.2277171
     5   6 C       24   6 C                                       1.4206272
    24   6 C       25   8 O                                       1.2433591
     1   6 C       26   1 H                                       1.0945440
     1   6 C       27   1 H                                       1.0943746
     1   6 C       28   1 H                                       1.0895174
     9   6 C       29   1 H                                       1.0898104
     9   6 C       30   1 H                                       1.0884936
     9   6 C       31   1 H                                       1.0876573
    10   6 C       32   1 H                                       1.0882927
    10   6 C       33   1 H                                       1.0892686
    10   6 C       34   1 H                                       1.0887812
    11   7 N       35   1 H                                       1.0064952
    18   6 C       36   1 H                                       1.0902187
    18   6 C       37   1 H                                       1.0885522
    18   6 C       38   1 H                                       1.0902879
    20   6 C       39   1 H                                       1.0885930
    20   6 C       40   1 H                                       1.0878148
    20   6 C       41   1 H                                       1.0848933
    21   7 N       42   1 H                                       1.0045618 (min)

 * 5 distinct bonds (by element types)

   Z      Z             #   av. dist./Å        max./Å        min./Å
   1 H    6 C          15     1.0894066     1.0945440     1.0848933
   6 C    6 C           4     1.4884409     1.5321712     1.4206272
   1 H    7 N           2     1.0055285     1.0064952     1.0045618
   6 C    7 N           7     1.3429948     1.4763318     1.2777890
   6 C    8 O           9     1.3279049     1.4634984     1.2170254


optimized geometry written to: xtbopt.xyz


           -------------------------------------------------
          | TOTAL ENERGY              -82.914362584731 Eh   |
          | GRADIENT NORM               0.000538190361 Eh/α |
          | HOMO-LUMO GAP               0.285152617745 eV   |
           -------------------------------------------------

------------------------------------------------------------------------
 * finished run on 2023/06/21 at 17:29:33.556     
------------------------------------------------------------------------
 total:
 * wall-time:     0 d,  0 h,  0 min,  8.109 sec
 *  cpu-time:     0 d,  0 h,  0 min,  7.937 sec
 * ratio c/w:     0.979 speedup
 SCF:
 * wall-time:     0 d,  0 h,  0 min,  0.274 sec
 *  cpu-time:     0 d,  0 h,  0 min,  0.208 sec
 * ratio c/w:     0.759 speedup
 ANC optimizer:
 * wall-time:     0 d,  0 h,  0 min,  7.720 sec
 *  cpu-time:     0 d,  0 h,  0 min,  7.681 sec
 * ratio c/w:     0.995 speedup

