42
 energy: -82.914362584731 gnorm: 0.000538190361 xtb: 6.5.1 (579679a)
C            6.53558044385658        2.05467201446740       -0.29345931457306
O            5.38007298599834        1.46248701258257       -0.87180563083324
C            4.46664115243275        0.97303515429159        0.00121478659208
O            4.65175986866191        1.05139648940485        1.20977936393404
C            3.29860799514119        0.36097925923593       -0.61871106550515
N            2.40951630266194       -0.14864388276399        0.30964976429362
C            1.34600060482546       -0.74833159424130       -0.07024472505718
C            0.42095770646029       -1.37744464372086        0.95028212732526
C            0.52458369577802       -0.63741928879757        2.28566895243557
C            0.77743718000065       -2.85834237023349        1.11584936584682
N           -0.96962252722176       -1.32538681620824        0.45719803736741
C           -1.60364915799027       -0.18719332070044        0.16497559237424
O           -1.14810707376548        0.94079090332029        0.20080276184274
C           -3.01471335277584       -0.45310782308985       -0.25743672932339
N           -3.61733200673102       -1.57236644674804       -0.41228155045759
N           -4.90134348085896       -1.33123238023766       -0.81509250908753
C           -5.08051014588259       -0.06919697705560       -0.90403295121886
C           -6.28809518054343        0.67679186345757       -1.28909366819700
O           -3.89244385022158        0.58990153300224       -0.55762745512280
C           -3.59924935583630        2.02264383878063       -0.50182683504459
N            1.04326168554862       -0.93555124787800       -1.40298928989539
C            1.81179881709628       -0.44833259486383       -2.43099910042340
O            1.45616399003129       -0.62689551046957       -3.59243273612690
C            3.07768350082878        0.27283499351572       -2.01928385293268
O            3.81846675788506        0.72219401679555       -2.91105634305120
H            7.07505416526382        1.32833876803328        0.32252327215132
H            6.26020331728920        2.91032416437527        0.33078608679951
H            7.17032757699762        2.38581535695902       -1.11473150756647
H            1.55553176949940       -0.68644585211786        2.63556747564249
H            0.24710600356480        0.40770918941601        2.16104677170486
H           -0.13127462632417       -1.09777616314523        3.02114132616329
H            0.11724439067703       -3.32598627902895        1.84374734398780
H            1.80587867497454       -2.94626689178179        1.46381948890683
H            0.68098554286100       -3.37645859288174        0.16311808929840
H           -1.49325549353368       -2.18450578545937        0.42971201691312
H           -6.60820900365158        1.32907546300488       -0.47630224378969
H           -7.07871988609307       -0.03712453668648       -1.51310622921347
H           -6.09495099912780        1.29331577818933       -2.16734253233418
H           -2.82202417175062        2.22696372622400       -1.23613524221852
H           -3.26176516685862        2.24494562076611        0.50813713658321
H           -4.52389753232451        2.53846487776787       -0.73835951156857
H            0.19829888314801       -1.41867002549178       -1.65154173661996
