      -----------------------------------------------------------      
     |                   =====================                   |     
     |                           x T B                           |     
     |                   =====================                   |     
     |                         S. Grimme                         |     
     |          Mulliken Center for Theoretical Chemistry        |     
     |                    University of Bonn                     |     
      -----------------------------------------------------------      

   * xtb version 6.5.1 (579679a) compiled by 'ehlert@majestix' on 2022-07-11

   xtb is free software: you can redistribute it and/or modify it under
   the terms of the GNU Lesser General Public License as published by
   the Free Software Foundation, either version 3 of the License, or
   (at your option) any later version.
   
   xtb is distributed in the hope that it will be useful,
   but WITHOUT ANY WARRANTY; without even the implied warranty of
   MERCHANTABILITY or FITNESS FOR A PARTICULAR PURPOSE.  See the
   GNU Lesser General Public License for more details.
   
   Cite this work as:
   * C. Bannwarth, E. Caldeweyher, S. Ehlert, A. Hansen, P. Pracht,
     J. Seibert, S. Spicher, S. Grimme, WIREs Comput. Mol. Sci., 2020, 11,
     e01493. DOI: 10.1002/wcms.1493
   
   for GFN2-xTB:
   * C. Bannwarth, S. Ehlert and S. Grimme., J. Chem. Theory Comput., 2019,
     15, 1652-1671. DOI: 10.1021/acs.jctc.8b01176
   for GFN1-xTB:
   * S. Grimme, C. Bannwarth, P. Shushkov, J. Chem. Theory Comput., 2017,
     13, 1989-2009. DOI: 10.1021/acs.jctc.7b00118
   for GFN0-xTB:
   * P. Pracht, E. Caldeweyher, S. Ehlert, S. Grimme, ChemRxiv, 2019, preprint.
     DOI: 10.26434/chemrxiv.8326202.v1
   for GFN-FF:
   * S. Spicher and S. Grimme, Angew. Chem. Int. Ed., 2020, 59, 15665-15673.
     DOI: 10.1002/anie.202004239
   
   for ALPB and GBSA implicit solvation:
   * S. Ehlert, M. Stahn, S. Spicher, S. Grimme, J. Chem. Theory Comput.,
     2021, 17, 4250-4261. DOI: 10.1021/acs.jctc.1c00471
   
   for DFT-D4:
   * E. Caldeweyher, C. Bannwarth and S. Grimme, J. Chem. Phys., 2017,
     147, 034112. DOI: 10.1063/1.4993215
   * E. Caldeweyher, S. Ehlert, A. Hansen, H. Neugebauer, S. Spicher,
     C. Bannwarth and S. Grimme, J. Chem. Phys., 2019, 150, 154122.
     DOI: 10.1063/1.5090222
   * E. Caldeweyher, J.-M. Mewes, S. Ehlert and S. Grimme, Phys. Chem. Chem. Phys.
     2020, 22, 8499-8512. DOI: 10.1039/D0CP00502A
   
   for sTDA-xTB:
   * S. Grimme and C. Bannwarth, J. Chem. Phys., 2016, 145, 054103.
     DOI: 10.1063/1.4959605
   
   in the mass-spec context:
   * V. Asgeirsson, C. Bauer and S. Grimme, Chem. Sci., 2017, 8, 4879.
     DOI: 10.1039/c7sc00601b
   * J. Koopman and S. Grimme, ACS Omega 2019, 4, 12, 15120-15133.
     DOI: 10.1021/acsomega.9b02011
   
   for metadynamics refer to:
   * S. Grimme, J. Chem. Theory Comput., 2019, 155, 2847-2862
     DOI: 10.1021/acs.jctc.9b00143
   
   for SPH calculations refer to:
   * S. Spicher and S. Grimme, J. Chem. Theory Comput., 2021, 17, 1701-1714
     DOI: 10.1021/acs.jctc.0c01306
   
   with help from (in alphabetical order)
   P. Atkinson, C. Bannwarth, F. Bohle, G. Brandenburg, E. Caldeweyher
   M. Checinski, S. Dohm, S. Ehlert, S. Ehrlich, I. Gerasimov, C. Hölzer
   A. Katbashev, J. Koopman, C. Lavigne, S. Lehtola, F. März, M. Müller,
   F. Musil, H. Neugebauer, J. Pisarek, C. Plett, P. Pracht, F. Pultar,
   J. Seibert, P. Shushkov, S. Spicher, M. Stahn, M. Steiner, T. Strunk,
   J. Stückrath, T. Rose, and J. Unsleber
   
 * started run on 2023/06/20 at 14:56:44.612     

           -------------------------------------------------
          |                Calculation Setup                |
           -------------------------------------------------

          program call               : /lustre/hpc/kemi/ree/PhD/git/ReactivityQM/dep/xtb-6.5.1/bin/xtb --gfn 1 /lustre/hpc/kemi/ree/PhD/git/ReactivityQM/calculations/R01/reac01prodN07/conf10/R01_reac01prodN07_conf10_gfn1.xyz --opt --vfukui --chrg 1 --uhf 0 --alpb DMSO
          hostname                   : node312
          coordinate file            : /lustre/hpc/kemi/ree/PhD/git/ReactivityQM/calculations/R01/reac01prodN07/conf10/R01_reac01prodN07_conf10_gfn1.xyz
          omp threads                :                     1

   ID    Z sym.   atoms
    1    6 C      1, 3, 5, 8-10
    2    8 O      2, 4, 11
    3    7 N      6, 7
    4    1 H      12-20

           -------------------------------------------------
          |                 G F N 1 - x T B                 |
           -------------------------------------------------

        Reference                      10.1021/acs.jctc.7b00118
      * Hamiltonian:
        H0-scaling (s, p, d)           1.850000    2.250000    2.000000
        zeta-weighting                 0.000000
      * Dispersion:
        s8                             2.400000
        a1                             0.630000
        a2                             5.000000
        s9                             0.000000
      * Repulsion:
        kExp                           1.500000
        rExp                           1.000000
      * Coulomb:
        alpha                          2.000000
        third order                    atomic
        anisotropic                    false
      * Halogen bond correction:
        rad-scale                      1.300000
        damping                        0.440000

      * Solvation model:               ALPB
        Solvent                        DMSO
        Parameter file                 internal GFN1-xTB/ALPB
        Dielectric constant                4.6680E+01
        Reference state                gsolv [1 M gas/solution]
        Free energy shift                  7.6243E-03 Eh       4.7843E+00 kcal/mol
        Temperature                        2.9815E+02 K
        Density                            1.1000E+00 kg/L
        Solvent mass                       7.8130E+01 g/mol
        Interaction kernel             P16
        Born radius scaling (c1)           1.7672E+00
        Born radii integrator          GBOBC
        Born offset                        0.0000E+00 a0       0.0000E+00 AA
        H-bond correction              true
        Ion screening                  false
        Surface tension                    1.0000E-05 Eh       1.5569E+01 dyn/cm
        Grid points                               230 per atom

          ...................................................
          :                      SETUP                      :
          :.................................................:
          :  # basis functions                  62          :
          :  # atomic orbitals                  62          :
          :  # shells                           40          :
          :  # electrons                        60          :
          :  # halogen bonds                     0          :
          :  max. iterations                   250          :
          :  Hamiltonian                  GFN1-xTB          :
          :  restarted?                      false          :
          :  GBSA solvation                   true          :
          :  PC potential                    false          :
          :  electronic temp.          300.0000000     K    :
          :  accuracy                    1.0000000          :
          :  -> integral cutoff          0.2500000E+02      :
          :  -> integral neglect         0.1000000E-07      :
          :  -> SCF convergence          0.1000000E-05 Eh   :
          :  -> wf. convergence          0.2000000E-04 e    :
          :  Broyden damping             0.4000000          :
          ...................................................

 iter      E             dE          RMSdq      gap      omega  full diag
   1    -37.6803303 -0.376803E+02  0.775E+00    1.44       0.0  T
   2    -37.8606227 -0.180292E+00  0.463E+00    1.29       1.0  T
   3    -37.8577494  0.287325E-02  0.192E+00    1.56       1.0  T
   4    -37.8758100 -0.180606E-01  0.237E-01    1.23       1.0  T
   5    -37.8770085 -0.119844E-02  0.855E-02    1.36       1.0  T
   6    -37.8770871 -0.786492E-04  0.237E-02    1.40       1.0  T
   7    -37.8770970 -0.988721E-05  0.414E-03    1.40       5.4  T
   8    -37.8770972 -0.198829E-06  0.716E-04    1.40      31.2  T
   9    -37.8770972 -0.524656E-08  0.287E-04    1.40      77.9  T
  10    -37.8770972 -0.848750E-09  0.846E-05    1.40     264.4  T
  11    -37.8770972 -0.257145E-10  0.309E-05    1.40     723.7  T

   *** convergence criteria satisfied after 11 iterations ***

         #    Occupation            Energy/Eh            Energy/eV
      -------------------------------------------------------------
         1        2.0000           -0.9420505             -25.6345
       ...           ...                  ...                  ...
        24        2.0000           -0.5752423             -15.6531
        25        2.0000           -0.5689941             -15.4831
        26        2.0000           -0.5560715             -15.1315
        27        2.0000           -0.5513107             -15.0019
        28        2.0000           -0.5409833             -14.7209
        29        2.0000           -0.5297071             -14.4141
        30        2.0000           -0.5278583             -14.3638 (HOMO)
        31                         -0.4765828             -12.9685 (LUMO)
        32                         -0.3895874             -10.6012
        33                         -0.2867444              -7.8027
        34                         -0.1715816              -4.6690
        35                         -0.1670670              -4.5461
       ...                                ...                  ...
        62                          0.6018028              16.3759
      -------------------------------------------------------------
                  HL-Gap            0.0512755 Eh            1.3953 eV
             Fermi-level           -0.5021577 Eh          -13.6644 eV

 SCC (total)                   0 d,  0 h,  0 min,  0.045 sec
 SCC setup                      ...        0 min,  0.001 sec (  2.105%)
 Dispersion                     ...        0 min,  0.000 sec (  0.290%)
 classical contributions        ...        0 min,  0.000 sec (  0.106%)
 integral evaluation            ...        0 min,  0.011 sec ( 23.662%)
 iterations                     ...        0 min,  0.011 sec ( 23.608%)
 molecular gradient             ...        0 min,  0.022 sec ( 49.632%)
 printout                       ...        0 min,  0.000 sec (  0.512%)

         :::::::::::::::::::::::::::::::::::::::::::::::::::::
         ::                     SUMMARY                     ::
         :::::::::::::::::::::::::::::::::::::::::::::::::::::
         :: total energy             -37.558034565353 Eh    ::
         :: total w/o Gsasa/hb       -37.548568162460 Eh    ::
         :: gradient norm              0.140906426294 Eh/a0 ::
         :: HOMO-LUMO gap              1.395277046713 eV    ::
         ::.................................................::
         :: SCC energy               -37.877097218207 Eh    ::
         :: -> electrostatic           0.224885635965 Eh    ::
         :: -> Gsolv                  -0.082231271519 Eh    ::
         ::    -> Gelec               -0.072764868627 Eh    ::
         ::    -> Gsasa               -0.014477296574 Eh    ::
         ::    -> Ghb                 -0.002613385323 Eh    ::
         ::    -> Gshift               0.007624279005 Eh    ::
         :: repulsion energy           0.327507222750 Eh    ::
         :: dispersion energy         -0.008444569895 Eh    ::
         :: halogen bond corr.         0.000000000000 Eh    ::
         :: add. restraining           0.000000000000 Eh    ::
         :: total charge               1.000000000001 e     ::
         :::::::::::::::::::::::::::::::::::::::::::::::::::::

      ----------------------------------------------------------- 
     |                   =====================                   |
     |                        A N C O P T                        |
     |                   =====================                   |
     |               Approximate Normal Coordinate               |
     |                Rational Function Optimizer                |
      ----------------------------------------------------------- 

          ...................................................
          :                      SETUP                      :
          :.................................................:
          :   optimization level            normal          :
          :   max. optcycles                   200          :
          :   ANC micro-cycles                  20          :
          :   degrees of freedom                54          :
          :.................................................:
          :   RF solver                   davidson          :
          :   write xtbopt.log                true          :
          :   linear?                        false          :
          :   energy convergence         0.5000000E-05 Eh   :
          :   grad. convergence          0.1000000E-02 Eh/α :
          :   maximium RF displ.         1.0000000          :
          :   Hlow (freq-cutoff)         0.1000000E-01      :
          :   Hmax (freq-cutoff)         5.0000000          :
          :   S6 in model hess.         20.0000000          :
          ...................................................

generating ANC from model Hessian ...
Using Lindh-Hessian (1995)
 Shifting diagonal of input Hessian by   8.617513894848926E-003
 Lowest  eigenvalues of input Hessian
    0.000000    0.000000    0.000000    0.000000    0.000000    0.000000
    0.010000    0.012655    0.014130    0.015701    0.019006    0.019289
    0.020197    0.027357    0.031795    0.039726    0.039875    0.057841
 Highest eigenvalues
    1.447735    1.521799    1.822354    1.867430    2.116205    2.343554
 

........................................................................
.............................. CYCLE    1 ..............................
........................................................................
   1    -37.8770972 -0.378771E+02  0.844E-06    1.40       0.0  T
   2    -37.8770972 -0.213163E-12  0.341E-06    1.40    6551.2  T
   3    -37.8770972  0.142109E-13  0.251E-06    1.40    8905.6  T
     SCC iter.                  ...        0 min,  0.003 sec
     gradient                   ...        0 min,  0.022 sec
 * total energy  :   -37.5580346 Eh     change       -0.3602452E-11 Eh
   gradient norm :     0.1409064 Eh/α   predicted     0.0000000E+00 (-100.00%)
   displ. norm   :     0.2298034 α      lambda       -0.1455463E-01
   maximum displ.:     0.1048333 α      in ANC's #9, #7, #13, ...

........................................................................
.............................. CYCLE    2 ..............................
........................................................................
   1    -37.8972606 -0.378973E+02  0.125E-01    1.64       0.0  T
   2    -37.8976952 -0.434584E-03  0.568E-02    1.59       1.0  T
   3    -37.8977306 -0.354940E-04  0.285E-02    1.60       1.0  T
   4    -37.8977305  0.171016E-06  0.105E-02    1.60       2.1  T
   5    -37.8977309 -0.378999E-06  0.134E-03    1.60      16.7  T
   6    -37.8977309 -0.357732E-07  0.361E-04    1.60      62.0  T
   7    -37.8977309 -0.959396E-09  0.139E-04    1.60     160.6  T
   8    -37.8977309 -0.175170E-09  0.268E-05    1.60     833.3  T
     SCC iter.                  ...        0 min,  0.008 sec
     gradient                   ...        0 min,  0.022 sec
 * total energy  :   -37.5689987 Eh     change       -0.1096411E-01 Eh
   gradient norm :     0.0785685 Eh/α   predicted    -0.7663637E-02 ( -30.10%)
   displ. norm   :     0.2804314 α      lambda       -0.8791912E-02
   maximum displ.:     0.1457454 α      in ANC's #7, #9, #3, ...

........................................................................
.............................. CYCLE    3 ..............................
........................................................................
   1    -37.9119715 -0.379120E+02  0.134E-01    1.84       0.0  T
   2    -37.9125173 -0.545717E-03  0.539E-02    1.78       1.0  T
   3    -37.9125537 -0.364633E-04  0.260E-02    1.79       1.0  T
   4    -37.9125538 -0.626906E-07  0.125E-02    1.79       1.8  T
   5    -37.9125540 -0.192821E-06  0.129E-03    1.79      17.4  T
   6    -37.9125540 -0.315086E-07  0.333E-04    1.79      67.1  T
   7    -37.9125540 -0.144409E-08  0.105E-04    1.79     212.4  T
   8    -37.9125540 -0.101913E-09  0.553E-05    1.79     404.3  T
     SCC iter.                  ...        0 min,  0.007 sec
     gradient                   ...        0 min,  0.022 sec
 * total energy  :   -37.5735319 Eh     change       -0.4533208E-02 Eh
   gradient norm :     0.0224125 Eh/α   predicted    -0.4741672E-02 (   4.60%)
   displ. norm   :     0.1531689 α      lambda       -0.9952382E-03
   maximum displ.:     0.0936982 α      in ANC's #3, #7, #9, ...

........................................................................
.............................. CYCLE    4 ..............................
........................................................................
   1    -37.9101170 -0.379101E+02  0.289E-02    1.77       0.0  T
   2    -37.9101267 -0.966442E-05  0.149E-02    1.78       1.5  T
   3    -37.9101272 -0.537958E-06  0.760E-03    1.78       2.9  T
   4    -37.9101273 -0.390705E-07  0.206E-03    1.78      10.8  T
   5    -37.9101273 -0.347306E-07  0.239E-04    1.78      93.5  T
   6    -37.9101273 -0.138746E-08  0.659E-05    1.78     339.1  T
   7    -37.9101273 -0.363301E-10  0.293E-05    1.78     762.3  T
     SCC iter.                  ...        0 min,  0.006 sec
     gradient                   ...        0 min,  0.022 sec
 * total energy  :   -37.5743004 Eh     change       -0.7684942E-03 Eh
   gradient norm :     0.0122379 Eh/α   predicted    -0.5093072E-03 ( -33.73%)
   displ. norm   :     0.2449145 α      lambda       -0.8420453E-03
   maximum displ.:     0.1721938 α      in ANC's #3, #7, #9, ...

........................................................................
.............................. CYCLE    5 ..............................
........................................................................
   1    -37.9088523 -0.379089E+02  0.370E-02    1.77       0.0  T
   2    -37.9088729 -0.206557E-04  0.184E-02    1.78       1.2  T
   3    -37.9088741 -0.117231E-05  0.933E-03    1.77       2.4  T
   4    -37.9088742 -0.631627E-07  0.279E-03    1.78       8.0  T
   5    -37.9088742 -0.440549E-07  0.530E-04    1.78      42.2  T
   6    -37.9088742 -0.635384E-08  0.124E-04    1.78     180.1  T
   7    -37.9088742 -0.111918E-09  0.496E-05    1.78     450.9  T
     SCC iter.                  ...        0 min,  0.006 sec
     gradient                   ...        0 min,  0.021 sec
 * total energy  :   -37.5748120 Eh     change       -0.5116689E-03 Eh
   gradient norm :     0.0069452 Eh/α   predicted    -0.4462850E-03 ( -12.78%)
   displ. norm   :     0.1211052 α      lambda       -0.1552991E-03
   maximum displ.:     0.1053268 α      in ANC's #3, #7, #9, ...

........................................................................
.............................. CYCLE    6 ..............................
........................................................................
   1    -37.9093643 -0.379094E+02  0.109E-02    1.77       0.0  T
   2    -37.9093662 -0.190924E-05  0.520E-03    1.77       4.3  T
   3    -37.9093663 -0.104164E-06  0.266E-03    1.77       8.4  T
   4    -37.9093663 -0.869271E-08  0.775E-04    1.77      28.8  T
   5    -37.9093663 -0.191925E-08  0.207E-04    1.77     108.0  T
   6    -37.9093663 -0.755961E-09  0.468E-05    1.77     477.7  T
   7    -37.9093663 -0.121858E-10  0.174E-05    1.77    1281.6  T
     SCC iter.                  ...        0 min,  0.004 sec
     gradient                   ...        0 min,  0.021 sec
 * total energy  :   -37.5749305 Eh     change       -0.1184344E-03 Eh
   gradient norm :     0.0060748 Eh/α   predicted    -0.7880892E-04 ( -33.46%)
   displ. norm   :     0.1480717 α      lambda       -0.1498977E-03
   maximum displ.:     0.1381114 α      in ANC's #3, #7, #1, ...

........................................................................
.............................. CYCLE    7 ..............................
........................................................................
   1    -37.9103421 -0.379103E+02  0.844E-03    1.78       0.0  T
   2    -37.9103425 -0.483742E-06  0.445E-03    1.78       5.0  T
   3    -37.9103426 -0.283211E-07  0.212E-03    1.78      10.6  T
   4    -37.9103426 -0.136809E-07  0.459E-04    1.78      48.8  T
   5    -37.9103426 -0.143957E-08  0.132E-04    1.78     169.8  T
   6    -37.9103426 -0.265267E-09  0.324E-05    1.78     689.1  T
     SCC iter.                  ...        0 min,  0.005 sec
     gradient                   ...        0 min,  0.018 sec
 * total energy  :   -37.5750452 Eh     change       -0.1147304E-03 Eh
   gradient norm :     0.0044996 Eh/α   predicted    -0.7659245E-04 ( -33.24%)
   displ. norm   :     0.1202304 α      lambda       -0.9442850E-04
   maximum displ.:     0.1140647 α      in ANC's #3, #1, #7, ...

........................................................................
.............................. CYCLE    8 ..............................
........................................................................
   1    -37.9109347 -0.379109E+02  0.576E-03    1.78       0.0  T
   2    -37.9109349 -0.195526E-06  0.343E-03    1.78       6.5  T
   3    -37.9109349 -0.751258E-08  0.169E-03    1.78      13.2  T
   4    -37.9109349 -0.397796E-08  0.254E-04    1.78      88.1  T
   5    -37.9109349 -0.115593E-08  0.582E-05    1.78     384.2  T
   6    -37.9109349 -0.378293E-10  0.122E-05    1.78    1832.5  T
     SCC iter.                  ...        0 min,  0.003 sec
     gradient                   ...        0 min,  0.015 sec
 * total energy  :   -37.5751192 Eh     change       -0.7399474E-04 Eh
   gradient norm :     0.0029384 Eh/α   predicted    -0.4789754E-04 ( -35.27%)
   displ. norm   :     0.0949138 α      lambda       -0.5325676E-04
   maximum displ.:     0.0887665 α      in ANC's #3, #1, #10, ...

........................................................................
.............................. CYCLE    9 ..............................
........................................................................
   1    -37.9111058 -0.379111E+02  0.451E-03    1.78       0.0  T
   2    -37.9111061 -0.254749E-06  0.249E-03    1.78       9.0  T
   3    -37.9111061 -0.157366E-07  0.132E-03    1.78      17.0  T
   4    -37.9111061 -0.175497E-08  0.235E-04    1.78      95.1  T
   5    -37.9111061 -0.394046E-09  0.754E-05    1.78     296.7  T
   6    -37.9111061 -0.575824E-10  0.146E-05    1.78    1534.9  T
     SCC iter.                  ...        0 min,  0.005 sec
     gradient                   ...        0 min,  0.021 sec
 * total energy  :   -37.5751601 Eh     change       -0.4087379E-04 Eh
   gradient norm :     0.0020129 Eh/α   predicted    -0.2690629E-04 ( -34.17%)
   displ. norm   :     0.0643827 α      lambda       -0.2362686E-04
   maximum displ.:     0.0590732 α      in ANC's #3, #1, #10, ...

........................................................................
.............................. CYCLE   10 ..............................
........................................................................
   1    -37.9110869 -0.379111E+02  0.320E-03    1.78       0.0  T
   2    -37.9110870 -0.169681E-06  0.159E-03    1.78      14.1  T
   3    -37.9110871 -0.185340E-07  0.889E-04    1.78      25.2  T
   4    -37.9110871 -0.144780E-08  0.221E-04    1.78     101.3  T
   5    -37.9110871 -0.208999E-09  0.824E-05    1.78     271.5  T
   6    -37.9110871 -0.518270E-10  0.169E-05    1.78    1323.0  T
     SCC iter.                  ...        0 min,  0.005 sec
     gradient                   ...        0 min,  0.021 sec
 * total energy  :   -37.5751784 Eh     change       -0.1835711E-04 Eh
   gradient norm :     0.0015269 Eh/α   predicted    -0.1187310E-04 ( -35.32%)
   displ. norm   :     0.0709074 α      lambda       -0.1210994E-04
   maximum displ.:     0.0621527 α      in ANC's #3, #1, #4, ...

........................................................................
.............................. CYCLE   11 ..............................
........................................................................
   1    -37.9109974 -0.379110E+02  0.387E-03    1.78       0.0  T
   2    -37.9109977 -0.319951E-06  0.202E-03    1.78      11.1  T
   3    -37.9109978 -0.420604E-07  0.103E-03    1.78      21.6  T
   4    -37.9109978 -0.561428E-09  0.338E-04    1.78      66.2  T
   5    -37.9109978 -0.534286E-09  0.752E-05    1.78     297.4  T
   6    -37.9109978 -0.427320E-10  0.183E-05    1.78    1222.8  T
     SCC iter.                  ...        0 min,  0.005 sec
     gradient                   ...        0 min,  0.016 sec
 * total energy  :   -37.5751909 Eh     change       -0.1242820E-04 Eh
   gradient norm :     0.0010527 Eh/α   predicted    -0.6070223E-05 ( -51.16%)
   displ. norm   :     0.0451190 α      lambda       -0.4944570E-05
   maximum displ.:     0.0364961 α      in ANC's #3, #5, #1, ...

........................................................................
.............................. CYCLE   12 ..............................
........................................................................
   1    -37.9110058 -0.379110E+02  0.209E-03    1.78       0.0  T
   2    -37.9110059 -0.976500E-07  0.127E-03    1.78      17.6  T
   3    -37.9110059 -0.128369E-07  0.600E-04    1.78      37.3  T
   4    -37.9110059  0.138826E-09  0.224E-04    1.78      99.8  T
   5    -37.9110059 -0.278675E-09  0.272E-05    1.78     823.1  T
   6    -37.9110059 -0.471800E-11  0.518E-06    1.78    4319.2  T
     SCC iter.                  ...        0 min,  0.006 sec
     gradient                   ...        0 min,  0.022 sec
 * total energy  :   -37.5751963 Eh     change       -0.5462912E-05 Eh
   gradient norm :     0.0007242 Eh/α   predicted    -0.2483382E-05 ( -54.54%)
   displ. norm   :     0.0597301 α      lambda       -0.4779513E-05
   maximum displ.:     0.0425004 α      in ANC's #3, #5, #1, ...

........................................................................
.............................. CYCLE   13 ..............................
........................................................................
   1    -37.9110119 -0.379110E+02  0.205E-03    1.78       0.0  T
   2    -37.9110120 -0.638175E-07  0.122E-03    1.78      18.4  T
   3    -37.9110120 -0.784732E-08  0.578E-04    1.78      38.7  T
   4    -37.9110120 -0.188393E-09  0.193E-04    1.78     115.6  T
   5    -37.9110120 -0.168065E-09  0.272E-05    1.78     823.3  T
     SCC iter.                  ...        0 min,  0.003 sec
     gradient                   ...        0 min,  0.012 sec
 * total energy  :   -37.5752006 Eh     change       -0.4298939E-05 Eh
   gradient norm :     0.0008993 Eh/α   predicted    -0.2396231E-05 ( -44.26%)
   displ. norm   :     0.0391467 α      lambda       -0.2970102E-05
   maximum displ.:     0.0201706 α      in ANC's #5, #3, #4, ...

   *** GEOMETRY OPTIMIZATION CONVERGED AFTER 13 ITERATIONS ***

------------------------------------------------------------------------
 total energy gain   :        -0.0171661 Eh      -10.7719 kcal/mol
 total RMSD          :         0.3087071 a0        0.1634 Å
 total power (kW/mol):        -3.4668843 (step)  -96.8529 (real)
------------------------------------------------------------------------

 ANCopt (total)                0 d,  0 h,  0 min,  0.465 sec
 optimizer setup                ...        0 min,  0.001 sec (  0.140%)
 model hessian                  ...        0 min,  0.007 sec (  1.454%)
 ANC generation                 ...        0 min,  0.001 sec (  0.132%)
 coordinate transformation      ...        0 min,  0.000 sec (  0.036%)
 single point calculation       ...        0 min,  0.453 sec ( 97.251%)
 optimization log               ...        0 min,  0.002 sec (  0.492%)
 hessian update                 ...        0 min,  0.000 sec (  0.038%)
 rational function              ...        0 min,  0.001 sec (  0.244%)

================
 final structure:
================
20
 xtb: 6.5.1 (579679a)
C            3.83647704317570       -0.47028124841565       -0.25124579149355
O            2.40458990083480       -0.30017950647782       -0.19765746476711
C            1.85931654953693       -0.10448457161123        0.96548634331881
O            2.38461048334641       -0.04640708931571        2.03698842750618
C            0.33956520102036        0.05627539590021        0.81794867496558
N           -0.52026706768897        0.26970024944974        1.86959433496620
N           -1.68267966644104        0.35002171471191        1.39056758235914
C           -1.65088693210220        0.19077559577629       -0.01698083515001
C           -2.15411613993798        1.45484850708403       -0.73239556835953
C           -2.43174007159634       -1.06207178093635       -0.44765635140138
O           -0.26705430246092        0.00481557202935       -0.28909264361574
H            4.31948430793894        0.45887462874001        0.05442317974162
H            4.06830390832172       -0.70909357510833       -1.28591841557360
H            4.13101815078788       -1.27990068461063        0.41731668865110
H           -1.56043030128046        2.30770981830265       -0.41083459924340
H           -3.19933361932643        1.60647183165288       -0.47408709378441
H           -2.04818611992482        1.31060910775054       -1.80499989531672
H           -2.02103500437882       -1.93113122460627        0.06190167238819
H           -2.33091926564423       -1.17900085088318       -1.52397631962008
H           -3.47671805418057       -0.92754988943246       -0.17938592557123
 
 Bond Distances (Angstroems)
 ---------------------------
C1-O2=1.4430         C1-H12=1.0909        C1-H13=1.0869        C1-H14=1.0905        O2-C1=1.4430         O2-C3=1.2994         
C3-O2=1.2994         C3-O4=1.1947         C3-C5=1.5353         O4-C3=1.1947         C5-C3=1.5353         C5-N6=1.3751         
C5-O11=1.2634        N6-C5=1.3751         N6-N7=1.2598         N7-N6=1.2598         N7-C8=1.4169         C8-N7=1.4169         
C8-C9=1.5372         C8-C10=1.5378        C8-O11=1.4225        C9-C8=1.5372         C9-H15=1.0878        C9-H16=1.0873        
C9-H17=1.0874        C10-C8=1.5378        C10-H18=1.0879       C10-H19=1.0873       C10-H20=1.0872       O11-C5=1.2634        
O11-C8=1.4225        H12-C1=1.0909        H13-C1=1.0869        H14-C1=1.0905        H15-C9=1.0878        H16-C9=1.0873        
H17-C9=1.0874        H18-C10=1.0879       H19-C10=1.0873       H20-C10=1.0872       
 C  H  Rav=1.0881 sigma=0.0014  Rmin=1.0869  Rmax=1.0909     9
 C  C  Rav=1.5368 sigma=0.0010  Rmin=1.5353  Rmax=1.5378     3
 N  C  Rav=1.3960 sigma=0.0209  Rmin=1.3751  Rmax=1.4169     2
 N  N  Rav=1.2598 sigma=0.0000  Rmin=1.2598  Rmax=1.2598     1
 O  C  Rav=1.3246 sigma=0.0947  Rmin=1.1947  Rmax=1.4430     5
 
 selected bond angles (degree)
 --------------------
H12-C1-O2=109.18               H13-C1-O2=105.84               H13-C1-H12=111.07              H14-C1-O2=109.44               
H14-C1-H12=109.94              H14-C1-H13=111.28              C3-O2-C1=117.87                O4-C3-O2=128.73                
C5-C3-O2=110.19                C5-C3-O4=121.08                N6-C5-C3=124.17                O11-C5-C3=123.73               
O11-C5-N6=112.10               N7-N6-C5=107.22                C8-N7-N6=110.48                C9-C8-N7=111.26                
C10-C8-N7=111.00               C10-C8-C9=111.92               O11-C8-N7=103.09               O11-C8-C9=109.69               
O11-C8-C10=109.50              H15-C9-C8=109.18               H16-C9-C8=108.59               H16-C9-H15=110.19              
H17-C9-C8=108.55               H17-C9-H15=110.02              H17-C9-H16=110.27              H18-C10-C8=109.14              
H19-C10-C8=108.53              H19-C10-H18=110.04             H20-C10-C8=108.55              H20-C10-H18=110.25             
H20-C10-H19=110.28             
 
 selected dihedral angles (degree)
 ---------------------------------
C3-O2-C1-H12=294.55           C3-O2-C1-H13=174.92           C3-O2-C1-H14= 54.92           O4-C3-O2-C1=359.73            
C5-C3-O2-C1=179.86            N6-C5-C3-O2=179.68            N6-C5-C3-O4=359.80            O11-C5-C3-O2=359.82           
O11-C5-C3-O4=179.94           N7-N6-C5-C3=180.15            N7-N6-C5-O11=  0.02           C8-N7-N6-C5=  0.06            
C9-C8-N7-N6=242.39            C10-C8-N7-N6=117.05           O11-C8-N7-N6=359.89           H15-C9-C8-N7= 56.28           
H15-C9-C8-C10=181.11          H15-C9-C8-O11=302.86          H16-C9-C8-N7=296.12           H16-C9-C8-C10= 60.94          
H16-C9-C8-O11=182.70          H17-C9-C8-N7=176.22           H17-C9-C8-C10=301.05          H17-C9-C8-O11= 62.80          
H18-C10-C8-N7=303.33          H18-C10-C8-C9=178.36          H18-C10-C8-O11= 56.49         H19-C10-C8-N7=183.40          
H19-C10-C8-C9= 58.43          H19-C10-C8-O11=296.56         H20-C10-C8-N7= 63.52          H20-C10-C8-C9=298.55          
H20-C10-C8-O11=176.69         
           -------------------------------------------------
          |                Final Singlepoint                |
           -------------------------------------------------

          ...................................................
          :                      SETUP                      :
          :.................................................:
          :  # basis functions                  62          :
          :  # atomic orbitals                  62          :
          :  # shells                           40          :
          :  # electrons                        60          :
          :  # halogen bonds                     0          :
          :  max. iterations                   250          :
          :  Hamiltonian                  GFN1-xTB          :
          :  restarted?                      false          :
          :  GBSA solvation                   true          :
          :  PC potential                    false          :
          :  electronic temp.          300.0000000     K    :
          :  accuracy                    1.0000000          :
          :  -> integral cutoff          0.2500000E+02      :
          :  -> integral neglect         0.1000000E-07      :
          :  -> SCF convergence          0.1000000E-05 Eh   :
          :  -> wf. convergence          0.2000000E-04 e    :
          :  Broyden damping             0.4000000          :
          ...................................................

 iter      E             dE          RMSdq      gap      omega  full diag
   1    -37.9110120 -0.379110E+02  0.846E-06    1.78       0.0  T
   2    -37.9110120 -0.383693E-12  0.376E-06    1.78    5943.4  T
   3    -37.9110120 -0.106581E-12  0.233E-06    1.78    9601.8  T

   *** convergence criteria satisfied after 3 iterations ***

         #    Occupation            Energy/Eh            Energy/eV
      -------------------------------------------------------------
         1        2.0000           -0.9573359             -26.0504
       ...           ...                  ...                  ...
        24        2.0000           -0.5749235             -15.6445
        25        2.0000           -0.5685883             -15.4721
        26        2.0000           -0.5557510             -15.1228
        27        2.0000           -0.5517793             -15.0147
        28        2.0000           -0.5425279             -14.7629
        29        2.0000           -0.5355388             -14.5728
        30        2.0000           -0.5253046             -14.2943 (HOMO)
        31                         -0.4598142             -12.5122 (LUMO)
        32                         -0.3770224             -10.2593
        33                         -0.2803160              -7.6278
        34                         -0.1702065              -4.6316
        35                         -0.1643924              -4.4733
       ...                                ...                  ...
        62                          0.7364886              20.0409
      -------------------------------------------------------------
                  HL-Gap            0.0654904 Eh            1.7821 eV
             Fermi-level           -0.4925594 Eh          -13.4032 eV

 SCC (total)                   0 d,  0 h,  0 min,  0.035 sec
 SCC setup                      ...        0 min,  0.001 sec (  1.878%)
 Dispersion                     ...        0 min,  0.000 sec (  0.247%)
 classical contributions        ...        0 min,  0.000 sec (  0.083%)
 integral evaluation            ...        0 min,  0.010 sec ( 28.629%)
 iterations                     ...        0 min,  0.003 sec (  7.251%)
 molecular gradient             ...        0 min,  0.021 sec ( 61.284%)
 printout                       ...        0 min,  0.000 sec (  0.533%)

         :::::::::::::::::::::::::::::::::::::::::::::::::::::
         ::                     SUMMARY                     ::
         :::::::::::::::::::::::::::::::::::::::::::::::::::::
         :: total energy             -37.575200629884 Eh    ::
         :: total w/o Gsasa/hb       -37.565513830691 Eh    ::
         :: gradient norm              0.000903237296 Eh/a0 ::
         :: HOMO-LUMO gap              1.782085052952 eV    ::
         ::.................................................::
         :: SCC energy               -37.911011972618 Eh    ::
         :: -> electrostatic           0.222291547235 Eh    ::
         :: -> Gsolv                  -0.082816680047 Eh    ::
         ::    -> Gelec               -0.073129880854 Eh    ::
         ::    -> Gsasa               -0.014716535804 Eh    ::
         ::    -> Ghb                 -0.002594542394 Eh    ::
         ::    -> Gshift               0.007624279005 Eh    ::
         :: repulsion energy           0.344237663759 Eh    ::
         :: dispersion energy         -0.008426321025 Eh    ::
         :: halogen bond corr.         0.000000000000 Eh    ::
         :: add. restraining           0.000000000000 Eh    ::
         :: total charge               1.000000000000 e     ::
         :::::::::::::::::::::::::::::::::::::::::::::::::::::

           -------------------------------------------------
          |                Property Printout                |
           -------------------------------------------------

    * Orbital Energies and Occupations

         #    Occupation            Energy/Eh            Energy/eV
      -------------------------------------------------------------
         1        2.0000           -0.9573359             -26.0504
       ...           ...                  ...                  ...
        18        2.0000           -0.6147545             -16.7283
        19        2.0000           -0.6116753             -16.6445
        20        2.0000           -0.6108588             -16.6223
        21        2.0000           -0.5874699             -15.9859
        22        2.0000           -0.5856927             -15.9375
        23        2.0000           -0.5791424             -15.7593
        24        2.0000           -0.5749235             -15.6445
        25        2.0000           -0.5685883             -15.4721
        26        2.0000           -0.5557510             -15.1228
        27        2.0000           -0.5517793             -15.0147
        28        2.0000           -0.5425279             -14.7629
        29        2.0000           -0.5355388             -14.5728
        30        2.0000           -0.5253046             -14.2943 (HOMO)
        31                         -0.4598142             -12.5122 (LUMO)
        32                         -0.3770224             -10.2593
        33                         -0.2803160              -7.6278
        34                         -0.1702065              -4.6316
        35                         -0.1643924              -4.4733
        36                         -0.1599550              -4.3526
        37                         -0.1204638              -3.2780
        38                         -0.1124701              -3.0605
        39                         -0.0976353              -2.6568
        40                         -0.0950823              -2.5873
        41                         -0.0921994              -2.5089
       ...                                ...                  ...
        62                          0.7364886              20.0409
      -------------------------------------------------------------
                  HL-Gap            0.0654904 Eh            1.7821 eV
             Fermi-level           -0.4925594 Eh          -13.4032 eV

  Mulliken/CM5 charges         n(s)   n(p)   n(d)
     1C     0.15455  0.03241   0.996  2.849  0.000
     2O    -0.36816 -0.45315   1.677  4.691  0.000
     3C     0.61063  0.68097   0.939  2.450  0.000
     4O    -0.48328 -0.52753   1.712  4.772  0.000
     5C     0.46587  0.58078   1.069  2.465  0.000
     6N    -0.10019 -0.18969   1.546  3.554  0.000
     7N    -0.03996 -0.13960   1.577  3.463  0.000
     8C     0.34350  0.41505   1.058  2.598  0.000
     9C    -0.08226 -0.22076   1.036  3.046  0.000
    10C    -0.08169 -0.22012   1.037  3.045  0.000
    11O    -0.26348 -0.32502   1.682  4.582  0.000
    12H     0.08311  0.14405   0.917  0.000  0.000
    13H     0.08565  0.14609   0.914  0.000  0.000
    14H     0.08204  0.14378   0.918  0.000  0.000
    15H     0.09627  0.15458   0.904  0.000  0.000
    16H     0.09855  0.15427   0.901  0.000  0.000
    17H     0.10192  0.15735   0.898  0.000  0.000
    18H     0.09629  0.15468   0.904  0.000  0.000
    19H     0.10199  0.15744   0.898  0.000  0.000
    20H     0.09865  0.15443   0.901  0.000  0.000

Wiberg/Mayer (AO) data.
largest (>0.10) Wiberg bond orders for each atom

 ---------------------------------------------------------------------------
     #   Z sym  total        # sym  WBO       # sym  WBO       # sym  WBO
 ---------------------------------------------------------------------------
     1   6 C    3.819 --    13 H    0.982    14 H    0.973    12 H    0.971
                             2 O    0.853
     2   8 O    2.272 --     3 C    1.203     1 C    0.853     4 O    0.174
     3   6 C    3.882 --     4 O    1.711     2 O    1.203     5 C    0.898
     4   8 O    1.998 --     3 C    1.711     2 O    0.174
     5   6 C    3.790 --    11 O    1.390     6 N    1.203     3 C    0.898
     6   7 N    3.022 --     7 N    1.675     5 C    1.203
     7   7 N    2.995 --     6 N    1.675     8 C    1.075
     8   6 C    3.814 --     7 N    1.075     9 C    0.885    10 C    0.882
                            11 O    0.868
     9   6 C    3.941 --    15 H    0.978    16 H    0.975    17 H    0.974
                             8 C    0.885
    10   6 C    3.941 --    18 H    0.978    20 H    0.975    19 H    0.974
                             8 C    0.882
    11   8 O    2.439 --     5 C    1.390     8 C    0.868
    12   1 H    0.996 --     1 C    0.971
    13   1 H    1.002 --     1 C    0.982
    14   1 H    0.996 --     1 C    0.973
    15   1 H    0.989 --     9 C    0.978
    16   1 H    0.989 --     9 C    0.975
    17   1 H    0.989 --     9 C    0.974
    18   1 H    0.989 --    10 C    0.978
    19   1 H    0.989 --    10 C    0.974
    20   1 H    0.989 --    10 C    0.975
 ---------------------------------------------------------------------------

Topologies differ in total number of bonds
Writing topology from bond orders to xtbtopo.mol

 dipole moment from electron density (au)
     X       Y       Z   
  -0.9207  -0.0576  -1.5147  total (Debye):    4.508

           -------------------------------------------------
          |                Geometry Summary                 |
           -------------------------------------------------

      molecular mass/u    :      157.1475033
   center of mass at/Å    :        0.2350799       0.0232128       0.4410256
  moments of inertia/u·Å² :        0.2014786E+03   0.7599868E+03   0.8486703E+03
rotational constants/cm⁻¹ :        0.8366958E-01   0.2218148E-01   0.1986358E-01

 * 19 selected distances

     #   Z          #   Z                                           value/Å
     1   6 C        2   8 O                                       1.4429510
     2   8 O        3   6 C                                       1.2994319
     3   6 C        4   8 O                                       1.1947484
     5   6 C        6   7 N                                       1.3750711
     6   7 N        7   7 N                                       1.2598101
     7   7 N        8   6 C                                       1.4168850
     8   6 C        9   6 C                                       1.5371853
     8   6 C       10   6 C                                       1.5378036 (max)
     5   6 C       11   8 O                                       1.2633986
     8   6 C       11   8 O                                       1.4225397
     1   6 C       12   1 H                                       1.0908989
     1   6 C       13   1 H                                       1.0868867 (min)
     1   6 C       14   1 H                                       1.0905109
     9   6 C       15   1 H                                       1.0877670
     9   6 C       16   1 H                                       1.0872869
     9   6 C       17   1 H                                       1.0874311
    10   6 C       18   1 H                                       1.0879304
    10   6 C       19   1 H                                       1.0873372
    10   6 C       20   1 H                                       1.0872186

 * 5 distinct bonds (by element types)

   Z      Z             #   av. dist./Å        max./Å        min./Å
   1 H    6 C           9     1.0881409     1.0908989     1.0868867
   6 C    6 C           2     1.5374945     1.5378036     1.5371853
   6 C    7 N           2     1.3959781     1.4168850     1.3750711
   7 N    7 N           1     1.2598101     1.2598101     1.2598101
   6 C    8 O           5     1.3246139     1.4429510     1.1947484


optimized geometry written to: xtbopt.xyz


           -------------------------------------------------
          | TOTAL ENERGY              -37.575200629884 Eh   |
          | GRADIENT NORM               0.000903237296 Eh/α |
          | HOMO-LUMO GAP               1.782085052952 eV   |
           -------------------------------------------------

------------------------------------------------------------------------
 * finished run on 2023/06/20 at 14:56:45.260     
------------------------------------------------------------------------
 total:
 * wall-time:     0 d,  0 h,  0 min,  0.649 sec
 *  cpu-time:     0 d,  0 h,  0 min,  0.566 sec
 * ratio c/w:     0.873 speedup
 SCF:
 * wall-time:     0 d,  0 h,  0 min,  0.045 sec
 *  cpu-time:     0 d,  0 h,  0 min,  0.045 sec
 * ratio c/w:     0.994 speedup
 ANC optimizer:
 * wall-time:     0 d,  0 h,  0 min,  0.504 sec
 *  cpu-time:     0 d,  0 h,  0 min,  0.497 sec
 * ratio c/w:     0.987 speedup

