      -----------------------------------------------------------      
     |                   =====================                   |     
     |                           x T B                           |     
     |                   =====================                   |     
     |                         S. Grimme                         |     
     |          Mulliken Center for Theoretical Chemistry        |     
     |                    University of Bonn                     |     
      -----------------------------------------------------------      

   * xtb version 6.5.1 (579679a) compiled by 'ehlert@majestix' on 2022-07-11

   xtb is free software: you can redistribute it and/or modify it under
   the terms of the GNU Lesser General Public License as published by
   the Free Software Foundation, either version 3 of the License, or
   (at your option) any later version.
   
   xtb is distributed in the hope that it will be useful,
   but WITHOUT ANY WARRANTY; without even the implied warranty of
   MERCHANTABILITY or FITNESS FOR A PARTICULAR PURPOSE.  See the
   GNU Lesser General Public License for more details.
   
   Cite this work as:
   * C. Bannwarth, E. Caldeweyher, S. Ehlert, A. Hansen, P. Pracht,
     J. Seibert, S. Spicher, S. Grimme, WIREs Comput. Mol. Sci., 2020, 11,
     e01493. DOI: 10.1002/wcms.1493
   
   for GFN2-xTB:
   * C. Bannwarth, S. Ehlert and S. Grimme., J. Chem. Theory Comput., 2019,
     15, 1652-1671. DOI: 10.1021/acs.jctc.8b01176
   for GFN1-xTB:
   * S. Grimme, C. Bannwarth, P. Shushkov, J. Chem. Theory Comput., 2017,
     13, 1989-2009. DOI: 10.1021/acs.jctc.7b00118
   for GFN0-xTB:
   * P. Pracht, E. Caldeweyher, S. Ehlert, S. Grimme, ChemRxiv, 2019, preprint.
     DOI: 10.26434/chemrxiv.8326202.v1
   for GFN-FF:
   * S. Spicher and S. Grimme, Angew. Chem. Int. Ed., 2020, 59, 15665-15673.
     DOI: 10.1002/anie.202004239
   
   for ALPB and GBSA implicit solvation:
   * S. Ehlert, M. Stahn, S. Spicher, S. Grimme, J. Chem. Theory Comput.,
     2021, 17, 4250-4261. DOI: 10.1021/acs.jctc.1c00471
   
   for DFT-D4:
   * E. Caldeweyher, C. Bannwarth and S. Grimme, J. Chem. Phys., 2017,
     147, 034112. DOI: 10.1063/1.4993215
   * E. Caldeweyher, S. Ehlert, A. Hansen, H. Neugebauer, S. Spicher,
     C. Bannwarth and S. Grimme, J. Chem. Phys., 2019, 150, 154122.
     DOI: 10.1063/1.5090222
   * E. Caldeweyher, J.-M. Mewes, S. Ehlert and S. Grimme, Phys. Chem. Chem. Phys.
     2020, 22, 8499-8512. DOI: 10.1039/D0CP00502A
   
   for sTDA-xTB:
   * S. Grimme and C. Bannwarth, J. Chem. Phys., 2016, 145, 054103.
     DOI: 10.1063/1.4959605
   
   in the mass-spec context:
   * V. Asgeirsson, C. Bauer and S. Grimme, Chem. Sci., 2017, 8, 4879.
     DOI: 10.1039/c7sc00601b
   * J. Koopman and S. Grimme, ACS Omega 2019, 4, 12, 15120-15133.
     DOI: 10.1021/acsomega.9b02011
   
   for metadynamics refer to:
   * S. Grimme, J. Chem. Theory Comput., 2019, 155, 2847-2862
     DOI: 10.1021/acs.jctc.9b00143
   
   for SPH calculations refer to:
   * S. Spicher and S. Grimme, J. Chem. Theory Comput., 2021, 17, 1701-1714
     DOI: 10.1021/acs.jctc.0c01306
   
   with help from (in alphabetical order)
   P. Atkinson, C. Bannwarth, F. Bohle, G. Brandenburg, E. Caldeweyher
   M. Checinski, S. Dohm, S. Ehlert, S. Ehrlich, I. Gerasimov, C. Hölzer
   A. Katbashev, J. Koopman, C. Lavigne, S. Lehtola, F. März, M. Müller,
   F. Musil, H. Neugebauer, J. Pisarek, C. Plett, P. Pracht, F. Pultar,
   J. Seibert, P. Shushkov, S. Spicher, M. Stahn, M. Steiner, T. Strunk,
   J. Stückrath, T. Rose, and J. Unsleber
   
 * started run on 2023/06/21 at 17:36:19.643     

           -------------------------------------------------
          |                Calculation Setup                |
           -------------------------------------------------

          program call               : /lustre/hpc/kemi/ree/PhD/git/ReactivityQM/dep/xtb-6.5.1/bin/xtb --gfn 1 /lustre/hpc/kemi/ree/PhD/git/ReactivityQM/calculations/R02oxygendeprot/reac01prodN16/conf16/R02oxygendeprot_reac01prodN16_conf16_gfn1.xyz --opt --vfukui --chrg 0 --uhf 0 --alpb DMSO
          hostname                   : node070
          coordinate file            : /lustre/hpc/kemi/ree/PhD/git/ReactivityQM/calculations/R02oxygendeprot/reac01prodN16/conf16/R02oxygendeprot_reac01prodN16_conf16_gfn1.xyz
          omp threads                :                     1

   ID    Z sym.   atoms
    1    6 C      1, 2, 5, 6, 9-12, 14, 15, 18-20, 22
    2    7 N      3, 4, 8, 13, 24
    3    8 O      7, 16, 17, 21, 23, 25
    4    1 H      26-42

           -------------------------------------------------
          |                 G F N 1 - x T B                 |
           -------------------------------------------------

        Reference                      10.1021/acs.jctc.7b00118
      * Hamiltonian:
        H0-scaling (s, p, d)           1.850000    2.250000    2.000000
        zeta-weighting                 0.000000
      * Dispersion:
        s8                             2.400000
        a1                             0.630000
        a2                             5.000000
        s9                             0.000000
      * Repulsion:
        kExp                           1.500000
        rExp                           1.000000
      * Coulomb:
        alpha                          2.000000
        third order                    atomic
        anisotropic                    false
      * Halogen bond correction:
        rad-scale                      1.300000
        damping                        0.440000

      * Solvation model:               ALPB
        Solvent                        DMSO
        Parameter file                 internal GFN1-xTB/ALPB
        Dielectric constant                4.6680E+01
        Reference state                gsolv [1 M gas/solution]
        Free energy shift                  7.6243E-03 Eh       4.7843E+00 kcal/mol
        Temperature                        2.9815E+02 K
        Density                            1.1000E+00 kg/L
        Solvent mass                       7.8130E+01 g/mol
        Interaction kernel             P16
        Born radius scaling (c1)           1.7672E+00
        Born radii integrator          GBOBC
        Born offset                        0.0000E+00 a0       0.0000E+00 AA
        H-bond correction              true
        Ion screening                  false
        Surface tension                    1.0000E-05 Eh       1.5569E+01 dyn/cm
        Grid points                               230 per atom

          ...................................................
          :                      SETUP                      :
          :.................................................:
          :  # basis functions                 134          :
          :  # atomic orbitals                 134          :
          :  # shells                           84          :
          :  # electrons                       134          :
          :  # halogen bonds                     0          :
          :  max. iterations                   250          :
          :  Hamiltonian                  GFN1-xTB          :
          :  restarted?                      false          :
          :  GBSA solvation                   true          :
          :  PC potential                    false          :
          :  electronic temp.          300.0000000     K    :
          :  accuracy                    1.0000000          :
          :  -> integral cutoff          0.2500000E+02      :
          :  -> integral neglect         0.1000000E-07      :
          :  -> SCF convergence          0.1000000E-05 Eh   :
          :  -> wf. convergence          0.2000000E-04 e    :
          :  Broyden damping             0.4000000          :
          ...................................................

 iter      E             dE          RMSdq      gap      omega  full diag
   1    -83.3001185 -0.833001E+02  0.851E+00    2.54       0.0  T
   2    -83.6657342 -0.365616E+00  0.508E+00    1.96       1.0  T
   3    -83.6462730  0.194612E-01  0.186E+00    2.13       1.0  T
   4    -83.6890506 -0.427776E-01  0.240E-01    1.99       1.0  T
   5    -83.6917926 -0.274198E-02  0.681E-02    2.01       1.0  T
   6    -83.6920996 -0.306963E-03  0.198E-02    2.01       1.0  T
   7    -83.6921126 -0.129925E-04  0.627E-03    2.02       2.5  T
   8    -83.6921129 -0.321694E-06  0.192E-03    2.02       8.0  T
   9    -83.6921130 -0.961087E-07  0.500E-04    2.02      30.9  T
  10    -83.6921130 -0.104154E-08  0.202E-04    2.02      76.2  T
  11    -83.6921130 -0.258581E-09  0.358E-05    2.02     431.2  T
  12    -83.6921130 -0.239879E-10  0.162E-05    2.02     950.6  T

   *** convergence criteria satisfied after 12 iterations ***

         #    Occupation            Energy/Eh            Energy/eV
      -------------------------------------------------------------
         1        2.0000           -0.8948478             -24.3500
       ...           ...                  ...                  ...
        61        2.0000           -0.4613914             -12.5551
        62        2.0000           -0.4533059             -12.3351
        63        2.0000           -0.4450672             -12.1109
        64        2.0000           -0.4434738             -12.0675
        65        2.0000           -0.4390645             -11.9476
        66        2.0000           -0.4074091             -11.0862
        67        2.0000           -0.3909648             -10.6387 (HOMO)
        68                         -0.3167897              -8.6203 (LUMO)
        69                         -0.3158784              -8.5955
        70                         -0.2687642              -7.3134
        71                         -0.2581500              -7.0246
        72                         -0.2455745              -6.6824
       ...                                ...                  ...
       134                          0.7862698              21.3955
      -------------------------------------------------------------
                  HL-Gap            0.0741751 Eh            2.0184 eV
             Fermi-level           -0.3538773 Eh           -9.6295 eV

 SCC (total)                   0 d,  0 h,  0 min,  0.151 sec
 SCC setup                      ...        0 min,  0.002 sec (  1.261%)
 Dispersion                     ...        0 min,  0.000 sec (  0.193%)
 classical contributions        ...        0 min,  0.000 sec (  0.063%)
 integral evaluation            ...        0 min,  0.025 sec ( 16.730%)
 iterations                     ...        0 min,  0.065 sec ( 42.823%)
 molecular gradient             ...        0 min,  0.057 sec ( 38.079%)
 printout                       ...        0 min,  0.001 sec (  0.828%)

         :::::::::::::::::::::::::::::::::::::::::::::::::::::
         ::                     SUMMARY                     ::
         :::::::::::::::::::::::::::::::::::::::::::::::::::::
         :: total energy             -82.925114913066 Eh    ::
         :: total w/o Gsasa/hb       -82.903282383628 Eh    ::
         :: gradient norm              0.147270495620 Eh/a0 ::
         :: HOMO-LUMO gap              2.018407927384 eV    ::
         ::.................................................::
         :: SCC energy               -83.692112970151 Eh    ::
         :: -> electrostatic           0.388713907308 Eh    ::
         :: -> Gsolv                  -0.072593249235 Eh    ::
         ::    -> Gelec               -0.050760719797 Eh    ::
         ::    -> Gsasa               -0.024701807688 Eh    ::
         ::    -> Ghb                 -0.004755000755 Eh    ::
         ::    -> Gshift               0.007624279005 Eh    ::
         :: repulsion energy           0.792598714776 Eh    ::
         :: dispersion energy         -0.025600657692 Eh    ::
         :: halogen bond corr.         0.000000000000 Eh    ::
         :: add. restraining           0.000000000000 Eh    ::
         :: total charge              -0.000000000000 e     ::
         :::::::::::::::::::::::::::::::::::::::::::::::::::::

      ----------------------------------------------------------- 
     |                   =====================                   |
     |                        A N C O P T                        |
     |                   =====================                   |
     |               Approximate Normal Coordinate               |
     |                Rational Function Optimizer                |
      ----------------------------------------------------------- 

          ...................................................
          :                      SETUP                      :
          :.................................................:
          :   optimization level            normal          :
          :   max. optcycles                   200          :
          :   ANC micro-cycles                  20          :
          :   degrees of freedom               120          :
          :.................................................:
          :   RF solver                   davidson          :
          :   write xtbopt.log                true          :
          :   linear?                        false          :
          :   energy convergence         0.5000000E-05 Eh   :
          :   grad. convergence          0.1000000E-02 Eh/α :
          :   maximium RF displ.         1.0000000          :
          :   Hlow (freq-cutoff)         0.1000000E-01      :
          :   Hmax (freq-cutoff)         5.0000000          :
          :   S6 in model hess.         20.0000000          :
          ...................................................

generating ANC from model Hessian ...
Using Lindh-Hessian (1995)
 Shifting diagonal of input Hessian by   9.865155608175146E-003
 Lowest  eigenvalues of input Hessian
    0.000000    0.000000    0.000000    0.000000    0.000000    0.000000
    0.010000    0.010253    0.010647    0.010992    0.011431    0.011635
    0.012735    0.014120    0.014936    0.015934    0.016782    0.017691
 Highest eigenvalues
    2.080505    2.145519    2.162828    2.308616    2.340355    2.456503
 

........................................................................
.............................. CYCLE    1 ..............................
........................................................................
   1    -83.6921130 -0.836921E+02  0.714E-06    2.02       0.0  T
   2    -83.6921130 -0.298428E-12  0.371E-06    2.02    4160.1  T
   3    -83.6921130  0.000000E+00  0.202E-06    2.02    7643.6  T
     SCC iter.                  ...        0 min,  0.018 sec
     gradient                   ...        0 min,  0.061 sec
 * total energy  :   -82.9251149 Eh     change       -0.2742695E-11 Eh
   gradient norm :     0.1472704 Eh/α   predicted     0.0000000E+00 (-100.00%)
   displ. norm   :     0.3240638 α      lambda       -0.2075452E-01
   maximum displ.:     0.1520572 α      in ANC's #31, #22, #8, ...

........................................................................
.............................. CYCLE    2 ..............................
........................................................................
   1    -83.7104336 -0.837104E+02  0.901E-02    2.19       0.0  T
   2    -83.7107356 -0.302045E-03  0.394E-02    2.17       1.0  T
   3    -83.7107726 -0.370112E-04  0.166E-02    2.17       1.0  T
   4    -83.7107728 -0.209883E-06  0.616E-03    2.17       2.5  T
   5    -83.7107730 -0.201296E-06  0.856E-04    2.17      18.0  T
   6    -83.7107731 -0.196557E-07  0.308E-04    2.17      50.2  T
   7    -83.7107731 -0.181426E-08  0.107E-04    2.17     144.0  T
   8    -83.7107731 -0.169180E-09  0.306E-05    2.17     504.7  T
     SCC iter.                  ...        0 min,  0.046 sec
     gradient                   ...        0 min,  0.061 sec
 * total energy  :   -82.9406116 Eh     change       -0.1549671E-01 Eh
   gradient norm :     0.0824455 Eh/α   predicted    -0.1148698E-01 ( -25.87%)
   displ. norm   :     0.3367885 α      lambda       -0.1155250E-01
   maximum displ.:     0.1439095 α      in ANC's #8, #22, #31, ...

........................................................................
.............................. CYCLE    3 ..............................
........................................................................
   1    -83.7302077 -0.837302E+02  0.101E-01    2.36       0.0  T
   2    -83.7305571 -0.349403E-03  0.394E-02    2.34       1.0  T
   3    -83.7306004 -0.433773E-04  0.166E-02    2.34       1.0  T
   4    -83.7306013 -0.911385E-06  0.704E-03    2.34       2.2  T
   5    -83.7306019 -0.525703E-06  0.154E-03    2.34      10.0  T
   6    -83.7306019 -0.531800E-07  0.526E-04    2.34      29.3  T
   7    -83.7306019 -0.659773E-08  0.185E-04    2.34      83.4  T
   8    -83.7306019 -0.505906E-09  0.460E-05    2.34     335.2  T
     SCC iter.                  ...        0 min,  0.045 sec
     gradient                   ...        0 min,  0.060 sec
 * total energy  :   -82.9475569 Eh     change       -0.6945230E-02 Eh
   gradient norm :     0.0283013 Eh/α   predicted    -0.6434363E-02 (  -7.36%)
   displ. norm   :     0.2676731 α      lambda       -0.1981804E-02
   maximum displ.:     0.1533212 α      in ANC's #8, #5, #9, ...

........................................................................
.............................. CYCLE    4 ..............................
........................................................................
   1    -83.7351596 -0.837352E+02  0.411E-02    2.39       0.0  T
   2    -83.7352441 -0.845025E-04  0.191E-02    2.38       1.0  T
   3    -83.7352581 -0.139627E-04  0.739E-03    2.38       2.1  T
   4    -83.7352584 -0.373435E-06  0.373E-03    2.38       4.1  T
   5    -83.7352586 -0.131036E-06  0.754E-04    2.38      20.5  T
   6    -83.7352586 -0.779178E-08  0.258E-04    2.38      59.8  T
   7    -83.7352586 -0.122111E-08  0.984E-05    2.38     156.7  T
   8    -83.7352586 -0.111342E-09  0.206E-05    2.38     748.5  T
     SCC iter.                  ...        0 min,  0.045 sec
     gradient                   ...        0 min,  0.060 sec
 * total energy  :   -82.9490755 Eh     change       -0.1518625E-02 Eh
   gradient norm :     0.0190804 Eh/α   predicted    -0.1061941E-02 ( -30.07%)
   displ. norm   :     0.4466303 α      lambda       -0.2065592E-02
   maximum displ.:     0.2423261 α      in ANC's #8, #5, #3, ...

........................................................................
.............................. CYCLE    5 ..............................
........................................................................
   1    -83.7374969 -0.837375E+02  0.560E-02    2.40       0.0  T
   2    -83.7376908 -0.193903E-03  0.296E-02    2.41       1.0  T
   3    -83.7377260 -0.351894E-04  0.110E-02    2.40       1.4  T
   4    -83.7377266 -0.595383E-06  0.573E-03    2.41       2.7  T
   5    -83.7377268 -0.214985E-06  0.991E-04    2.41      15.6  T
   6    -83.7377268 -0.192808E-07  0.364E-04    2.41      42.4  T
   7    -83.7377268 -0.233564E-08  0.138E-04    2.41     112.0  T
   8    -83.7377268 -0.232916E-09  0.299E-05    2.41     516.5  T
     SCC iter.                  ...        0 min,  0.045 sec
     gradient                   ...        0 min,  0.061 sec
 * total energy  :   -82.9505848 Eh     change       -0.1509326E-02 Eh
   gradient norm :     0.0181894 Eh/α   predicted    -0.1238829E-02 ( -17.92%)
   displ. norm   :     0.4437926 α      lambda       -0.1340628E-02
   maximum displ.:     0.2106730 α      in ANC's #8, #5, #3, ...

........................................................................
.............................. CYCLE    6 ..............................
........................................................................
   1    -83.7398223 -0.837398E+02  0.468E-02    2.41       0.0  T
   2    -83.7399529 -0.130567E-03  0.220E-02    2.42       1.0  T
   3    -83.7399691 -0.161738E-04  0.862E-03    2.41       1.8  T
   4    -83.7399696 -0.537891E-06  0.499E-03    2.41       3.1  T
   5    -83.7399698 -0.207279E-06  0.845E-04    2.41      18.3  T
   6    -83.7399698 -0.140588E-07  0.311E-04    2.41      49.7  T
   7    -83.7399698 -0.176013E-08  0.131E-04    2.41     117.7  T
   8    -83.7399698 -0.197488E-09  0.273E-05    2.41     564.4  T
     SCC iter.                  ...        0 min,  0.045 sec
     gradient                   ...        0 min,  0.061 sec
 * total energy  :   -82.9515857 Eh     change       -0.1000882E-02 Eh
   gradient norm :     0.0179649 Eh/α   predicted    -0.8023561E-03 ( -19.84%)
   displ. norm   :     0.4249304 α      lambda       -0.1014546E-02
   maximum displ.:     0.1722661 α      in ANC's #3, #5, #8, ...

........................................................................
.............................. CYCLE    7 ..............................
........................................................................
   1    -83.7426124 -0.837426E+02  0.373E-02    2.41       0.0  T
   2    -83.7426900 -0.776110E-04  0.149E-02    2.42       1.0  T
   3    -83.7426955 -0.551795E-05  0.626E-03    2.42       2.5  T
   4    -83.7426958 -0.257897E-06  0.363E-03    2.42       4.3  T
   5    -83.7426959 -0.133790E-06  0.685E-04    2.42      22.5  T
   6    -83.7426959 -0.121926E-07  0.234E-04    2.42      65.8  T
   7    -83.7426959 -0.111460E-08  0.103E-04    2.42     149.1  T
   8    -83.7426959 -0.105359E-09  0.211E-05    2.42     732.2  T
     SCC iter.                  ...        0 min,  0.043 sec
     gradient                   ...        0 min,  0.059 sec
 * total energy  :   -82.9523536 Eh     change       -0.7678789E-03 Eh
   gradient norm :     0.0140580 Eh/α   predicted    -0.5989194E-03 ( -22.00%)
   displ. norm   :     0.4128306 α      lambda       -0.7587064E-03
   maximum displ.:     0.1872910 α      in ANC's #3, #5, #2, ...

........................................................................
.............................. CYCLE    8 ..............................
........................................................................
   1    -83.7450488 -0.837450E+02  0.292E-02    2.41       0.0  T
   2    -83.7450919 -0.430762E-04  0.111E-02    2.41       1.4  T
   3    -83.7450943 -0.240004E-05  0.493E-03    2.41       3.1  T
   4    -83.7450944 -0.954163E-07  0.232E-03    2.41       6.7  T
   5    -83.7450944 -0.508770E-07  0.470E-04    2.41      32.8  T
   6    -83.7450945 -0.818069E-08  0.176E-04    2.41      87.6  T
   7    -83.7450945 -0.673779E-09  0.739E-05    2.41     208.8  T
     SCC iter.                  ...        0 min,  0.039 sec
     gradient                   ...        0 min,  0.060 sec
 * total energy  :   -82.9529205 Eh     change       -0.5669555E-03 Eh
   gradient norm :     0.0097065 Eh/α   predicted    -0.4440390E-03 ( -21.68%)
   displ. norm   :     0.3927340 α      lambda       -0.5216781E-03
   maximum displ.:     0.1932652 α      in ANC's #3, #5, #2, ...

........................................................................
.............................. CYCLE    9 ..............................
........................................................................
   1    -83.7461618 -0.837462E+02  0.191E-02    2.41       0.0  T
   2    -83.7461780 -0.161368E-04  0.750E-03    2.41       2.1  T
   3    -83.7461790 -0.964341E-06  0.357E-03    2.41       4.3  T
   4    -83.7461790 -0.399159E-07  0.136E-03    2.41      11.4  T
   5    -83.7461790 -0.196938E-07  0.294E-04    2.41      52.5  T
   6    -83.7461790 -0.319885E-08  0.115E-04    2.41     134.7  T
   7    -83.7461790 -0.269637E-09  0.447E-05    2.41     345.2  T
     SCC iter.                  ...        0 min,  0.039 sec
     gradient                   ...        0 min,  0.060 sec
 * total energy  :   -82.9533237 Eh     change       -0.4032209E-03 Eh
   gradient norm :     0.0084554 Eh/α   predicted    -0.3010718E-03 ( -25.33%)
   displ. norm   :     0.4162474 α      lambda       -0.4752135E-03
   maximum displ.:     0.2138783 α      in ANC's #3, #2, #6, ...

........................................................................
.............................. CYCLE   10 ..............................
........................................................................
   1    -83.7473393 -0.837473E+02  0.137E-02    2.42       0.0  T
   2    -83.7473490 -0.970682E-05  0.540E-03    2.42       2.9  T
   3    -83.7473498 -0.767235E-06  0.260E-03    2.42       5.9  T
   4    -83.7473498 -0.185768E-07  0.116E-03    2.42      13.3  T
   5    -83.7473498 -0.204385E-07  0.286E-04    2.42      53.9  T
   6    -83.7473498 -0.167218E-08  0.789E-05    2.42     195.7  T
   7    -83.7473498 -0.912479E-10  0.321E-05    2.42     481.1  T
     SCC iter.                  ...        0 min,  0.039 sec
     gradient                   ...        0 min,  0.059 sec
 * total energy  :   -82.9537006 Eh     change       -0.3768395E-03 Eh
   gradient norm :     0.0099331 Eh/α   predicted    -0.2787756E-03 ( -26.02%)
   displ. norm   :     0.5474744 α      lambda       -0.5664215E-03
   maximum displ.:     0.2775773 α      in ANC's #3, #6, #2, ...

........................................................................
.............................. CYCLE   11 ..............................
........................................................................
   1    -83.7434728 -0.837435E+02  0.279E-02    2.40       0.0  T
   2    -83.7435242 -0.513017E-04  0.156E-02    2.41       1.0  T
   3    -83.7435361 -0.119767E-04  0.477E-03    2.41       3.2  T
   4    -83.7435361 -0.979919E-08  0.264E-03    2.41       5.8  T
   5    -83.7435362 -0.429103E-07  0.372E-04    2.41      41.5  T
   6    -83.7435362 -0.292869E-08  0.840E-05    2.41     183.7  T
   7    -83.7435362 -0.227161E-09  0.298E-05    2.41     518.2  T
     SCC iter.                  ...        0 min,  0.040 sec
     gradient                   ...        0 min,  0.060 sec
 * total energy  :   -82.9540318 Eh     change       -0.3312439E-03 Eh
   gradient norm :     0.0179272 Eh/α   predicted    -0.3680999E-03 (  11.13%)
   displ. norm   :     0.4270115 α      lambda       -0.7648129E-03
   maximum displ.:     0.2160577 α      in ANC's #3, #2, #6, ...

........................................................................
.............................. CYCLE   12 ..............................
........................................................................
   1    -83.7477380 -0.837477E+02  0.308E-02    2.45       0.0  T
   2    -83.7477960 -0.579970E-04  0.187E-02    2.43       1.0  T
   3    -83.7478085 -0.124188E-04  0.722E-03    2.44       2.1  T
   4    -83.7478084  0.186719E-07  0.351E-03    2.44       4.4  T
   5    -83.7478085 -0.801006E-07  0.429E-04    2.44      36.0  T
   6    -83.7478085 -0.617047E-08  0.992E-05    2.44     155.6  T
   7    -83.7478085 -0.227388E-09  0.518E-05    2.44     297.6  T
     SCC iter.                  ...        0 min,  0.039 sec
     gradient                   ...        0 min,  0.056 sec
 * total energy  :   -82.9544585 Eh     change       -0.4266305E-03 Eh
   gradient norm :     0.0162520 Eh/α   predicted    -0.4521345E-03 (   5.98%)
   displ. norm   :     0.3344499 α      lambda       -0.3770538E-03
   maximum displ.:     0.1597225 α      in ANC's #3, #2, #6, ...

........................................................................
.............................. CYCLE   13 ..............................
........................................................................
   1    -83.7463192 -0.837463E+02  0.168E-02    2.43       0.0  T
   2    -83.7463368 -0.175664E-04  0.680E-03    2.44       2.3  T
   3    -83.7463394 -0.263643E-05  0.245E-03    2.44       6.3  T
   4    -83.7463395 -0.541428E-07  0.124E-03    2.44      12.5  T
   5    -83.7463395 -0.793966E-08  0.297E-04    2.44      51.9  T
   6    -83.7463395 -0.114477E-08  0.688E-05    2.44     224.4  T
   7    -83.7463395 -0.749623E-10  0.298E-05    2.44     518.5  T
     SCC iter.                  ...        0 min,  0.036 sec
     gradient                   ...        0 min,  0.054 sec
 * total energy  :   -82.9547740 Eh     change       -0.3155071E-03 Eh
   gradient norm :     0.0116847 Eh/α   predicted    -0.2096433E-03 ( -33.55%)
   displ. norm   :     0.4276989 α      lambda       -0.6518982E-03
   maximum displ.:     0.1968070 α      in ANC's #2, #3, #7, ...

........................................................................
.............................. CYCLE   14 ..............................
........................................................................
   1    -83.7485252 -0.837485E+02  0.473E-02    2.43       0.0  T
   2    -83.7486468 -0.121692E-03  0.142E-02    2.44       1.1  T
   3    -83.7486556 -0.871081E-05  0.695E-03    2.44       2.2  T
   4    -83.7486560 -0.404987E-06  0.316E-03    2.44       4.9  T
   5    -83.7486561 -0.970484E-07  0.101E-03    2.44      15.3  T
   6    -83.7486561 -0.168158E-07  0.201E-04    2.44      76.9  T
   7    -83.7486561 -0.625704E-09  0.977E-05    2.44     158.0  T
   8    -83.7486561 -0.129972E-09  0.231E-05    2.44     667.3  T
     SCC iter.                  ...        0 min,  0.041 sec
     gradient                   ...        0 min,  0.054 sec
 * total energy  :   -82.9551902 Eh     change       -0.4161914E-03 Eh
   gradient norm :     0.0069115 Eh/α   predicted    -0.3855934E-03 (  -7.35%)
   displ. norm   :     0.5835651 α      lambda       -0.4227603E-03
   maximum displ.:     0.2614256 α      in ANC's #2, #3, #6, ...

........................................................................
.............................. CYCLE   15 ..............................
........................................................................
   1    -83.7385880 -0.837386E+02  0.291E-02    2.42       0.0  T
   2    -83.7386075 -0.194992E-04  0.127E-02    2.43       1.2  T
   3    -83.7386082 -0.774399E-06  0.687E-03    2.43       2.2  T
   4    -83.7386083 -0.114067E-06  0.143E-03    2.43      10.8  T
   5    -83.7386084 -0.538788E-07  0.409E-04    2.43      37.7  T
   6    -83.7386084 -0.486936E-08  0.109E-04    2.43     141.5  T
   7    -83.7386084 -0.268571E-09  0.516E-05    2.43     298.9  T
     SCC iter.                  ...        0 min,  0.022 sec
     gradient                   ...        0 min,  0.034 sec
 * total energy  :   -82.9550986 Eh     change        0.9156540E-04 Eh
   gradient norm :     0.0170282 Eh/α   predicted    -0.2833688E-03 (-409.47%)
   displ. norm   :     0.1547220 α      lambda       -0.7007251E-03
   maximum displ.:     0.0785428 α      in ANC's #3, #6, #12, ...

........................................................................
.............................. CYCLE   16 ..............................
........................................................................
   1    -83.7456197 -0.837456E+02  0.191E-02    2.43       0.0  T
   2    -83.7456274 -0.767573E-05  0.112E-02    2.43       1.4  T
   3    -83.7456289 -0.146134E-05  0.613E-03    2.43       2.5  T
   4    -83.7456291 -0.269559E-06  0.102E-03    2.43      15.1  T
   5    -83.7456292 -0.985855E-08  0.186E-04    2.43      82.8  T
   6    -83.7456292 -0.111115E-08  0.567E-05    2.43     272.2  T
     SCC iter.                  ...        0 min,  0.037 sec
     gradient                   ...        0 min,  0.036 sec
 * total energy  :   -82.9554241 Eh     change       -0.3255415E-03 Eh
   gradient norm :     0.0061649 Eh/α   predicted    -0.3587607E-03 (  10.20%)
   displ. norm   :     0.0808530 α      lambda       -0.1268024E-03
   maximum displ.:     0.0302944 α      in ANC's #7, #13, #22, ...

........................................................................
.............................. CYCLE   17 ..............................
........................................................................
   1    -83.7474076 -0.837474E+02  0.697E-03    2.43       0.0  T
   2    -83.7474089 -0.129850E-05  0.339E-03    2.43       4.5  T
   3    -83.7474090 -0.111331E-06  0.190E-03    2.43       8.1  T
   4    -83.7474090 -0.105997E-07  0.586E-04    2.43      26.3  T
   5    -83.7474091 -0.899530E-08  0.771E-05    2.43     200.1  T
   6    -83.7474091 -0.145832E-09  0.176E-05    2.43     875.7  T
     SCC iter.                  ...        0 min,  0.019 sec
     gradient                   ...        0 min,  0.033 sec
 * total energy  :   -82.9554950 Eh     change       -0.7082723E-04 Eh
   gradient norm :     0.0048450 Eh/α   predicted    -0.6381885E-04 (  -9.90%)
   displ. norm   :     0.2215584 α      lambda       -0.1236991E-03
   maximum displ.:     0.1002184 α      in ANC's #7, #2, #3, ...

........................................................................
.............................. CYCLE   18 ..............................
........................................................................
   1    -83.7474064 -0.837474E+02  0.520E-03    2.43       0.0  T
   2    -83.7474075 -0.110552E-05  0.204E-03    2.43       7.6  T
   3    -83.7474075 -0.487023E-07  0.103E-03    2.43      14.9  T
   4    -83.7474076 -0.103695E-08  0.332E-04    2.43      46.5  T
   5    -83.7474076 -0.910944E-09  0.724E-05    2.43     213.0  T
   6    -83.7474076 -0.558202E-10  0.173E-05    2.43     892.0  T
     SCC iter.                  ...        0 min,  0.019 sec
     gradient                   ...        0 min,  0.051 sec
 * total energy  :   -82.9555940 Eh     change       -0.9907732E-04 Eh
   gradient norm :     0.0050684 Eh/α   predicted    -0.6489344E-04 ( -34.50%)
   displ. norm   :     0.3522983 α      lambda       -0.1706903E-03
   maximum displ.:     0.1659404 α      in ANC's #7, #2, #3, ...

........................................................................
.............................. CYCLE   19 ..............................
........................................................................
   1    -83.7470878 -0.837471E+02  0.793E-03    2.43       0.0  T
   2    -83.7470903 -0.254106E-05  0.309E-03    2.43       5.0  T
   3    -83.7470905 -0.145658E-06  0.145E-03    2.43      10.7  T
   4    -83.7470905 -0.622528E-08  0.575E-04    2.43      26.8  T
   5    -83.7470905 -0.517775E-08  0.166E-04    2.43      92.9  T
   6    -83.7470905 -0.511292E-09  0.421E-05    2.43     366.5  T
     SCC iter.                  ...        0 min,  0.030 sec
     gradient                   ...        0 min,  0.053 sec
 * total energy  :   -82.9556966 Eh     change       -0.1025315E-03 Eh
   gradient norm :     0.0053288 Eh/α   predicted    -0.9594056E-04 (  -6.43%)
   displ. norm   :     0.1183597 α      lambda       -0.7212231E-04
   maximum displ.:     0.0555798 α      in ANC's #7, #5, #2, ...

........................................................................
.............................. CYCLE   20 ..............................
........................................................................
   1    -83.7489259 -0.837489E+02  0.539E-03    2.43       0.0  T
   2    -83.7489268 -0.982070E-06  0.219E-03    2.43       7.1  T
   3    -83.7489269 -0.368030E-07  0.119E-03    2.43      13.0  T
   4    -83.7489269 -0.242170E-08  0.317E-04    2.43      48.6  T
   5    -83.7489269 -0.146609E-08  0.672E-05    2.43     229.5  T
   6    -83.7489269 -0.938911E-10  0.280E-05    2.43     552.1  T
     SCC iter.                  ...        0 min,  0.030 sec
     gradient                   ...        0 min,  0.054 sec
 * total energy  :   -82.9557457 Eh     change       -0.4913814E-04 Eh
   gradient norm :     0.0036674 Eh/α   predicted    -0.3657082E-04 ( -25.58%)
   displ. norm   :     0.2304578 α      lambda       -0.7967340E-04
   maximum displ.:     0.0996426 α      in ANC's #7, #2, #5, ...
 * RMSD in coord.:     0.8781956 α      energy gain  -0.3063079E-01 Eh

generating ANC from model Hessian ...
Using Lindh-Hessian (1995)
 Shifting diagonal of input Hessian by   9.876527494918085E-003
 Lowest  eigenvalues of input Hessian
    0.000000    0.000000    0.000000    0.000000    0.000000    0.000000
    0.010000    0.010252    0.010614    0.010759    0.011270    0.012237
    0.012678    0.013537    0.015133    0.015913    0.016805    0.017998
 Highest eigenvalues
    2.101373    2.186806    2.268937    2.354079    2.408254    2.421551
 

........................................................................
.............................. CYCLE   21 ..............................
........................................................................
   1    -83.7490996 -0.837491E+02  0.392E-03    2.43       0.0  T
   2    -83.7491001 -0.504654E-06  0.174E-03    2.43       8.8  T
   3    -83.7491001 -0.278117E-07  0.843E-04    2.43      18.3  T
   4    -83.7491001 -0.169609E-08  0.293E-04    2.43      52.6  T
   5    -83.7491001 -0.705811E-09  0.625E-05    2.43     246.8  T
   6    -83.7491001 -0.317044E-10  0.207E-05    2.43     744.2  T
     SCC iter.                  ...        0 min,  0.031 sec
     gradient                   ...        0 min,  0.056 sec
 * total energy  :   -82.9558010 Eh     change       -0.5532534E-04 Eh
   gradient norm :     0.0034147 Eh/α   predicted     0.0000000E+00 (-100.00%)
   displ. norm   :     0.0467708 α      lambda       -0.5403423E-04
   maximum displ.:     0.0240059 α      in ANC's #13, #12, #7, ...

........................................................................
.............................. CYCLE   22 ..............................
........................................................................
   1    -83.7489613 -0.837490E+02  0.281E-03    2.43       0.0  T
   2    -83.7489618 -0.430537E-06  0.175E-03    2.43       8.8  T
   3    -83.7489619 -0.101800E-06  0.781E-04    2.43      19.8  T
   4    -83.7489619  0.684821E-10  0.260E-04    2.43      59.4  T
   5    -83.7489619 -0.450257E-09  0.412E-05    2.43     374.4  T
   6    -83.7489619 -0.615756E-10  0.113E-05    2.43    1369.0  T
     SCC iter.                  ...        0 min,  0.031 sec
     gradient                   ...        0 min,  0.057 sec
 * total energy  :   -82.9558476 Eh     change       -0.4656636E-04 Eh
   gradient norm :     0.0014804 Eh/α   predicted    -0.2730378E-04 ( -41.37%)
   displ. norm   :     0.2848136 α      lambda       -0.1523065E-03
   maximum displ.:     0.1529917 α      in ANC's #13, #12, #7, ...

........................................................................
.............................. CYCLE   23 ..............................
........................................................................
   1    -83.7475621 -0.837476E+02  0.971E-03    2.43       0.0  T
   2    -83.7475663 -0.420847E-05  0.552E-03    2.43       2.8  T
   3    -83.7475671 -0.801173E-06  0.256E-03    2.43       6.0  T
   4    -83.7475671 -0.136771E-07  0.987E-04    2.43      15.6  T
   5    -83.7475671 -0.602338E-08  0.150E-04    2.43     102.6  T
   6    -83.7475671 -0.821316E-09  0.497E-05    2.43     310.3  T
     SCC iter.                  ...        0 min,  0.027 sec
     gradient                   ...        0 min,  0.052 sec
 * total energy  :   -82.9559661 Eh     change       -0.1184893E-03 Eh
   gradient norm :     0.0057973 Eh/α   predicted    -0.7890874E-04 ( -33.40%)
   displ. norm   :     0.0855813 α      lambda       -0.5559103E-04
   maximum displ.:     0.0479182 α      in ANC's #13, #12, #7, ...

........................................................................
.............................. CYCLE   24 ..............................
........................................................................
   1    -83.7480275 -0.837480E+02  0.309E-03    2.43       0.0  T
   2    -83.7480280 -0.550472E-06  0.138E-03    2.43      11.2  T
   3    -83.7480281 -0.840394E-07  0.532E-04    2.43      29.0  T
   4    -83.7480281 -0.112992E-08  0.262E-04    2.43      58.9  T
   5    -83.7480281 -0.642345E-09  0.511E-05    2.43     302.2  T
   6    -83.7480281 -0.304397E-10  0.162E-05    2.43     952.7  T
     SCC iter.                  ...        0 min,  0.029 sec
     gradient                   ...        0 min,  0.052 sec
 * total energy  :   -82.9560159 Eh     change       -0.4982790E-04 Eh
   gradient norm :     0.0041213 Eh/α   predicted    -0.2800169E-04 ( -43.80%)
   displ. norm   :     0.3551902 α      lambda       -0.1965954E-03
   maximum displ.:     0.1983112 α      in ANC's #13, #12, #1, ...

........................................................................
.............................. CYCLE   25 ..............................
........................................................................
   1    -83.7475559 -0.837476E+02  0.118E-02    2.44       0.0  T
   2    -83.7475618 -0.591113E-05  0.516E-03    2.44       3.0  T
   3    -83.7475626 -0.790226E-06  0.248E-03    2.44       6.2  T
   4    -83.7475626 -0.411707E-07  0.981E-04    2.44      15.7  T
   5    -83.7475627 -0.113104E-07  0.205E-04    2.44      75.2  T
   6    -83.7475627 -0.486338E-09  0.619E-05    2.44     249.3  T
   7    -83.7475627 -0.477911E-10  0.193E-05    2.44     798.0  T
     SCC iter.                  ...        0 min,  0.035 sec
     gradient                   ...        0 min,  0.054 sec
 * total energy  :   -82.9560886 Eh     change       -0.7264076E-04 Eh
   gradient norm :     0.0067454 Eh/α   predicted    -0.1107020E-03 (  52.40%)
   displ. norm   :     0.0948560 α      lambda       -0.1020401E-03
   maximum displ.:     0.0546038 α      in ANC's #13, #12, #7, ...

........................................................................
.............................. CYCLE   26 ..............................
........................................................................
   1    -83.7501272 -0.837501E+02  0.680E-03    2.44       0.0  T
   2    -83.7501275 -0.219548E-06  0.358E-03    2.44       4.3  T
   3    -83.7501275  0.130980E-07  0.133E-03    2.44      11.6  T
   4    -83.7501275 -0.307159E-07  0.312E-04    2.44      49.5  T
   5    -83.7501275 -0.202506E-08  0.547E-05    2.44     282.1  T
   6    -83.7501275 -0.846399E-10  0.149E-05    2.44    1034.1  T
     SCC iter.                  ...        0 min,  0.019 sec
     gradient                   ...        0 min,  0.040 sec
 * total energy  :   -82.9561309 Eh     change       -0.4230273E-04 Eh
   gradient norm :     0.0032026 Eh/α   predicted    -0.5147986E-04 (  21.69%)
   displ. norm   :     0.0660425 α      lambda       -0.2716261E-04
   maximum displ.:     0.0312681 α      in ANC's #13, #1, #12, ...

........................................................................
.............................. CYCLE   27 ..............................
........................................................................
   1    -83.7496836 -0.837497E+02  0.153E-03    2.44       0.0  T
   2    -83.7496837 -0.875443E-07  0.827E-04    2.44      18.7  T
   3    -83.7496837 -0.184938E-07  0.387E-04    2.44      39.9  T
   4    -83.7496837 -0.462137E-09  0.120E-04    2.44     128.3  T
   5    -83.7496837 -0.183121E-09  0.294E-05    2.44     524.4  T
     SCC iter.                  ...        0 min,  0.025 sec
     gradient                   ...        0 min,  0.052 sec
 * total energy  :   -82.9561553 Eh     change       -0.2440868E-04 Eh
   gradient norm :     0.0022409 Eh/α   predicted    -0.1364335E-04 ( -44.10%)
   displ. norm   :     0.3027299 α      lambda       -0.1016815E-03
   maximum displ.:     0.1342722 α      in ANC's #13, #1, #12, ...

........................................................................
.............................. CYCLE   28 ..............................
........................................................................
   1    -83.7475025 -0.837475E+02  0.638E-03    2.43       0.0  T
   2    -83.7475034 -0.818224E-06  0.314E-03    2.43       4.9  T
   3    -83.7475035 -0.114473E-06  0.162E-03    2.43       9.5  T
   4    -83.7475035 -0.290405E-07  0.447E-04    2.43      34.5  T
   5    -83.7475035 -0.270700E-08  0.129E-04    2.43     119.4  T
   6    -83.7475035 -0.192898E-09  0.409E-05    2.43     377.0  T
     SCC iter.                  ...        0 min,  0.029 sec
     gradient                   ...        0 min,  0.052 sec
 * total energy  :   -82.9562115 Eh     change       -0.5624693E-04 Eh
   gradient norm :     0.0040089 Eh/α   predicted    -0.5550765E-04 (  -1.31%)
   displ. norm   :     0.0534316 α      lambda       -0.3306949E-04
   maximum displ.:     0.0290141 α      in ANC's #1, #11, #26, ...

........................................................................
.............................. CYCLE   29 ..............................
........................................................................
   1    -83.7483734 -0.837484E+02  0.242E-03    2.43       0.0  T
   2    -83.7483735 -0.758766E-07  0.123E-03    2.43      12.5  T
   3    -83.7483735 -0.295830E-08  0.578E-04    2.43      26.7  T
   4    -83.7483735 -0.144021E-08  0.922E-05    2.43     167.4  T
   5    -83.7483735 -0.156874E-09  0.307E-05    2.43     502.1  T
     SCC iter.                  ...        0 min,  0.025 sec
     gradient                   ...        0 min,  0.052 sec
 * total energy  :   -82.9562351 Eh     change       -0.2359573E-04 Eh
   gradient norm :     0.0025331 Eh/α   predicted    -0.1658284E-04 ( -29.72%)
   displ. norm   :     0.1724024 α      lambda       -0.3598612E-04
   maximum displ.:     0.0887624 α      in ANC's #1, #11, #12, ...

........................................................................
.............................. CYCLE   30 ..............................
........................................................................
   1    -83.7487362 -0.837487E+02  0.275E-03    2.43       0.0  T
   2    -83.7487365 -0.237144E-06  0.147E-03    2.43      10.5  T
   3    -83.7487365 -0.347676E-07  0.703E-04    2.43      22.0  T
   4    -83.7487365 -0.383919E-08  0.260E-04    2.43      59.2  T
   5    -83.7487365 -0.787608E-09  0.578E-05    2.43     266.8  T
   6    -83.7487365 -0.450200E-10  0.234E-05    2.43     659.1  T
     SCC iter.                  ...        0 min,  0.030 sec
     gradient                   ...        0 min,  0.052 sec
 * total energy  :   -82.9562612 Eh     change       -0.2606280E-04 Eh
   gradient norm :     0.0019546 Eh/α   predicted    -0.1852911E-04 ( -28.91%)
   displ. norm   :     0.2448787 α      lambda       -0.2871040E-04
   maximum displ.:     0.1371764 α      in ANC's #1, #12, #11, ...

........................................................................
.............................. CYCLE   31 ..............................
........................................................................
   1    -83.7493277 -0.837493E+02  0.507E-03    2.43       0.0  T
   2    -83.7493286 -0.938295E-06  0.239E-03    2.43       6.4  T
   3    -83.7493287 -0.972919E-07  0.111E-03    2.43      13.9  T
   4    -83.7493287 -0.712389E-08  0.493E-04    2.43      31.3  T
   5    -83.7493287 -0.329857E-08  0.106E-04    2.43     145.5  T
   6    -83.7493287 -0.163794E-09  0.380E-05    2.43     405.5  T
     SCC iter.                  ...        0 min,  0.029 sec
     gradient                   ...        0 min,  0.052 sec
 * total energy  :   -82.9562914 Eh     change       -0.3024460E-04 Eh
   gradient norm :     0.0017589 Eh/α   predicted    -0.1473798E-04 ( -51.27%)
   displ. norm   :     0.2791148 α      lambda       -0.2736465E-04
   maximum displ.:     0.1657814 α      in ANC's #1, #12, #11, ...

........................................................................
.............................. CYCLE   32 ..............................
........................................................................
   1    -83.7486087 -0.837486E+02  0.599E-03    2.43       0.0  T
   2    -83.7486102 -0.144050E-05  0.225E-03    2.43       6.9  T
   3    -83.7486102 -0.635405E-07  0.113E-03    2.43      13.7  T
   4    -83.7486102 -0.544239E-08  0.379E-04    2.43      40.7  T
   5    -83.7486102 -0.871879E-09  0.101E-04    2.43     153.1  T
   6    -83.7486102 -0.166523E-09  0.365E-05    2.43     422.5  T
     SCC iter.                  ...        0 min,  0.030 sec
     gradient                   ...        0 min,  0.052 sec
 * total energy  :   -82.9563209 Eh     change       -0.2952453E-04 Eh
   gradient norm :     0.0029304 Eh/α   predicted    -0.1415728E-04 ( -52.05%)
   displ. norm   :     0.1870510 α      lambda       -0.5197251E-04
   maximum displ.:     0.1276855 α      in ANC's #1, #2, #11, ...

........................................................................
.............................. CYCLE   33 ..............................
........................................................................
   1    -83.7507282 -0.837507E+02  0.652E-03    2.43       0.0  T
   2    -83.7507294 -0.123971E-05  0.306E-03    2.43       5.0  T
   3    -83.7507295 -0.825882E-07  0.163E-03    2.43       9.4  T
   4    -83.7507295 -0.764622E-08  0.527E-04    2.43      29.3  T
   5    -83.7507295 -0.443090E-08  0.107E-04    2.43     144.5  T
   6    -83.7507295 -0.353708E-09  0.403E-05    2.43     382.9  T
     SCC iter.                  ...        0 min,  0.029 sec
     gradient                   ...        0 min,  0.052 sec
 * total energy  :   -82.9563393 Eh     change       -0.1832528E-04 Eh
   gradient norm :     0.0043362 Eh/α   predicted    -0.2689682E-04 (  46.77%)
   displ. norm   :     0.2824543 α      lambda       -0.5547994E-04
   maximum displ.:     0.1723335 α      in ANC's #1, #12, #11, ...

........................................................................
.............................. CYCLE   34 ..............................
........................................................................
   1    -83.7480727 -0.837481E+02  0.681E-03    2.43       0.0  T
   2    -83.7480735 -0.841446E-06  0.325E-03    2.43       4.7  T
   3    -83.7480736 -0.311350E-07  0.150E-03    2.43      10.3  T
   4    -83.7480736 -0.891228E-08  0.437E-04    2.43      35.3  T
   5    -83.7480736 -0.257397E-08  0.101E-04    2.43     153.5  T
   6    -83.7480736 -0.287201E-09  0.360E-05    2.43     429.1  T
     SCC iter.                  ...        0 min,  0.030 sec
     gradient                   ...        0 min,  0.054 sec
 * total energy  :   -82.9563644 Eh     change       -0.2514420E-04 Eh
   gradient norm :     0.0038301 Eh/α   predicted    -0.2995311E-04 (  19.13%)
   displ. norm   :     0.0521981 α      lambda       -0.2701533E-04
   maximum displ.:     0.0240010 α      in ANC's #12, #1, #4, ...

........................................................................
.............................. CYCLE   35 ..............................
........................................................................
   1    -83.7491160 -0.837491E+02  0.317E-03    2.43       0.0  T
   2    -83.7491162 -0.180130E-06  0.150E-03    2.43      10.3  T
   3    -83.7491162 -0.662661E-08  0.704E-04    2.43      21.9  T
   4    -83.7491162 -0.131175E-08  0.164E-04    2.43      94.2  T
   5    -83.7491162 -0.231935E-09  0.344E-05    2.43     448.0  T
     SCC iter.                  ...        0 min,  0.025 sec
     gradient                   ...        0 min,  0.053 sec
 * total energy  :   -82.9563827 Eh     change       -0.1824099E-04 Eh
   gradient norm :     0.0020173 Eh/α   predicted    -0.1354750E-04 ( -25.73%)
   displ. norm   :     0.1438763 α      lambda       -0.4074107E-04
   maximum displ.:     0.0993918 α      in ANC's #1, #11, #2, ...

........................................................................
.............................. CYCLE   36 ..............................
........................................................................
   1    -83.7494419 -0.837494E+02  0.352E-03    2.43       0.0  T
   2    -83.7494421 -0.253859E-06  0.168E-03    2.43       9.2  T
   3    -83.7494421 -0.191187E-07  0.910E-04    2.43      17.0  T
   4    -83.7494421 -0.534413E-08  0.278E-04    2.43      55.4  T
   5    -83.7494421 -0.136113E-08  0.611E-05    2.43     252.6  T
   6    -83.7494421 -0.790550E-10  0.169E-05    2.43     913.4  T
     SCC iter.                  ...        0 min,  0.029 sec
     gradient                   ...        0 min,  0.053 sec
 * total energy  :   -82.9564079 Eh     change       -0.2527761E-04 Eh
   gradient norm :     0.0025805 Eh/α   predicted    -0.2078550E-04 ( -17.77%)
   displ. norm   :     0.1820469 α      lambda       -0.2911174E-04
   maximum displ.:     0.1301862 α      in ANC's #1, #2, #11, ...

........................................................................
.............................. CYCLE   37 ..............................
........................................................................
   1    -83.7487907 -0.837488E+02  0.256E-03    2.42       0.0  T
   2    -83.7487908 -0.138183E-06  0.116E-03    2.42      13.3  T
   3    -83.7487908 -0.156860E-07  0.600E-04    2.42      25.7  T
   4    -83.7487908 -0.138752E-08  0.173E-04    2.42      89.0  T
   5    -83.7487908 -0.367365E-09  0.492E-05    2.42     313.9  T
     SCC iter.                  ...        0 min,  0.024 sec
     gradient                   ...        0 min,  0.053 sec
 * total energy  :   -82.9564291 Eh     change       -0.2113124E-04 Eh
   gradient norm :     0.0027415 Eh/α   predicted    -0.1503081E-04 ( -28.87%)
   displ. norm   :     0.2037638 α      lambda       -0.3020586E-04
   maximum displ.:     0.1484713 α      in ANC's #1, #2, #11, ...

........................................................................
.............................. CYCLE   38 ..............................
........................................................................
   1    -83.7482158 -0.837482E+02  0.227E-03    2.42       0.0  T
   2    -83.7482160 -0.115052E-06  0.929E-04    2.42      16.6  T
   3    -83.7482160 -0.977779E-08  0.465E-04    2.42      33.2  T
   4    -83.7482160 -0.124710E-08  0.133E-04    2.42     116.3  T
   5    -83.7482160 -0.761560E-10  0.354E-05    2.42     436.0  T
     SCC iter.                  ...        0 min,  0.024 sec
     gradient                   ...        0 min,  0.053 sec
 * total energy  :   -82.9564524 Eh     change       -0.2330342E-04 Eh
   gradient norm :     0.0030318 Eh/α   predicted    -0.1572391E-04 ( -32.53%)
   displ. norm   :     0.2450739 α      lambda       -0.5168185E-04
   maximum displ.:     0.1779923 α      in ANC's #1, #2, #7, ...

........................................................................
.............................. CYCLE   39 ..............................
........................................................................
   1    -83.7486292 -0.837486E+02  0.457E-03    2.43       0.0  T
   2    -83.7486300 -0.847890E-06  0.171E-03    2.43       9.0  T
   3    -83.7486301 -0.388844E-07  0.854E-04    2.43      18.1  T
   4    -83.7486301 -0.365250E-08  0.384E-04    2.43      40.2  T
   5    -83.7486301 -0.887766E-09  0.661E-05    2.43     233.5  T
   6    -83.7486301 -0.118007E-09  0.292E-05    2.43     527.8  T
     SCC iter.                  ...        0 min,  0.029 sec
     gradient                   ...        0 min,  0.053 sec
 * total energy  :   -82.9564857 Eh     change       -0.3338671E-04 Eh
   gradient norm :     0.0027365 Eh/α   predicted    -0.2737098E-04 ( -18.02%)
   displ. norm   :     0.3166544 α      lambda       -0.4071460E-04
   maximum displ.:     0.2311323 α      in ANC's #1, #2, #11, ...

........................................................................
.............................. CYCLE   40 ..............................
........................................................................
   1    -83.7471332 -0.837471E+02  0.604E-03    2.43       0.0  T
   2    -83.7471336 -0.455402E-06  0.312E-03    2.43       4.9  T
   3    -83.7471337 -0.161816E-07  0.146E-03    2.43      10.5  T
   4    -83.7471337 -0.322738E-07  0.402E-04    2.43      38.4  T
   5    -83.7471337 -0.199255E-08  0.903E-05    2.43     170.8  T
   6    -83.7471337 -0.992344E-10  0.274E-05    2.43     563.5  T
     SCC iter.                  ...        0 min,  0.029 sec
     gradient                   ...        0 min,  0.053 sec
 * total energy  :   -82.9564865 Eh     change       -0.7743614E-06 Eh
   gradient norm :     0.0055337 Eh/α   predicted    -0.2237132E-04 (2789.00%)
   displ. norm   :     0.1010082 α      lambda       -0.7815136E-04
   maximum displ.:     0.0463348 α      in ANC's #1, #7, #12, ...

........................................................................
.............................. CYCLE   41 ..............................
........................................................................
   1    -83.7500318 -0.837500E+02  0.658E-03    2.43       0.0  T
   2    -83.7500322 -0.447017E-06  0.337E-03    2.43       4.6  T
   3    -83.7500322 -0.274696E-07  0.164E-03    2.43       9.4  T
   4    -83.7500323 -0.268109E-07  0.373E-04    2.43      41.4  T
   5    -83.7500323 -0.227514E-08  0.107E-04    2.43     144.7  T
   6    -83.7500323 -0.207507E-09  0.283E-05    2.43     545.8  T
     SCC iter.                  ...        0 min,  0.029 sec
     gradient                   ...        0 min,  0.053 sec
 * total energy  :   -82.9565242 Eh     change       -0.3771309E-04 Eh
   gradient norm :     0.0021251 Eh/α   predicted    -0.3954350E-04 (   4.85%)
   displ. norm   :     0.0958909 α      lambda       -0.1467027E-04
   maximum displ.:     0.0693494 α      in ANC's #1, #7, #2, ...

........................................................................
.............................. CYCLE   42 ..............................
........................................................................
   1    -83.7499580 -0.837500E+02  0.183E-03    2.43       0.0  T
   2    -83.7499582 -0.149846E-06  0.718E-04    2.43      21.5  T
   3    -83.7499582 -0.111972E-07  0.313E-04    2.43      49.3  T
   4    -83.7499582 -0.334282E-09  0.120E-04    2.43     128.9  T
   5    -83.7499582 -0.127756E-09  0.291E-05    2.43     529.4  T
     SCC iter.                  ...        0 min,  0.024 sec
     gradient                   ...        0 min,  0.053 sec
 * total energy  :   -82.9565368 Eh     change       -0.1255724E-04 Eh
   gradient norm :     0.0017209 Eh/α   predicted    -0.7367004E-05 ( -41.33%)
   displ. norm   :     0.4248067 α      lambda       -0.3805400E-04
   maximum displ.:     0.3080073 α      in ANC's #1, #7, #2, ...
 * RMSD in coord.:     0.4972922 α      energy gain  -0.7910899E-03 Eh

generating ANC from model Hessian ...
Using Lindh-Hessian (1995)
 Shifting diagonal of input Hessian by   9.875135247765560E-003
 Lowest  eigenvalues of input Hessian
    0.000000    0.000000    0.000000    0.000000    0.000000    0.000000
    0.010000    0.010257    0.010563    0.010820    0.011346    0.012309
    0.012682    0.013521    0.015064    0.015937    0.016717    0.018254
 Highest eigenvalues
    2.100258    2.185172    2.266646    2.354473    2.405020    2.421318
 

........................................................................
.............................. CYCLE   43 ..............................
........................................................................
   1    -83.7477633 -0.837478E+02  0.892E-03    2.43       0.0  T
   2    -83.7477657 -0.231380E-05  0.401E-03    2.43       3.8  T
   3    -83.7477658 -0.161438E-06  0.210E-03    2.43       7.4  T
   4    -83.7477658 -0.807238E-08  0.518E-04    2.43      29.8  T
   5    -83.7477658 -0.331606E-08  0.135E-04    2.43     114.4  T
   6    -83.7477658 -0.185224E-09  0.425E-05    2.43     362.8  T
     SCC iter.                  ...        0 min,  0.029 sec
     gradient                   ...        0 min,  0.053 sec
 * total energy  :   -82.9565284 Eh     change        0.8402072E-05 Eh
   gradient norm :     0.0054240 Eh/α   predicted     0.0000000E+00 (-100.00%)
   displ. norm   :     0.0273806 α      lambda       -0.6555412E-04
   maximum displ.:     0.0118187 α      in ANC's #11, #9, #73, ...

........................................................................
.............................. CYCLE   44 ..............................
........................................................................
   1    -83.7495503 -0.837496E+02  0.477E-03    2.43       0.0  T
   2    -83.7495504 -0.160236E-06  0.248E-03    2.43       6.2  T
   3    -83.7495504 -0.236312E-08  0.953E-04    2.43      16.2  T
   4    -83.7495504 -0.890564E-08  0.209E-04    2.43      73.9  T
   5    -83.7495504 -0.617760E-09  0.638E-05    2.43     241.8  T
   6    -83.7495504 -0.722906E-10  0.141E-05    2.43    1096.1  T
     SCC iter.                  ...        0 min,  0.029 sec
     gradient                   ...        0 min,  0.044 sec
 * total energy  :   -82.9565719 Eh     change       -0.4349341E-04 Eh
   gradient norm :     0.0016544 Eh/α   predicted    -0.3310174E-04 ( -23.89%)
   displ. norm   :     0.0543002 α      lambda       -0.2035712E-04
   maximum displ.:     0.0253452 α      in ANC's #11, #9, #15, ...

........................................................................
.............................. CYCLE   45 ..............................
........................................................................
   1    -83.7506216 -0.837506E+02  0.389E-03    2.43       0.0  T
   2    -83.7506219 -0.342631E-06  0.182E-03    2.43       8.5  T
   3    -83.7506220 -0.205609E-07  0.950E-04    2.43      16.2  T
   4    -83.7506220 -0.295557E-08  0.217E-04    2.43      71.2  T
   5    -83.7506220 -0.901395E-09  0.615E-05    2.43     251.1  T
   6    -83.7506220 -0.544134E-10  0.184E-05    2.43     839.5  T
     SCC iter.                  ...        0 min,  0.020 sec
     gradient                   ...        0 min,  0.033 sec
 * total energy  :   -82.9565905 Eh     change       -0.1858697E-04 Eh
   gradient norm :     0.0018040 Eh/α   predicted    -0.1019282E-04 ( -45.16%)
   displ. norm   :     0.0767993 α      lambda       -0.1719818E-04
   maximum displ.:     0.0376342 α      in ANC's #11, #9, #15, ...

........................................................................
.............................. CYCLE   46 ..............................
........................................................................
   1    -83.7504966 -0.837505E+02  0.281E-03    2.43       0.0  T
   2    -83.7504969 -0.323919E-06  0.996E-04    2.43      15.5  T
   3    -83.7504970 -0.173015E-07  0.506E-04    2.43      30.5  T
   4    -83.7504970 -0.104993E-08  0.162E-04    2.43      95.2  T
   5    -83.7504970 -0.265047E-09  0.422E-05    2.43     365.9  T
     SCC iter.                  ...        0 min,  0.029 sec
     gradient                   ...        0 min,  0.061 sec
 * total energy  :   -82.9566131 Eh     change       -0.2263121E-04 Eh
   gradient norm :     0.0019412 Eh/α   predicted    -0.8693229E-05 ( -61.59%)
   displ. norm   :     0.2854675 α      lambda       -0.5547479E-04
   maximum displ.:     0.1421865 α      in ANC's #11, #9, #15, ...

........................................................................
.............................. CYCLE   47 ..............................
........................................................................
   1    -83.7483856 -0.837484E+02  0.883E-03    2.43       0.0  T
   2    -83.7483882 -0.263753E-05  0.337E-03    2.43       4.6  T
   3    -83.7483883 -0.107999E-06  0.177E-03    2.43       8.7  T
   4    -83.7483883 -0.105540E-07  0.497E-04    2.43      31.1  T
   5    -83.7483883 -0.211816E-08  0.115E-04    2.43     133.8  T
   6    -83.7483883 -0.224347E-09  0.525E-05    2.43     294.2  T
     SCC iter.                  ...        0 min,  0.034 sec
     gradient                   ...        0 min,  0.060 sec
 * total energy  :   -82.9566535 Eh     change       -0.4043462E-04 Eh
   gradient norm :     0.0027149 Eh/α   predicted    -0.2874500E-04 ( -28.91%)
   displ. norm   :     0.0144590 α      lambda       -0.1243253E-04
   maximum displ.:     0.0083453 α      in ANC's #7, #5, #2, ...

........................................................................
.............................. CYCLE   48 ..............................
........................................................................
   1    -83.7490139 -0.837490E+02  0.164E-03    2.43       0.0  T
   2    -83.7490140 -0.597046E-07  0.797E-04    2.43      19.4  T
   3    -83.7490140 -0.440215E-08  0.430E-04    2.43      35.9  T
   4    -83.7490140 -0.473321E-09  0.887E-05    2.43     173.9  T
   5    -83.7490140 -0.127443E-09  0.224E-05    2.43     689.3  T
     SCC iter.                  ...        0 min,  0.029 sec
     gradient                   ...        0 min,  0.061 sec
 * total energy  :   -82.9566639 Eh     change       -0.1034195E-04 Eh
   gradient norm :     0.0018381 Eh/α   predicted    -0.6226035E-05 ( -39.80%)
   displ. norm   :     0.1390276 α      lambda       -0.3134244E-04
   maximum displ.:     0.0695893 α      in ANC's #7, #11, #2, ...

........................................................................
.............................. CYCLE   49 ..............................
........................................................................
   1    -83.7504260 -0.837504E+02  0.550E-03    2.43       0.0  T
   2    -83.7504269 -0.844739E-06  0.252E-03    2.43       6.1  T
   3    -83.7504269 -0.710085E-07  0.131E-03    2.43      11.8  T
   4    -83.7504270 -0.337788E-08  0.350E-04    2.43      44.1  T
   5    -83.7504270 -0.125655E-08  0.796E-05    2.43     193.8  T
   6    -83.7504270 -0.101878E-09  0.263E-05    2.43     587.7  T
     SCC iter.                  ...        0 min,  0.034 sec
     gradient                   ...        0 min,  0.062 sec
 * total energy  :   -82.9566893 Eh     change       -0.2540095E-04 Eh
   gradient norm :     0.0019576 Eh/α   predicted    -0.1581952E-04 ( -37.72%)
   displ. norm   :     0.1202552 α      lambda       -0.1220739E-04
   maximum displ.:     0.0596280 α      in ANC's #11, #7, #2, ...

........................................................................
.............................. CYCLE   50 ..............................
........................................................................
   1    -83.7496031 -0.837496E+02  0.187E-03    2.43       0.0  T
   2    -83.7496032 -0.482608E-07  0.999E-04    2.43      15.5  T
   3    -83.7496032 -0.386648E-08  0.516E-04    2.43      29.9  T
   4    -83.7496032 -0.156170E-08  0.129E-04    2.43     119.9  T
   5    -83.7496032 -0.315907E-09  0.353E-05    2.43     437.3  T
     SCC iter.                  ...        0 min,  0.029 sec
     gradient                   ...        0 min,  0.061 sec
 * total energy  :   -82.9567025 Eh     change       -0.1318229E-04 Eh
   gradient norm :     0.0018128 Eh/α   predicted    -0.6194163E-05 ( -53.01%)
   displ. norm   :     0.1104185 α      lambda       -0.1189682E-04
   maximum displ.:     0.0532977 α      in ANC's #7, #11, #2, ...

........................................................................
.............................. CYCLE   51 ..............................
........................................................................
   1    -83.7493014 -0.837493E+02  0.334E-03    2.43       0.0  T
   2    -83.7493019 -0.561581E-06  0.146E-03    2.43      10.6  T
   3    -83.7493020 -0.378757E-07  0.706E-04    2.43      21.8  T
   4    -83.7493020 -0.231404E-08  0.383E-04    2.43      40.2  T
   5    -83.7493020 -0.144128E-08  0.634E-05    2.43     243.4  T
   6    -83.7493020 -0.115435E-09  0.223E-05    2.43     691.3  T
     SCC iter.                  ...        0 min,  0.034 sec
     gradient                   ...        0 min,  0.060 sec
 * total energy  :   -82.9567129 Eh     change       -0.1045074E-04 Eh
   gradient norm :     0.0015932 Eh/α   predicted    -0.5983263E-05 ( -42.75%)
   displ. norm   :     0.0517250 α      lambda       -0.6575674E-05
   maximum displ.:     0.0274833 α      in ANC's #11, #7, #2, ...

........................................................................
.............................. CYCLE   52 ..............................
........................................................................
   1    -83.7494990 -0.837495E+02  0.234E-03    2.43       0.0  T
   2    -83.7494993 -0.291061E-06  0.953E-04    2.43      16.2  T
   3    -83.7494993 -0.196726E-07  0.422E-04    2.43      36.6  T
   4    -83.7494993 -0.113243E-08  0.244E-04    2.43      63.1  T
   5    -83.7494993 -0.537881E-09  0.452E-05    2.43     341.1  T
   6    -83.7494993 -0.453753E-10  0.151E-05    2.43    1019.0  T
     SCC iter.                  ...        0 min,  0.034 sec
     gradient                   ...        0 min,  0.061 sec
 * total energy  :   -82.9567207 Eh     change       -0.7804409E-05 Eh
   gradient norm :     0.0011876 Eh/α   predicted    -0.3299136E-05 ( -57.73%)
   displ. norm   :     0.1121495 α      lambda       -0.1290496E-04
   maximum displ.:     0.0570978 α      in ANC's #11, #2, #7, ...

........................................................................
.............................. CYCLE   53 ..............................
........................................................................
   1    -83.7501075 -0.837501E+02  0.459E-03    2.43       0.0  T
   2    -83.7501085 -0.105508E-05  0.180E-03    2.43       8.6  T
   3    -83.7501086 -0.664004E-07  0.825E-04    2.43      18.7  T
   4    -83.7501086 -0.404096E-08  0.450E-04    2.43      34.3  T
   5    -83.7501086 -0.190310E-08  0.876E-05    2.43     176.2  T
   6    -83.7501086 -0.174282E-09  0.304E-05    2.43     507.5  T
     SCC iter.                  ...        0 min,  0.035 sec
     gradient                   ...        0 min,  0.061 sec
 * total energy  :   -82.9567329 Eh     change       -0.1215558E-04 Eh
   gradient norm :     0.0013399 Eh/α   predicted    -0.6499718E-05 ( -46.53%)
   displ. norm   :     0.0791343 α      lambda       -0.6335955E-05
   maximum displ.:     0.0391383 α      in ANC's #11, #2, #13, ...

........................................................................
.............................. CYCLE   54 ..............................
........................................................................
   1    -83.7500600 -0.837501E+02  0.165E-03    2.43       0.0  T
   2    -83.7500601 -0.116248E-06  0.629E-04    2.43      24.5  T
   3    -83.7500601 -0.560873E-08  0.317E-04    2.43      48.7  T
   4    -83.7500601 -0.469129E-09  0.128E-04    2.43     120.5  T
   5    -83.7500601 -0.149114E-09  0.309E-05    2.43     499.9  T
     SCC iter.                  ...        0 min,  0.029 sec
     gradient                   ...        0 min,  0.060 sec
 * total energy  :   -82.9567396 Eh     change       -0.6743533E-05 Eh
   gradient norm :     0.0013523 Eh/α   predicted    -0.3180522E-05 ( -52.84%)
   displ. norm   :     0.0798322 α      lambda       -0.7773151E-05
   maximum displ.:     0.0368463 α      in ANC's #17, #3, #2, ...

........................................................................
.............................. CYCLE   55 ..............................
........................................................................
   1    -83.7506494 -0.837506E+02  0.235E-03    2.43       0.0  T
   2    -83.7506495 -0.680956E-07  0.117E-03    2.43      13.2  T
   3    -83.7506495 -0.276425E-08  0.529E-04    2.43      29.2  T
   4    -83.7506495 -0.160345E-08  0.120E-04    2.43     128.7  T
   5    -83.7506495 -0.236653E-09  0.396E-05    2.43     390.1  T
     SCC iter.                  ...        0 min,  0.029 sec
     gradient                   ...        0 min,  0.060 sec
 * total energy  :   -82.9567441 Eh     change       -0.4453430E-05 Eh
   gradient norm :     0.0013623 Eh/α   predicted    -0.3901939E-05 ( -12.38%)
   displ. norm   :     0.1732025 α      lambda       -0.9762117E-05
   maximum displ.:     0.0887422 α      in ANC's #11, #2, #7, ...

........................................................................
.............................. CYCLE   56 ..............................
........................................................................
   1    -83.7492201 -0.837492E+02  0.422E-03    2.43       0.0  T
   2    -83.7492202 -0.911906E-07  0.223E-03    2.43       6.9  T
   3    -83.7492202 -0.223135E-08  0.785E-04    2.43      19.7  T
   4    -83.7492202 -0.553740E-08  0.183E-04    2.43      84.2  T
   5    -83.7492202 -0.287315E-09  0.440E-05    2.43     351.0  T
     SCC iter.                  ...        0 min,  0.028 sec
     gradient                   ...        0 min,  0.060 sec
 * total energy  :   -82.9567384 Eh     change        0.5656805E-05 Eh
   gradient norm :     0.0030770 Eh/α   predicted    -0.4969471E-05 (-187.85%)
   displ. norm   :     0.0855904 α      lambda       -0.1793298E-04
   maximum displ.:     0.0451451 α      in ANC's #11, #2, #7, ...

........................................................................
.............................. CYCLE   57 ..............................
........................................................................
   1    -83.7499766 -0.837500E+02  0.238E-03    2.43       0.0  T
   2    -83.7499767 -0.716878E-07  0.123E-03    2.43      12.5  T
   3    -83.7499767 -0.314601E-08  0.549E-04    2.43      28.1  T
   4    -83.7499767 -0.234817E-08  0.148E-04    2.43     104.2  T
   5    -83.7499767 -0.395843E-09  0.411E-05    2.43     375.6  T
     SCC iter.                  ...        0 min,  0.028 sec
     gradient                   ...        0 min,  0.060 sec
 * total energy  :   -82.9567486 Eh     change       -0.1017463E-04 Eh
   gradient norm :     0.0011290 Eh/α   predicted    -0.9033785E-05 ( -11.21%)
   displ. norm   :     0.0188835 α      lambda       -0.2095884E-05
   maximum displ.:     0.0100805 α      in ANC's #11, #21, #3, ...

........................................................................
.............................. CYCLE   58 ..............................
........................................................................
   1    -83.7501450 -0.837501E+02  0.123E-03    2.43       0.0  T
   2    -83.7501451 -0.462297E-07  0.533E-04    2.43      29.0  T
   3    -83.7501451 -0.199924E-08  0.277E-04    2.43      55.6  T
   4    -83.7501451 -0.175703E-09  0.754E-05    2.43     204.6  T
   5    -83.7501451 -0.612488E-10  0.182E-05    2.43     848.4  T
     SCC iter.                  ...        0 min,  0.029 sec
     gradient                   ...        0 min,  0.061 sec
 * total energy  :   -82.9567506 Eh     change       -0.2047151E-05 Eh
   gradient norm :     0.0004314 Eh/α   predicted    -0.1050732E-05 ( -48.67%)
   displ. norm   :     0.0205586 α      lambda       -0.1480688E-05
   maximum displ.:     0.0126234 α      in ANC's #3, #7, #5, ...

   *** GEOMETRY OPTIMIZATION CONVERGED AFTER 58 ITERATIONS ***

------------------------------------------------------------------------
 total energy gain   :        -0.0316357 Eh      -19.8517 kcal/mol
 total RMSD          :         1.0304101 a0        0.5453 Å
 total power (kW/mol):        -1.4320617 (step)  -12.4761 (real)
------------------------------------------------------------------------

 ANCopt (total)                0 d,  0 h,  0 min,  6.658 sec
 optimizer setup                ...        0 min,  0.001 sec (  0.011%)
 model hessian                  ...        0 min,  0.065 sec (  0.980%)
 ANC generation                 ...        0 min,  0.008 sec (  0.126%)
 coordinate transformation      ...        0 min,  0.001 sec (  0.018%)
 single point calculation       ...        0 min,  6.561 sec ( 98.556%)
 optimization log               ...        0 min,  0.010 sec (  0.154%)
 hessian update                 ...        0 min,  0.001 sec (  0.019%)
 rational function              ...        0 min,  0.006 sec (  0.097%)

================
 final structure:
================
42
 xtb: 6.5.1 (579679a)
C            5.27897111977307       -2.70664244738133        1.84326627308695
C            5.22889869914889       -1.61549412654524        0.84622208201696
N            6.22583966068021       -0.99933566039660        0.29195884968170
N            5.69355091268888       -0.08037129670726       -0.56235819425109
C            4.40466688363041       -0.19166002380457       -0.47686699872817
C            3.37757173455263        0.59354014385350       -1.20819133675086
O            3.68197055149721        1.44982600895098       -2.02190760801223
N            2.11933569936413        0.23880445116592       -0.87378791081780
C            0.92853823087036        0.92488800287782       -1.39249133482720
C            0.94426309107463        2.39365695161373       -0.95843292969110
C            0.87736142877546        0.79806675559327       -2.92269162537702
C           -0.28363973861099        0.22778475151103       -0.81130435453542
N           -1.25056742968489        0.91048501656922       -0.33337387801743
C           -2.38494100388214        0.27014379105324        0.16700035861365
C           -3.33130240211170        1.19941894113835        0.60064130830585
O           -3.39828254412793        2.38989888092164        0.63848846509934
O           -4.66760945754846        0.48540975197513        1.12962778349041
C           -5.82286257057447        1.29646149895816        0.83649517288543
C           -4.56211266043343        0.12262983419964        2.52403580277245
C           -2.50598763576939       -1.15777344758160        0.19219626189407
O           -3.44622480519994       -1.79040975258363        0.67380601948460
C           -1.34817399478731       -1.92143589373587       -0.42995657258064
O           -1.31622739793097       -3.13429443749833       -0.53209398526873
N           -0.30980758424523       -1.15033548779079       -0.88285911315147
O            4.04776537436635       -1.15145637986493        0.40457398326293
H            4.84236934560608       -3.61298208537416        1.42331673390475
H            4.70054300414955       -2.43218802429209        2.72476418585855
H            6.31158056477871       -2.89806764682852        2.12566638428632
H            1.99555002740384       -0.42128985734904       -0.12416632754943
H            1.00718470848267        2.45762797688630        0.12674883538851
H            1.79584518547990        2.90742009205532       -1.40032886384375
H            0.02455830507058        2.87580972795454       -1.28634544260518
H           -0.05460233057542        1.22750682188974       -3.28711363017161
H            1.71345846602548        1.32844376841484       -3.37464405199455
H            0.92216358041006       -0.25036324090694       -3.21215894382600
H           -5.84502816578533        1.44095935268495       -0.24175449740023
H           -6.69984310838306        0.74518957293069        1.16792337229917
H           -5.75138905534088        2.25487625364887        1.35349470511995
H           -3.66660171738296       -0.48503546912137        2.63120699930088
H           -4.50544902079033        1.02030209324838        3.14124129507245
H           -5.44426707301326       -0.46398173699857        2.77334782015663
H            0.47293312235495       -1.64371542533151       -1.28319509256222
 
 Bond Distances (Angstroems)
 ---------------------------
C1-C2=1.4789         C1-H26=1.0902        C1-H27=1.0895        C1-H28=1.0875        C2-C1=1.4789         C2-N3=1.2964         
C2-O25=1.3437        N3-C2=1.2964         N3-N4=1.3630         N4-N3=1.3630         N4-C5=1.2965         C5-N4=1.2965         
C5-C6=1.4854         C5-O25=1.3511        C6-C5=1.4854         C6-O7=1.2198         C6-N8=1.3494         O7-C6=1.2198         
N8-C6=1.3494         N8-C9=1.4689         N8-H29=1.0065        C9-N8=1.4689         C9-C10=1.5316        C9-C11=1.5363        
C9-C12=1.5143        C10-C9=1.5316        C10-H30=1.0889       C10-H31=1.0883       C10-H32=1.0890       C11-C9=1.5363        
[...]
O25-C2-N3=111.80               N4-N3-C2=106.74                C5-N4-N3=106.80                C6-C5-N4=127.56                
O25-C5-N4=111.51               O25-C5-C6=120.94               O7-C6-C5=121.80                N8-C6-C5=112.57                
N8-C6-O7=125.63                C9-N8-C6=123.07                H29-N8-C6=118.14               H29-N8-C9=118.01               
C10-C9-N8=109.85               C11-C9-N8=109.89               C11-C9-C10=111.21              C12-C9-N8=107.36               
C12-C9-C10=109.93              C12-C9-C11=108.52              H30-C10-C9=109.84              H31-C10-C9=110.22              
H31-C10-H30=109.37             H32-C10-C9=109.30              H32-C10-H30=108.84             H32-C10-H31=109.24             
 
 selected dihedral angles (degree)
 ---------------------------------
N3-C2-C1-H26=243.64           N3-C2-C1-H27=124.92           N3-C2-C1-H28=  4.08           O25-C2-C1-H26= 63.36          
O25-C2-C1-H27=304.64          O25-C2-C1-H28=183.80          N4-N3-C2-C1=179.66            N4-N3-C2-O25=359.92           
C5-N4-N3-C2=  0.00            C6-C5-N4-N3=179.78            O25-C5-N4-N3=  0.04           O7-C6-C5-N4=  1.40            
O7-C6-C5-O25=181.11           N8-C6-C5-N4=180.88            N8-C6-C5-O25=  0.59           C9-N8-C6-C5=175.93            
C9-N8-C6-O7=355.39            H29-N8-C6-C5=  6.26           H29-N8-C6-O7=185.72           C10-C9-N8-C6=298.54           
C10-C9-N8-H29=108.22          C11-C9-N8-C6= 61.20           C11-C9-N8-H29=230.88          C12-C9-N8-C6=179.04           
C12-C9-N8-H29=348.71          H30-C10-C9-N8=303.36          H30-C10-C9-C11=181.49         H30-C10-C9-C12= 61.28         
H31-C10-C9-N8= 63.94          H31-C10-C9-C11=302.07         H31-C10-C9-C12=181.86         H32-C10-C9-N8=184.01          
H32-C10-C9-C11= 62.14         H32-C10-C9-C12=301.94         
           -------------------------------------------------
          |                Final Singlepoint                |
           -------------------------------------------------

          ...................................................
          :                      SETUP                      :
          :.................................................:
          :  # basis functions                 134          :
          :  # atomic orbitals                 134          :
          :  # shells                           84          :
          :  # electrons                       134          :
          :  # halogen bonds                     0          :
          :  max. iterations                   250          :
          :  Hamiltonian                  GFN1-xTB          :
          :  restarted?                      false          :
          :  GBSA solvation                   true          :
          :  PC potential                    false          :
          :  electronic temp.          300.0000000     K    :
          :  accuracy                    1.0000000          :
          :  -> integral cutoff          0.2500000E+02      :
          :  -> integral neglect         0.1000000E-07      :
          :  -> SCF convergence          0.1000000E-05 Eh   :
          :  -> wf. convergence          0.2000000E-04 e    :
          :  Broyden damping             0.4000000          :
          ...................................................

 iter      E             dE          RMSdq      gap      omega  full diag
   1    -83.7501451 -0.837501E+02  0.748E-06    2.43       0.0  T
   2    -83.7501451 -0.852651E-12  0.378E-06    2.43    4077.8  T
   3    -83.7501451 -0.170530E-12  0.215E-06    2.43    7171.0  T

   *** convergence criteria satisfied after 3 iterations ***

         #    Occupation            Energy/Eh            Energy/eV
      -------------------------------------------------------------
         1        2.0000           -0.8812252             -23.9794
       ...           ...                  ...                  ...
        61        2.0000           -0.4637577             -12.6195
        62        2.0000           -0.4587996             -12.4846
        63        2.0000           -0.4513245             -12.2812
        64        2.0000           -0.4477020             -12.1826
        65        2.0000           -0.4454527             -12.1214
        66        2.0000           -0.4191773             -11.4064
        67        2.0000           -0.4108689             -11.1803 (HOMO)
        68                         -0.3216096              -8.7514 (LUMO)
        69                         -0.3091963              -8.4137
        70                         -0.2693319              -7.3289
        71                         -0.2555039              -6.9526
        72                         -0.2419515              -6.5838
       ...                                ...                  ...
       134                          0.7873248              21.4242
      -------------------------------------------------------------
                  HL-Gap            0.0892593 Eh            2.4289 eV
             Fermi-level           -0.3662393 Eh           -9.9659 eV

 SCC (total)                   0 d,  0 h,  0 min,  0.108 sec
 SCC setup                      ...        0 min,  0.002 sec (  1.575%)
 Dispersion                     ...        0 min,  0.000 sec (  0.221%)
 classical contributions        ...        0 min,  0.000 sec (  0.077%)
 integral evaluation            ...        0 min,  0.027 sec ( 24.699%)
 iterations                     ...        0 min,  0.018 sec ( 16.368%)
 molecular gradient             ...        0 min,  0.060 sec ( 55.852%)
 printout                       ...        0 min,  0.001 sec (  1.181%)

         :::::::::::::::::::::::::::::::::::::::::::::::::::::
         ::                     SUMMARY                     ::
         :::::::::::::::::::::::::::::::::::::::::::::::::::::
         :: total energy             -82.956750636412 Eh    ::
         :: total w/o Gsasa/hb       -82.935033372437 Eh    ::
         :: gradient norm              0.000432240281 Eh/a0 ::
         :: HOMO-LUMO gap              2.428868287955 eV    ::
         ::.................................................::
         :: SCC energy               -83.750145081345 Eh    ::
         :: -> electrostatic           0.373345693965 Eh    ::
         :: -> Gsolv                  -0.066507258283 Eh    ::
         ::    -> Gelec               -0.044789994308 Eh    ::
         ::    -> Gsasa               -0.024862733760 Eh    ::
         ::    -> Ghb                 -0.004478809221 Eh    ::
         ::    -> Gshift               0.007624279005 Eh    ::
         :: repulsion energy           0.819047660162 Eh    ::
         :: dispersion energy         -0.025653215228 Eh    ::
         :: halogen bond corr.         0.000000000000 Eh    ::
         :: add. restraining           0.000000000000 Eh    ::
         :: total charge               0.000000000000 e     ::
         :::::::::::::::::::::::::::::::::::::::::::::::::::::

           -------------------------------------------------
          |                Property Printout                |
           -------------------------------------------------

    * Orbital Energies and Occupations

         #    Occupation            Energy/Eh            Energy/eV
      -------------------------------------------------------------
         1        2.0000           -0.8812252             -23.9794
       ...           ...                  ...                  ...
        55        2.0000           -0.5037858             -13.7087
        56        2.0000           -0.5015688             -13.6484
        57        2.0000           -0.4978040             -13.5459
        58        2.0000           -0.4918161             -13.3830
        59        2.0000           -0.4784754             -13.0200
        60        2.0000           -0.4736092             -12.8876
        61        2.0000           -0.4637577             -12.6195
        62        2.0000           -0.4587996             -12.4846
        63        2.0000           -0.4513245             -12.2812
        64        2.0000           -0.4477020             -12.1826
        65        2.0000           -0.4454527             -12.1214
        66        2.0000           -0.4191773             -11.4064
        67        2.0000           -0.4108689             -11.1803 (HOMO)
        68                         -0.3216096              -8.7514 (LUMO)
        69                         -0.3091963              -8.4137
        70                         -0.2693319              -7.3289
        71                         -0.2555039              -6.9526
        72                         -0.2419515              -6.5838
        73                         -0.1970562              -5.3622
        74                         -0.1668507              -4.5402
        75                         -0.1529116              -4.1609
        76                         -0.1473676              -4.0101
        77                         -0.1423927              -3.8747
        78                         -0.1411308              -3.8404
       ...                                ...                  ...
       134                          0.7873248              21.4242
      -------------------------------------------------------------
                  HL-Gap            0.0892593 Eh            2.4289 eV
             Fermi-level           -0.3662393 Eh           -9.9659 eV

  Mulliken/CM5 charges         n(s)   n(p)   n(d)
     1C    -0.11197 -0.24935   1.012  3.100  0.000
     2C     0.39170  0.50037   1.007  2.601  0.000
     3N    -0.26878 -0.37655   1.564  3.705  0.000
     4N    -0.22255 -0.32651   1.566  3.656  0.000
     5C     0.33081  0.45659   1.008  2.661  0.000
     6C     0.47086  0.57932   0.976  2.553  0.000
     7O    -0.57629 -0.62171   1.726  4.850  0.000
     8N    -0.34823 -0.70278   1.434  3.915  0.000
     9C     0.15220  0.19199   1.065  2.783  0.000
    10C    -0.09834 -0.23636   1.016  3.083  0.000
    11C    -0.10497 -0.24442   1.020  3.085  0.000
    12C     0.26486  0.41623   1.012  2.723  0.000
    13N    -0.37405 -0.55874   1.529  3.845  0.000
    14C    -0.00163  0.07071   1.029  2.972  0.000
    15C     0.52052  0.57612   1.030  2.449  0.000
    16O    -0.50759 -0.55561   1.722  4.785  0.000
    17O    -0.29247 -0.41513   1.691  4.601  0.000
    18C     0.14907  0.02486   0.997  2.854  0.000
    19C     0.15044  0.02588   0.998  2.851  0.000
    20C     0.31924  0.36476   1.041  2.640  0.000
    21O    -0.57270 -0.61846   1.737  4.836  0.000
    22C     0.44892  0.55333   1.004  2.547  0.000
    23O    -0.56245 -0.60091   1.728  4.834  0.000
    24N    -0.31274 -0.65882   1.436  3.877  0.000
    25O    -0.35851 -0.41548   1.697  4.662  0.000
    26H     0.08057  0.13498   0.919  0.000  0.000
    27H     0.07909  0.13373   0.921  0.000  0.000
    28H     0.06948  0.12524   0.931  0.000  0.000
    29H     0.26279  0.47292   0.737  0.000  0.000
    30H     0.04293  0.10116   0.957  0.000  0.000
    31H     0.05475  0.11452   0.945  0.000  0.000
    32H     0.04440  0.10254   0.956  0.000  0.000
    33H     0.04551  0.10048   0.954  0.000  0.000
    34H     0.06332  0.12363   0.937  0.000  0.000
    35H     0.04479  0.10316   0.955  0.000  0.000
    36H     0.07975  0.14244   0.920  0.000  0.000
    37H     0.07535  0.13622   0.925  0.000  0.000
    38H     0.07191  0.13560   0.928  0.000  0.000
    39H     0.08330  0.15079   0.917  0.000  0.000
    40H     0.06430  0.12504   0.936  0.000  0.000
    41H     0.07779  0.13898   0.922  0.000  0.000
    42H     0.27463  0.47921   0.725  0.000  0.000

Wiberg/Mayer (AO) data.
largest (>0.10) Wiberg bond orders for each atom

 ---------------------------------------------------------------------------
     #   Z sym  total        # sym  WBO       # sym  WBO       # sym  WBO
 ---------------------------------------------------------------------------
     1   6 C    3.986 --     2 C    1.032    28 H    0.982    27 H    0.965
                            26 H    0.961
     2   6 C    3.869 --     3 N    1.612    25 O    1.072     1 C    1.032
     3   7 N    2.981 --     2 C    1.612     4 N    1.197
     4   7 N    2.999 --     5 C    1.624     3 N    1.197
     5   6 C    3.871 --     4 N    1.624    25 O    1.047     6 C    0.991
     6   6 C    3.917 --     7 O    1.586     8 N    1.256     5 C    0.991
     7   8 O    1.903 --     6 C    1.586     8 N    0.176
     8   7 N    3.344 --     6 C    1.256     9 C    0.919    29 H    0.894
                             7 O    0.176
     9   6 C    3.933 --    10 C    0.992    12 C    0.979    11 C    0.979
                             8 N    0.919
    10   6 C    3.989 --     9 C    0.992    30 H    0.985    32 H    0.984
                            31 H    0.982
    11   6 C    3.987 --    33 H    0.985    35 H    0.984     9 C    0.979
                            34 H    0.979
    12   6 C    3.933 --    13 N    1.667    24 N    1.098     9 C    0.979
    13   7 N    3.026 --    12 C    1.667    14 C    1.098
    14   6 C    3.919 --    15 C    1.298    20 C    1.194    13 N    1.098
                            16 O    0.110    21 O    0.101
    15   6 C    3.809 --    16 O    1.721    14 C    1.298    17 O    0.605
    16   8 O    2.044 --    15 C    1.721    14 C    0.110
    17   8 O    2.444 --    18 C    0.860    19 C    0.851    15 C    0.605
    18   6 C    3.831 --    36 H    0.979    38 H    0.979    37 H    0.979
                            17 O    0.860
    19   6 C    3.825 --    40 H    0.983    41 H    0.978    39 H    0.973
                            17 O    0.851
    20   6 C    3.923 --    21 O    1.596    14 C    1.194    22 C    0.944
    21   8 O    1.909 --    20 C    1.596    14 C    0.101
    22   6 C    3.885 --    23 O    1.633    24 N    1.161    20 C    0.944
    23   8 O    1.909 --    22 C    1.633    24 N    0.139
    24   7 N    3.432 --    22 C    1.161    12 C    1.098    42 H    0.887
                            23 O    0.139
    25   8 O    2.315 --     2 C    1.072     5 C    1.047
    26   1 H    0.997 --     1 C    0.961
    27   1 H    0.997 --     1 C    0.965
    28   1 H    0.998 --     1 C    0.982
    29   1 H    0.939 --     8 N    0.894
    30   1 H    1.006 --    10 C    0.985
    31   1 H    1.008 --    10 C    0.982
    32   1 H    1.011 --    10 C    0.984
    33   1 H    1.002 --    11 C    0.985
    34   1 H    1.010 --    11 C    0.979
    35   1 H    1.002 --    11 C    0.984
    36   1 H    1.001 --    18 C    0.979
    37   1 H    1.000 --    18 C    0.979
    38   1 H    1.004 --    18 C    0.979
    39   1 H    1.013 --    19 C    0.973
    40   1 H    0.998 --    19 C    0.983
    41   1 H    1.001 --    19 C    0.978
    42   1 H    0.933 --    24 N    0.887
 ---------------------------------------------------------------------------

Topologies differ in total number of bonds
Writing topology from bond orders to xtbtopo.mol

 dipole moment from electron density (au)
     X       Y       Z   
  -3.1504  -0.3026   2.8741  total (Debye):   10.866

           -------------------------------------------------
          |                Geometry Summary                 |
           -------------------------------------------------

      molecular mass/u    :      351.3152409
   center of mass at/Å    :        0.2692270      -0.1032263      -0.1121267
  moments of inertia/u·Å² :        0.1192626E+04   0.5028876E+04   0.5533981E+04
rotational constants/cm⁻¹ :        0.1413489E-01   0.3352167E-02   0.3046204E-02

 * 37 selected distances

     #   Z          #   Z                                           value/Å
     1   6 C        2   6 C                                       1.4789217
     2   6 C        3   7 N                                       1.2964376
     4   7 N        5   6 C                                       1.2965016
     6   6 C        7   8 O                                       1.2198437
     6   6 C        8   7 N                                       1.3493781
     8   7 N        9   6 C                                       1.4689326
     9   6 C       10   6 C                                       1.5316451
     9   6 C       11   6 C                                       1.5362995 (max)
    12   6 C       13   7 N                                       1.2764978
    14   6 C       15   6 C                                       1.3954200
    15   6 C       16   8 O                                       1.1929633
    17   8 O       18   6 C                                       1.4416455
    17   8 O       19   6 C                                       1.4446844
    14   6 C       20   6 C                                       1.4332603
    20   6 C       21   8 O                                       1.2313500
    22   6 C       23   8 O                                       1.2175708
    12   6 C       24   7 N                                       1.3802248
    22   6 C       24   7 N                                       1.3703728
     2   6 C       25   8 O                                       1.3436742
     5   6 C       25   8 O                                       1.3511204
     1   6 C       26   1 H                                       1.0901516
     1   6 C       27   1 H                                       1.0894692
     1   6 C       28   1 H                                       1.0875090
     8   7 N       29   1 H                                       1.0064691 (min)
    10   6 C       30   1 H                                       1.0888853
    10   6 C       31   1 H                                       1.0883092
    10   6 C       32   1 H                                       1.0889697
    11   6 C       33   1 H                                       1.0889347
    11   6 C       34   1 H                                       1.0884022
    11   6 C       35   1 H                                       1.0885790
    18   6 C       36   1 H                                       1.0881147
    18   6 C       37   1 H                                       1.0875847
    18   6 C       38   1 H                                       1.0913093
    19   6 C       39   1 H                                       1.0875122
    19   6 C       40   1 H                                       1.0908570
    19   6 C       41   1 H                                       1.0883319
    24   7 N       42   1 H                                       1.0081547

 * 5 distinct bonds (by element types)

   Z      Z             #   av. dist./Å        max./Å        min./Å
   1 H    6 C          15     1.0888613     1.0913093     1.0875090
   6 C    6 C           5     1.4751093     1.5362995     1.3954200
   1 H    7 N           2     1.0073119     1.0081547     1.0064691
   6 C    7 N           7     1.3483351     1.4689326     1.2764978
   6 C    8 O           8     1.3053565     1.4446844     1.1929633


optimized geometry written to: xtbopt.xyz


           -------------------------------------------------
          | TOTAL ENERGY              -82.956750636412 Eh   |
          | GRADIENT NORM               0.000432240281 Eh/α |
          | HOMO-LUMO GAP               2.428868287955 eV   |
           -------------------------------------------------

------------------------------------------------------------------------
 * finished run on 2023/06/21 at 17:36:26.731     
------------------------------------------------------------------------
 total:
 * wall-time:     0 d,  0 h,  0 min,  7.088 sec
 *  cpu-time:     0 d,  0 h,  0 min,  6.922 sec
 * ratio c/w:     0.977 speedup
 SCF:
 * wall-time:     0 d,  0 h,  0 min,  0.151 sec
 *  cpu-time:     0 d,  0 h,  0 min,  0.150 sec
 * ratio c/w:     0.994 speedup
 ANC optimizer:
 * wall-time:     0 d,  0 h,  0 min,  6.796 sec
 *  cpu-time:     0 d,  0 h,  0 min,  6.743 sec
 * ratio c/w:     0.992 speedup

