42
 energy: -83.631493412285 gnorm: 0.000899848589 xtb: 6.5.1 (579679a)
C            6.53127173940834       -0.40154367691140       -1.73607217417076
O            5.32048094843769        0.32966164191324       -1.54908264373246
C            4.40807934496819       -0.25227573803572       -0.72572972387774
O            4.64246459017187       -1.32109027505414       -0.19187352494978
C            3.16150568964176        0.51481637930794       -0.56666307789336
N            2.23913096370404       -0.11806671577983        0.22459986307613
C            1.08218111316981        0.48044217002005        0.40487856882558
C            0.05869731727847       -0.21963912052041        1.29744797045631
C            0.57562907115026       -1.58882652539282        1.75242613509936
C           -0.22562860067614        0.68159014394444        2.50986207401105
N           -1.15980013294334       -0.37996730954018        0.50883393004252
C           -2.29163412568327       -0.95864300740247        0.91005345254554
O           -2.50559080668590       -1.39273938006189        2.04363065837307
C           -3.34228177773021       -1.05402532976703       -0.25694529856331
C           -3.75020352734157       -2.53543112033088       -0.38219146045211
N           -2.77261057076832       -0.53411051288397       -1.49011539299917
N           -3.55508356568833        0.53847562875530       -1.83746976813510
C           -4.49909701793724        0.68877549077383       -0.98600138352825
C           -5.57935044647058        1.71411430909116       -0.99249778087407
O           -4.48150050009156       -0.25245947360220        0.05239085115269
N            0.69507168155477        1.64636399333117       -0.10225729979750
C            1.55152472917528        2.35497950172817       -0.88805197257808
O            1.23948227905118        3.45664510080385       -1.37699236415324
C            2.86687175620786        1.73936958057944       -1.12782719576804
O            3.70845746127618        2.46524690128232       -1.91309253447507
H            7.14718667904636        0.17180337109500       -2.42484314000415
H            7.05208289908265       -0.52469579392935       -0.78286460841415
H            6.31812295701640       -1.38789468665252       -2.15724865509225
H            1.51775603794521       -1.46272180584267        2.28427307982892
H           -0.14420699437777       -2.06789395506796        2.41462744782951
H            0.74953955158932       -2.22938045452503        0.88797872268000
H            0.68736838087358        0.81408446359934        3.08916495854401
H           -0.98603113763517        0.23583649650829        3.14985123660307
H           -0.56923265100298        1.65837481234958        2.16735482909874
H           -1.15289268581764       -0.11773554173940       -0.48768565798361
H           -4.12131163352247       -2.90496248235561        0.57284858077011
H           -4.53026541863599       -2.63096074529267       -1.13467430940440
H           -2.88661731853333       -3.12272959827384       -0.68858958273898
H           -5.44283629892314        2.37339495774426       -1.84851154376283
H           -6.56332731996357        1.24519182966681       -1.06435575743858
H           -5.56267431384421        2.31196279062368       -0.07809617620342
H            4.56926765352664        2.03666468584134       -2.02223033196573
