      -----------------------------------------------------------      
     |                   =====================                   |     
     |                           x T B                           |     
     |                   =====================                   |     
     |                         S. Grimme                         |     
     |          Mulliken Center for Theoretical Chemistry        |     
     |                    University of Bonn                     |     
      -----------------------------------------------------------      

   * xtb version 6.5.1 (579679a) compiled by 'ehlert@majestix' on 2022-07-11

   xtb is free software: you can redistribute it and/or modify it under
   the terms of the GNU Lesser General Public License as published by
   the Free Software Foundation, either version 3 of the License, or
   (at your option) any later version.
   
   xtb is distributed in the hope that it will be useful,
   but WITHOUT ANY WARRANTY; without even the implied warranty of
   MERCHANTABILITY or FITNESS FOR A PARTICULAR PURPOSE.  See the
   GNU Lesser General Public License for more details.
   
   Cite this work as:
   * C. Bannwarth, E. Caldeweyher, S. Ehlert, A. Hansen, P. Pracht,
     J. Seibert, S. Spicher, S. Grimme, WIREs Comput. Mol. Sci., 2020, 11,
     e01493. DOI: 10.1002/wcms.1493
   
   for GFN2-xTB:
   * C. Bannwarth, S. Ehlert and S. Grimme., J. Chem. Theory Comput., 2019,
     15, 1652-1671. DOI: 10.1021/acs.jctc.8b01176
   for GFN1-xTB:
   * S. Grimme, C. Bannwarth, P. Shushkov, J. Chem. Theory Comput., 2017,
     13, 1989-2009. DOI: 10.1021/acs.jctc.7b00118
   for GFN0-xTB:
   * P. Pracht, E. Caldeweyher, S. Ehlert, S. Grimme, ChemRxiv, 2019, preprint.
     DOI: 10.26434/chemrxiv.8326202.v1
   for GFN-FF:
   * S. Spicher and S. Grimme, Angew. Chem. Int. Ed., 2020, 59, 15665-15673.
     DOI: 10.1002/anie.202004239
   
   for ALPB and GBSA implicit solvation:
   * S. Ehlert, M. Stahn, S. Spicher, S. Grimme, J. Chem. Theory Comput.,
     2021, 17, 4250-4261. DOI: 10.1021/acs.jctc.1c00471
   
   for DFT-D4:
   * E. Caldeweyher, C. Bannwarth and S. Grimme, J. Chem. Phys., 2017,
     147, 034112. DOI: 10.1063/1.4993215
   * E. Caldeweyher, S. Ehlert, A. Hansen, H. Neugebauer, S. Spicher,
     C. Bannwarth and S. Grimme, J. Chem. Phys., 2019, 150, 154122.
     DOI: 10.1063/1.5090222
   * E. Caldeweyher, J.-M. Mewes, S. Ehlert and S. Grimme, Phys. Chem. Chem. Phys.
     2020, 22, 8499-8512. DOI: 10.1039/D0CP00502A
   
   for sTDA-xTB:
   * S. Grimme and C. Bannwarth, J. Chem. Phys., 2016, 145, 054103.
     DOI: 10.1063/1.4959605
   
   in the mass-spec context:
   * V. Asgeirsson, C. Bauer and S. Grimme, Chem. Sci., 2017, 8, 4879.
     DOI: 10.1039/c7sc00601b
   * J. Koopman and S. Grimme, ACS Omega 2019, 4, 12, 15120-15133.
     DOI: 10.1021/acsomega.9b02011
   
   for metadynamics refer to:
   * S. Grimme, J. Chem. Theory Comput., 2019, 155, 2847-2862
     DOI: 10.1021/acs.jctc.9b00143
   
   for SPH calculations refer to:
   * S. Spicher and S. Grimme, J. Chem. Theory Comput., 2021, 17, 1701-1714
     DOI: 10.1021/acs.jctc.0c01306
   
   with help from (in alphabetical order)
   P. Atkinson, C. Bannwarth, F. Bohle, G. Brandenburg, E. Caldeweyher
   M. Checinski, S. Dohm, S. Ehlert, S. Ehrlich, I. Gerasimov, C. Hölzer
   A. Katbashev, J. Koopman, C. Lavigne, S. Lehtola, F. März, M. Müller,
   F. Musil, H. Neugebauer, J. Pisarek, C. Plett, P. Pracht, F. Pultar,
   J. Seibert, P. Shushkov, S. Spicher, M. Stahn, M. Steiner, T. Strunk,
   J. Stückrath, T. Rose, and J. Unsleber
   
 * started run on 2023/06/21 at 18:02:52.475     

           -------------------------------------------------
          |                Calculation Setup                |
           -------------------------------------------------

          program call               : /lustre/hpc/kemi/ree/PhD/git/ReactivityQM/dep/xtb-6.5.1/bin/xtb --gfn 1 /lustre/hpc/kemi/ree/PhD/git/ReactivityQM/calculations/R02methylcation/reac01prodN19/conf02/R02methylcation_reac01prodN19_conf02_gfn1.xyz --opt --vfukui --chrg 0 --uhf 0 --alpb DMSO
          hostname                   : node317
          coordinate file            : /lustre/hpc/kemi/ree/PhD/git/ReactivityQM/calculations/R02methylcation/reac01prodN19/conf02/R02methylcation_reac01prodN19_conf02_gfn1.xyz
          omp threads                :                     1

   ID    Z sym.   atoms
    1    6 C      1, 3, 5, 7-10, 12, 14, 17, 18, 21, 23, 24
    2    8 O      2, 4, 13, 19, 22, 25
    3    7 N      6, 11, 15, 16, 20
    4    1 H      26-42

           -------------------------------------------------
          |                 G F N 1 - x T B                 |
           -------------------------------------------------

        Reference                      10.1021/acs.jctc.7b00118
      * Hamiltonian:
        H0-scaling (s, p, d)           1.850000    2.250000    2.000000
        zeta-weighting                 0.000000
      * Dispersion:
        s8                             2.400000
        a1                             0.630000
        a2                             5.000000
        s9                             0.000000
      * Repulsion:
        kExp                           1.500000
        rExp                           1.000000
      * Coulomb:
        alpha                          2.000000
        third order                    atomic
        anisotropic                    false
      * Halogen bond correction:
        rad-scale                      1.300000
        damping                        0.440000

      * Solvation model:               ALPB
        Solvent                        DMSO
        Parameter file                 internal GFN1-xTB/ALPB
        Dielectric constant                4.6680E+01
        Reference state                gsolv [1 M gas/solution]
        Free energy shift                  7.6243E-03 Eh       4.7843E+00 kcal/mol
        Temperature                        2.9815E+02 K
        Density                            1.1000E+00 kg/L
        Solvent mass                       7.8130E+01 g/mol
        Interaction kernel             P16
        Born radius scaling (c1)           1.7672E+00
        Born radii integrator          GBOBC
        Born offset                        0.0000E+00 a0       0.0000E+00 AA
        H-bond correction              true
        Ion screening                  false
        Surface tension                    1.0000E-05 Eh       1.5569E+01 dyn/cm
        Grid points                               230 per atom

          ...................................................
          :                      SETUP                      :
          :.................................................:
          :  # basis functions                 134          :
          :  # atomic orbitals                 134          :
          :  # shells                           84          :
          :  # electrons                       134          :
          :  # halogen bonds                     0          :
          :  max. iterations                   250          :
          :  Hamiltonian                  GFN1-xTB          :
          :  restarted?                      false          :
          :  GBSA solvation                   true          :
          :  PC potential                    false          :
          :  electronic temp.          300.0000000     K    :
          :  accuracy                    1.0000000          :
          :  -> integral cutoff          0.2500000E+02      :
          :  -> integral neglect         0.1000000E-07      :
          :  -> SCF convergence          0.1000000E-05 Eh   :
          :  -> wf. convergence          0.2000000E-04 e    :
          :  Broyden damping             0.4000000          :
          ...................................................

 iter      E             dE          RMSdq      gap      omega  full diag
   1    -83.4015236 -0.834015E+02  0.848E+00    2.74       0.0  T
   2    -83.7196776 -0.318154E+00  0.506E+00    2.00       1.0  T
   3    -83.7092696  0.104080E-01  0.161E+00    2.16       1.0  T
   4    -83.7328585 -0.235888E-01  0.204E-01    2.02       1.0  T
   5    -83.7343147 -0.145618E-02  0.792E-02    2.07       1.0  T
   6    -83.7346280 -0.313298E-03  0.239E-02    2.05       1.0  T
   7    -83.7346517 -0.237794E-04  0.592E-03    2.06       2.6  T
   8    -83.7346522 -0.506488E-06  0.143E-03    2.06      10.8  T
   9    -83.7346523 -0.699545E-07  0.383E-04    2.06      40.3  T
  10    -83.7346523 -0.255648E-08  0.158E-04    2.06      97.6  T
  11    -83.7346523 -0.149555E-09  0.428E-05    2.06     360.2  T

   *** convergence criteria satisfied after 11 iterations ***

         #    Occupation            Energy/Eh            Energy/eV
      -------------------------------------------------------------
         1        2.0000           -0.8664125             -23.5763
       ...           ...                  ...                  ...
        61        2.0000           -0.4717060             -12.8358
        62        2.0000           -0.4692779             -12.7697
        63        2.0000           -0.4612207             -12.5505
        64        2.0000           -0.4499380             -12.2434
        65        2.0000           -0.4479484             -12.1893
        66        2.0000           -0.4196484             -11.4192
        67        2.0000           -0.4139757             -11.2649 (HOMO)
        68                         -0.3384310              -9.2092 (LUMO)
        69                         -0.3240663              -8.8183
        70                         -0.2852829              -7.7629
        71                         -0.2634620              -7.1692
        72                         -0.2463711              -6.7041
       ...                                ...                  ...
       134                          0.6862915              18.6749
      -------------------------------------------------------------
                  HL-Gap            0.0755447 Eh            2.0557 eV
             Fermi-level           -0.3762033 Eh          -10.2370 eV

 SCC (total)                   0 d,  0 h,  0 min,  0.214 sec
 SCC setup                      ...        0 min,  0.002 sec (  0.989%)
 Dispersion                     ...        0 min,  0.000 sec (  0.191%)
 classical contributions        ...        0 min,  0.000 sec (  0.060%)
 integral evaluation            ...        0 min,  0.047 sec ( 21.903%)
 iterations                     ...        0 min,  0.066 sec ( 30.944%)
 molecular gradient             ...        0 min,  0.097 sec ( 45.429%)
 printout                       ...        0 min,  0.001 sec (  0.462%)

         :::::::::::::::::::::::::::::::::::::::::::::::::::::
         ::                     SUMMARY                     ::
         :::::::::::::::::::::::::::::::::::::::::::::::::::::
         :: total energy             -82.975842751708 Eh    ::
         :: total w/o Gsasa/hb       -82.954301984021 Eh    ::
         :: gradient norm              0.114111867756 Eh/a0 ::
         :: HOMO-LUMO gap              2.055675757673 eV    ::
         ::.................................................::
         :: SCC energy               -83.734652317778 Eh    ::
         :: -> electrostatic           0.352357295834 Eh    ::
         :: -> Gsolv                  -0.053394098541 Eh    ::
         ::    -> Gelec               -0.031853330854 Eh    ::
         ::    -> Gsasa               -0.025430903883 Eh    ::
         ::    -> Ghb                 -0.003734142808 Eh    ::
         ::    -> Gshift               0.007624279005 Eh    ::
         :: repulsion energy           0.783867840753 Eh    ::
         :: dispersion energy         -0.025058274683 Eh    ::
         :: halogen bond corr.         0.000000000000 Eh    ::
         :: add. restraining           0.000000000000 Eh    ::
         :: total charge              -0.000000000000 e     ::
         :::::::::::::::::::::::::::::::::::::::::::::::::::::

      ----------------------------------------------------------- 
     |                   =====================                   |
     |                        A N C O P T                        |
     |                   =====================                   |
     |               Approximate Normal Coordinate               |
     |                Rational Function Optimizer                |
      ----------------------------------------------------------- 

          ...................................................
          :                      SETUP                      :
          :.................................................:
          :   optimization level            normal          :
          :   max. optcycles                   200          :
          :   ANC micro-cycles                  20          :
          :   degrees of freedom               120          :
          :.................................................:
          :   RF solver                   davidson          :
          :   write xtbopt.log                true          :
          :   linear?                        false          :
          :   energy convergence         0.5000000E-05 Eh   :
          :   grad. convergence          0.1000000E-02 Eh/α :
          :   maximium RF displ.         1.0000000          :
          :   Hlow (freq-cutoff)         0.1000000E-01      :
          :   Hmax (freq-cutoff)         5.0000000          :
          :   S6 in model hess.         20.0000000          :
          ...................................................

generating ANC from model Hessian ...
Using Lindh-Hessian (1995)
 Shifting diagonal of input Hessian by   9.812125016437577E-003
 Lowest  eigenvalues of input Hessian
    0.000000    0.000000    0.000000    0.000000    0.000000    0.000000
    0.010000    0.010045    0.011011    0.011562    0.011923    0.012247
    0.012908    0.013307    0.013591    0.014562    0.015842    0.016840
 Highest eigenvalues
    2.047256    2.101826    2.215979    2.282660    2.350946    2.361771
 

........................................................................
.............................. CYCLE    1 ..............................
........................................................................
   1    -83.7346523 -0.837347E+02  0.117E-05    2.06       0.0  T
   2    -83.7346523 -0.146372E-11  0.576E-06    2.06    2676.8  T
   3    -83.7346523  0.852651E-13  0.248E-06    2.06    6228.1  T
     SCC iter.                  ...        0 min,  0.011 sec
     gradient                   ...        0 min,  0.080 sec
 * total energy  :   -82.9758428 Eh     change       -0.2104628E-10 Eh
   gradient norm :     0.1141116 Eh/α   predicted     0.0000000E+00 (-100.00%)
   displ. norm   :     0.4320416 α      lambda       -0.2049630E-01
   maximum displ.:     0.1640336 α      in ANC's #9, #29, #18, ...

........................................................................
.............................. CYCLE    2 ..............................
........................................................................
   1    -83.7546762 -0.837547E+02  0.781E-02    2.16       0.0  T
   2    -83.7549146 -0.238346E-03  0.377E-02    2.15       1.0  T
   3    -83.7549638 -0.492216E-04  0.155E-02    2.15       1.0  T
   4    -83.7549642 -0.436113E-06  0.769E-03    2.15       2.0  T
   5    -83.7549653 -0.105139E-05  0.160E-03    2.15       9.6  T
   6    -83.7549653 -0.635169E-07  0.378E-04    2.15      40.8  T
   7    -83.7549653 -0.197150E-08  0.132E-04    2.15     116.9  T
   8    -83.7549653 -0.215309E-09  0.345E-05    2.15     447.5  T
     SCC iter.                  ...        0 min,  0.029 sec
     gradient                   ...        0 min,  0.079 sec
 * total energy  :   -82.9905935 Eh     change       -0.1475077E-01 Eh
   gradient norm :     0.0556238 Eh/α   predicted    -0.1220411E-01 ( -17.26%)
   displ. norm   :     0.4282216 α      lambda       -0.9026552E-02
   maximum displ.:     0.1844775 α      in ANC's #9, #23, #18, ...

........................................................................
.............................. CYCLE    3 ..............................
........................................................................
   1    -83.7671331 -0.837671E+02  0.810E-02    2.24       0.0  T
   2    -83.7673848 -0.251769E-03  0.441E-02    2.22       1.0  T
   3    -83.7674699 -0.850748E-04  0.144E-02    2.23       1.1  T
   4    -83.7674705 -0.603142E-06  0.751E-03    2.23       2.1  T
   5    -83.7674712 -0.731699E-06  0.140E-03    2.23      11.0  T
   6    -83.7674713 -0.354124E-07  0.322E-04    2.23      47.9  T
   7    -83.7674713 -0.168627E-08  0.111E-04    2.23     139.0  T
   8    -83.7674713 -0.151729E-09  0.281E-05    2.23     549.2  T
     SCC iter.                  ...        0 min,  0.031 sec
     gradient                   ...        0 min,  0.069 sec
 * total energy  :   -82.9962679 Eh     change       -0.5674345E-02 Eh
   gradient norm :     0.0205711 Eh/α   predicted    -0.5340895E-02 (  -5.88%)
   displ. norm   :     0.3566454 α      lambda       -0.2369625E-02
   maximum displ.:     0.2034049 α      in ANC's #9, #4, #18, ...

........................................................................
.............................. CYCLE    4 ..............................
........................................................................
   1    -83.7698729 -0.837699E+02  0.240E-02    2.24       0.0  T
   2    -83.7698921 -0.192261E-04  0.116E-02    2.25       1.3  T
   3    -83.7698945 -0.246340E-05  0.560E-03    2.25       2.8  T
   4    -83.7698945  0.432233E-07  0.204E-03    2.25       7.6  T
   5    -83.7698946 -0.130443E-06  0.707E-04    2.25      21.8  T
   6    -83.7698946 -0.113039E-07  0.115E-04    2.25     134.4  T
   7    -83.7698946 -0.295273E-09  0.432E-05    2.25     357.0  T
     SCC iter.                  ...        0 min,  0.019 sec
     gradient                   ...        0 min,  0.044 sec
 * total energy  :   -82.9980318 Eh     change       -0.1763887E-02 Eh
   gradient norm :     0.0155393 Eh/α   predicted    -0.1335532E-02 ( -24.28%)
   displ. norm   :     0.4045819 α      lambda       -0.1665863E-02
   maximum displ.:     0.2332724 α      in ANC's #9, #4, #6, ...

........................................................................
.............................. CYCLE    5 ..............................
........................................................................
   1    -83.7712408 -0.837712E+02  0.178E-02    2.25       0.0  T
   2    -83.7712509 -0.100549E-04  0.930E-03    2.25       1.7  T
   3    -83.7712520 -0.112229E-05  0.462E-03    2.25       3.3  T
   4    -83.7712520  0.866926E-08  0.203E-03    2.25       7.6  T
   5    -83.7712521 -0.916891E-07  0.482E-04    2.25      32.0  T
   6    -83.7712521 -0.706815E-08  0.108E-04    2.25     142.4  T
   7    -83.7712521 -0.345324E-09  0.345E-05    2.25     447.4  T
     SCC iter.                  ...        0 min,  0.018 sec
     gradient                   ...        0 min,  0.043 sec
 * total energy  :   -82.9991989 Eh     change       -0.1167149E-02 Eh
   gradient norm :     0.0110442 Eh/α   predicted    -0.9692765E-03 ( -16.95%)
   displ. norm   :     0.3333185 α      lambda       -0.7432372E-03
   maximum displ.:     0.1856679 α      in ANC's #9, #4, #6, ...

........................................................................
.............................. CYCLE    6 ..............................
........................................................................
   1    -83.7723234 -0.837723E+02  0.107E-02    2.25       0.0  T
   2    -83.7723272 -0.381789E-05  0.557E-03    2.25       2.8  T
   3    -83.7723277 -0.486904E-06  0.289E-03    2.25       5.3  T
   4    -83.7723277 -0.111105E-07  0.136E-03    2.25      11.3  T
   5    -83.7723277 -0.399503E-07  0.272E-04    2.25      56.8  T
   6    -83.7723277 -0.194599E-08  0.763E-05    2.25     202.2  T
   7    -83.7723277 -0.119527E-09  0.233E-05    2.25     663.0  T
     SCC iter.                  ...        0 min,  0.025 sec
     gradient                   ...        0 min,  0.077 sec
 * total energy  :   -82.9997308 Eh     change       -0.5319014E-03 Eh
   gradient norm :     0.0090828 Eh/α   predicted    -0.4129069E-03 ( -22.37%)
   displ. norm   :     0.3018015 α      lambda       -0.4490596E-03
   maximum displ.:     0.1491738 α      in ANC's #9, #4, #6, ...

........................................................................
.............................. CYCLE    7 ..............................
........................................................................
   1    -83.7737307 -0.837737E+02  0.897E-03    2.25       0.0  T
   2    -83.7737339 -0.317913E-05  0.472E-03    2.25       3.3  T
   3    -83.7737342 -0.299057E-06  0.251E-03    2.25       6.1  T
   4    -83.7737342  0.398428E-08  0.901E-04    2.25      17.1  T
   5    -83.7737342 -0.152001E-07  0.258E-04    2.25      59.9  T
   6    -83.7737342 -0.254018E-08  0.672E-05    2.25     229.7  T
   7    -83.7737342 -0.667200E-10  0.220E-05    2.25     702.3  T
     SCC iter.                  ...        0 min,  0.021 sec
     gradient                   ...        0 min,  0.091 sec
 * total energy  :   -83.0000584 Eh     change       -0.3275580E-03 Eh
   gradient norm :     0.0071406 Eh/α   predicted    -0.2449816E-03 ( -25.21%)
   displ. norm   :     0.2793882 α      lambda       -0.3085308E-03
   maximum displ.:     0.1336569 α      in ANC's #4, #9, #5, ...

........................................................................
.............................. CYCLE    8 ..............................
........................................................................
   1    -83.7749570 -0.837750E+02  0.879E-03    2.25       0.0  T
   2    -83.7749601 -0.307689E-05  0.451E-03    2.25       3.4  T
   3    -83.7749604 -0.266540E-06  0.234E-03    2.25       6.6  T
   4    -83.7749604 -0.444004E-08  0.719E-04    2.25      21.5  T
   5    -83.7749604 -0.413733E-08  0.156E-04    2.25      99.1  T
   6    -83.7749604 -0.504755E-09  0.627E-05    2.25     246.0  T
     SCC iter.                  ...        0 min,  0.023 sec
     gradient                   ...        0 min,  0.080 sec
 * total energy  :   -83.0002762 Eh     change       -0.2178512E-03 Eh
   gradient norm :     0.0053712 Eh/α   predicted    -0.1663081E-03 ( -23.66%)
   displ. norm   :     0.2102207 α      lambda       -0.1695403E-03
   maximum displ.:     0.0971870 α      in ANC's #4, #5, #7, ...

........................................................................
.............................. CYCLE    9 ..............................
........................................................................
   1    -83.7756632 -0.837757E+02  0.661E-03    2.26       0.0  T
   2    -83.7756647 -0.147558E-05  0.285E-03    2.25       5.4  T
   3    -83.7756648 -0.113237E-06  0.154E-03    2.25      10.0  T
   4    -83.7756648 -0.341272E-08  0.580E-04    2.25      26.6  T
   5    -83.7756648 -0.587329E-08  0.189E-04    2.25      81.7  T
   6    -83.7756648 -0.102416E-08  0.517E-05    2.25     298.5  T
     SCC iter.                  ...        0 min,  0.022 sec
     gradient                   ...        0 min,  0.081 sec
 * total energy  :   -83.0003938 Eh     change       -0.1175804E-03 Eh
   gradient norm :     0.0042469 Eh/α   predicted    -0.8852022E-04 ( -24.72%)
   displ. norm   :     0.1502978 α      lambda       -0.9230596E-04
   maximum displ.:     0.0668164 α      in ANC's #7, #2, #4, ...

........................................................................
.............................. CYCLE   10 ..............................
........................................................................
   1    -83.7758616 -0.837759E+02  0.474E-03    2.26       0.0  T
   2    -83.7758624 -0.794477E-06  0.198E-03    2.26       7.8  T
   3    -83.7758625 -0.120701E-06  0.107E-03    2.26      14.4  T
   4    -83.7758626 -0.137440E-07  0.521E-04    2.26      29.6  T
   5    -83.7758626 -0.180772E-08  0.133E-04    2.26     116.4  T
   6    -83.7758626 -0.382343E-09  0.323E-05    2.26     478.0  T
     SCC iter.                  ...        0 min,  0.022 sec
     gradient                   ...        0 min,  0.081 sec
 * total energy  :   -83.0004588 Eh     change       -0.6505362E-04 Eh
   gradient norm :     0.0034139 Eh/α   predicted    -0.4719602E-04 ( -27.45%)
   displ. norm   :     0.1241184 α      lambda       -0.6125990E-04
   maximum displ.:     0.0687640 α      in ANC's #2, #7, #1, ...

........................................................................
.............................. CYCLE   11 ..............................
........................................................................
   1    -83.7757184 -0.837757E+02  0.414E-03    2.26       0.0  T
   2    -83.7757191 -0.713911E-06  0.240E-03    2.26       6.4  T
   3    -83.7757193 -0.185929E-06  0.103E-03    2.26      15.0  T
   4    -83.7757193 -0.508493E-09  0.543E-04    2.26      28.4  T
   5    -83.7757193 -0.306781E-08  0.110E-04    2.26     140.1  T
   6    -83.7757193 -0.407482E-09  0.194E-05    2.26     793.5  T
     SCC iter.                  ...        0 min,  0.022 sec
     gradient                   ...        0 min,  0.081 sec
 * total energy  :   -83.0005022 Eh     change       -0.4339757E-04 Eh
   gradient norm :     0.0026864 Eh/α   predicted    -0.3110370E-04 ( -28.33%)
   displ. norm   :     0.1028091 α      lambda       -0.4234238E-04
   maximum displ.:     0.0651596 α      in ANC's #2, #7, #1, ...

........................................................................
.............................. CYCLE   12 ..............................
........................................................................
   1    -83.7756108 -0.837756E+02  0.368E-03    2.26       0.0  T
   2    -83.7756113 -0.547856E-06  0.219E-03    2.26       7.0  T
   3    -83.7756115 -0.121118E-06  0.971E-04    2.26      15.9  T
   4    -83.7756115  0.216276E-08  0.499E-04    2.26      30.9  T
   5    -83.7756115 -0.421269E-08  0.101E-04    2.26     152.4  T
   6    -83.7756115 -0.364324E-09  0.161E-05    2.26     960.6  T
     SCC iter.                  ...        0 min,  0.023 sec
     gradient                   ...        0 min,  0.081 sec
 * total energy  :   -83.0005338 Eh     change       -0.3154503E-04 Eh
   gradient norm :     0.0022690 Eh/α   predicted    -0.2140740E-04 ( -32.14%)
   displ. norm   :     0.1019437 α      lambda       -0.3607403E-04
   maximum displ.:     0.0679723 α      in ANC's #2, #1, #7, ...

........................................................................
.............................. CYCLE   13 ..............................
........................................................................
   1    -83.7754806 -0.837755E+02  0.298E-03    2.26       0.0  T
   2    -83.7754809 -0.287698E-06  0.150E-03    2.26      10.3  T
   3    -83.7754809 -0.321507E-07  0.723E-04    2.26      21.3  T
   4    -83.7754809  0.474998E-09  0.358E-04    2.26      43.1  T
   5    -83.7754809 -0.239807E-08  0.828E-05    2.26     186.4  T
   6    -83.7754809 -0.246814E-09  0.187E-05    2.26     825.3  T
     SCC iter.                  ...        0 min,  0.023 sec
     gradient                   ...        0 min,  0.081 sec
 * total energy  :   -83.0005621 Eh     change       -0.2833317E-04 Eh
   gradient norm :     0.0022470 Eh/α   predicted    -0.1822500E-04 ( -35.68%)
   displ. norm   :     0.1187003 α      lambda       -0.3743076E-04
   maximum displ.:     0.0794216 α      in ANC's #2, #1, #7, ...

........................................................................
.............................. CYCLE   14 ..............................
........................................................................
   1    -83.7754731 -0.837755E+02  0.253E-03    2.26       0.0  T
   2    -83.7754733 -0.207994E-06  0.875E-04    2.26      17.6  T
   3    -83.7754733 -0.107348E-07  0.490E-04    2.26      31.5  T
   4    -83.7754733 -0.105470E-08  0.229E-04    2.26      67.4  T
   5    -83.7754733 -0.634813E-09  0.721E-05    2.26     213.9  T
   6    -83.7754733 -0.131507E-09  0.199E-05    2.26     776.7  T
     SCC iter.                  ...        0 min,  0.022 sec
     gradient                   ...        0 min,  0.081 sec
 * total energy  :   -83.0005931 Eh     change       -0.3094447E-04 Eh
   gradient norm :     0.0024707 Eh/α   predicted    -0.1898032E-04 ( -38.66%)
   displ. norm   :     0.1638193 α      lambda       -0.4787131E-04
   maximum displ.:     0.1090479 α      in ANC's #2, #1, #7, ...

........................................................................
.............................. CYCLE   15 ..............................
........................................................................
   1    -83.7754136 -0.837754E+02  0.267E-03    2.26       0.0  T
   2    -83.7754139 -0.298586E-06  0.105E-03    2.26      14.7  T
   3    -83.7754139 -0.337892E-07  0.540E-04    2.26      28.6  T
   4    -83.7754139 -0.460314E-08  0.268E-04    2.26      57.5  T
   5    -83.7754139 -0.307864E-09  0.871E-05    2.26     177.2  T
   6    -83.7754139 -0.156930E-09  0.210E-05    2.26     736.0  T
     SCC iter.                  ...        0 min,  0.022 sec
     gradient                   ...        0 min,  0.081 sec
 * total energy  :   -83.0006334 Eh     change       -0.4033375E-04 Eh
   gradient norm :     0.0027973 Eh/α   predicted    -0.2458061E-04 ( -39.06%)
   displ. norm   :     0.2303915 α      lambda       -0.6222040E-04
   maximum displ.:     0.1535130 α      in ANC's #2, #1, #7, ...

........................................................................
.............................. CYCLE   16 ..............................
........................................................................
   1    -83.7753465 -0.837753E+02  0.284E-03    2.26       0.0  T
   2    -83.7753469 -0.366102E-06  0.145E-03    2.26      10.6  T
   3    -83.7753469 -0.599390E-07  0.612E-04    2.26      25.2  T
   4    -83.7753469 -0.149403E-08  0.328E-04    2.26      47.1  T
   5    -83.7753469 -0.115162E-08  0.101E-04    2.26     152.5  T
   6    -83.7753469 -0.228368E-09  0.210E-05    2.26     734.1  T
     SCC iter.                  ...        0 min,  0.022 sec
     gradient                   ...        0 min,  0.080 sec
 * total energy  :   -83.0006838 Eh     change       -0.5040735E-04 Eh
   gradient norm :     0.0031450 Eh/α   predicted    -0.3276517E-04 ( -35.00%)
   displ. norm   :     0.2638238 α      lambda       -0.6579725E-04
   maximum displ.:     0.1782238 α      in ANC's #2, #1, #3, ...

........................................................................
.............................. CYCLE   17 ..............................
........................................................................
   1    -83.7754193 -0.837754E+02  0.243E-03    2.26       0.0  T
   2    -83.7754195 -0.223415E-06  0.145E-03    2.26      10.6  T
   3    -83.7754195 -0.387183E-07  0.697E-04    2.26      22.1  T
   4    -83.7754195  0.712461E-09  0.306E-04    2.26      50.5  T
   5    -83.7754195 -0.171920E-08  0.839E-05    2.26     184.0  T
   6    -83.7754195 -0.226635E-09  0.169E-05    2.26     912.5  T
     SCC iter.                  ...        0 min,  0.023 sec
     gradient                   ...        0 min,  0.080 sec
 * total energy  :   -83.0007378 Eh     change       -0.5394834E-04 Eh
   gradient norm :     0.0031447 Eh/α   predicted    -0.3519315E-04 ( -34.77%)
   displ. norm   :     0.3130868 α      lambda       -0.7187408E-04
   maximum displ.:     0.2129589 α      in ANC's #2, #1, #3, ...

........................................................................
.............................. CYCLE   18 ..............................
........................................................................
   1    -83.7752913 -0.837753E+02  0.252E-03    2.26       0.0  T
   2    -83.7752914 -0.178560E-06  0.124E-03    2.26      12.4  T
   3    -83.7752915 -0.166500E-07  0.630E-04    2.26      24.5  T
   4    -83.7752915 -0.461810E-09  0.205E-04    2.26      75.4  T
   5    -83.7752915 -0.348564E-09  0.405E-05    2.26     381.3  T
   6    -83.7752915 -0.190994E-10  0.161E-05    2.26     957.7  T
     SCC iter.                  ...        0 min,  0.022 sec
     gradient                   ...        0 min,  0.080 sec
 * total energy  :   -83.0007971 Eh     change       -0.5930791E-04 Eh
   gradient norm :     0.0030735 Eh/α   predicted    -0.3946191E-04 ( -33.46%)
   displ. norm   :     0.3785540 α      lambda       -0.8234128E-04
   maximum displ.:     0.2607505 α      in ANC's #2, #1, #3, ...

........................................................................
.............................. CYCLE   19 ..............................
........................................................................
   1    -83.7755980 -0.837756E+02  0.304E-03    2.26       0.0  T
   2    -83.7755982 -0.220879E-06  0.143E-03    2.26      10.8  T
   3    -83.7755982 -0.872440E-08  0.865E-04    2.26      17.8  T
   4    -83.7755982 -0.506360E-08  0.339E-04    2.26      45.5  T
   5    -83.7755982 -0.283904E-08  0.597E-05    2.26     258.4  T
   6    -83.7755982 -0.742801E-10  0.177E-05    2.26     873.1  T
     SCC iter.                  ...        0 min,  0.021 sec
     gradient                   ...        0 min,  0.080 sec
 * total energy  :   -83.0008607 Eh     change       -0.6365121E-04 Eh
   gradient norm :     0.0028524 Eh/α   predicted    -0.4707171E-04 ( -26.05%)
   displ. norm   :     0.3862475 α      lambda       -0.6350476E-04
   maximum displ.:     0.2656444 α      in ANC's #2, #1, #3, ...

........................................................................
.............................. CYCLE   20 ..............................
........................................................................
   1    -83.7744704 -0.837745E+02  0.396E-03    2.26       0.0  T
   2    -83.7744707 -0.347901E-06  0.166E-03    2.26       9.3  T
   3    -83.7744708 -0.377296E-07  0.102E-03    2.26      15.1  T
   4    -83.7744708 -0.113343E-07  0.363E-04    2.26      42.5  T
   5    -83.7744708 -0.163409E-08  0.102E-04    2.26     151.0  T
   6    -83.7744708 -0.310095E-09  0.274E-05    2.26     563.4  T
     SCC iter.                  ...        0 min,  0.021 sec
     gradient                   ...        0 min,  0.080 sec
 * total energy  :   -83.0009044 Eh     change       -0.4372794E-04 Eh
   gradient norm :     0.0040541 Eh/α   predicted    -0.3649120E-04 ( -16.55%)
   displ. norm   :     0.3840746 α      lambda       -0.1000816E-03
   maximum displ.:     0.2663319 α      in ANC's #2, #1, #3, ...
 * RMSD in coord.:     0.5795841 α      energy gain  -0.2506169E-01 Eh

generating ANC from model Hessian ...
Using Lindh-Hessian (1995)
 Shifting diagonal of input Hessian by   9.805242060328356E-003
 Lowest  eigenvalues of input Hessian
    0.000000    0.000000    0.000000    0.000000    0.000000    0.000000
    0.010000    0.010126    0.010917    0.011509    0.011791    0.012228
    0.012898    0.013611    0.013947    0.014827    0.016034    0.017137
 Highest eigenvalues
    2.066740    2.140244    2.259850    2.320203    2.398868    2.420235
 

........................................................................
.............................. CYCLE   21 ..............................
........................................................................
   1    -83.7775079 -0.837775E+02  0.822E-03    2.26       0.0  T
   2    -83.7775091 -0.127222E-05  0.390E-03    2.26       4.0  T
   3    -83.7775092 -0.977033E-07  0.214E-03    2.26       7.2  T
   4    -83.7775093 -0.214664E-07  0.510E-04    2.26      30.2  T
   5    -83.7775093 -0.346701E-08  0.182E-04    2.26      84.6  T
   6    -83.7775093 -0.141871E-08  0.390E-05    2.26     395.6  T
     SCC iter.                  ...        0 min,  0.022 sec
     gradient                   ...        0 min,  0.081 sec
 * total energy  :   -83.0009381 Eh     change       -0.3370383E-04 Eh
   gradient norm :     0.0048907 Eh/α   predicted     0.0000000E+00 (-100.00%)
   displ. norm   :     0.0271625 α      lambda       -0.3825585E-04
   maximum displ.:     0.0125629 α      in ANC's #9, #3, #7, ...

........................................................................
.............................. CYCLE   22 ..............................
........................................................................
   1    -83.7764098 -0.837764E+02  0.379E-03    2.26       0.0  T
   2    -83.7764101 -0.355341E-06  0.184E-03    2.26       8.4  T
   3    -83.7764101 -0.208621E-07  0.111E-03    2.26      13.9  T
   4    -83.7764101 -0.101639E-07  0.371E-04    2.26      41.6  T
   5    -83.7764102 -0.247023E-08  0.827E-05    2.26     186.5  T
   6    -83.7764102 -0.330488E-09  0.168E-05    2.26     918.4  T
     SCC iter.                  ...        0 min,  0.023 sec
     gradient                   ...        0 min,  0.081 sec
 * total energy  :   -83.0009683 Eh     change       -0.3020279E-04 Eh
   gradient norm :     0.0019783 Eh/α   predicted    -0.2102659E-04 ( -30.38%)
   displ. norm   :     0.0712263 α      lambda       -0.2666190E-04
   maximum displ.:     0.0336512 α      in ANC's #9, #3, #7, ...

........................................................................
.............................. CYCLE   23 ..............................
........................................................................
   1    -83.7753892 -0.837754E+02  0.508E-03    2.26       0.0  T
   2    -83.7753901 -0.864721E-06  0.239E-03    2.26       6.4  T
   3    -83.7753902 -0.831433E-07  0.148E-03    2.26      10.4  T
   4    -83.7753902 -0.215221E-07  0.590E-04    2.26      26.1  T
   5    -83.7753902 -0.307995E-08  0.918E-05    2.26     168.1  T
   6    -83.7753902 -0.379288E-09  0.223E-05    2.26     692.7  T
     SCC iter.                  ...        0 min,  0.022 sec
     gradient                   ...        0 min,  0.081 sec
 * total energy  :   -83.0009889 Eh     change       -0.2053937E-04 Eh
   gradient norm :     0.0024125 Eh/α   predicted    -0.1336133E-04 ( -34.95%)
   displ. norm   :     0.0313564 α      lambda       -0.1087727E-04
   maximum displ.:     0.0154346 α      in ANC's #3, #9, #1, ...

........................................................................
.............................. CYCLE   24 ..............................
........................................................................
   1    -83.7756436 -0.837756E+02  0.110E-03    2.26       0.0  T
   2    -83.7756436 -0.300641E-07  0.470E-04    2.26      32.8  T
   3    -83.7756436 -0.659033E-08  0.256E-04    2.26      60.3  T
   4    -83.7756436 -0.572896E-09  0.959E-05    2.26     160.9  T
   5    -83.7756436 -0.152269E-09  0.263E-05    2.26     586.5  T
     SCC iter.                  ...        0 min,  0.019 sec
     gradient                   ...        0 min,  0.081 sec
 * total energy  :   -83.0009989 Eh     change       -0.1001017E-04 Eh
   gradient norm :     0.0019446 Eh/α   predicted    -0.5500028E-05 ( -45.06%)
   displ. norm   :     0.2364941 α      lambda       -0.4690907E-04
   maximum displ.:     0.1130663 α      in ANC's #3, #9, #1, ...

........................................................................
.............................. CYCLE   25 ..............................
........................................................................
   1    -83.7765841 -0.837766E+02  0.554E-03    2.27       0.0  T
   2    -83.7765848 -0.755894E-06  0.247E-03    2.27       6.3  T
   3    -83.7765850 -0.218298E-06  0.129E-03    2.27      11.9  T
   4    -83.7765850 -0.194795E-07  0.472E-04    2.27      32.7  T
   5    -83.7765851 -0.286184E-08  0.134E-04    2.27     115.0  T
   6    -83.7765851 -0.285482E-09  0.357E-05    2.27     432.6  T
     SCC iter.                  ...        0 min,  0.023 sec
     gradient                   ...        0 min,  0.081 sec
 * total energy  :   -83.0010352 Eh     change       -0.3625976E-04 Eh
   gradient norm :     0.0024067 Eh/α   predicted    -0.2403942E-04 ( -33.70%)
   displ. norm   :     0.0487964 α      lambda       -0.1180977E-04
   maximum displ.:     0.0218012 α      in ANC's #3, #1, #2, ...

........................................................................
.............................. CYCLE   26 ..............................
........................................................................
   1    -83.7766497 -0.837766E+02  0.871E-04    2.27       0.0  T
   2    -83.7766497 -0.298009E-07  0.346E-04    2.27      44.6  T
   3    -83.7766497 -0.264274E-08  0.185E-04    2.27      83.6  T
   4    -83.7766497 -0.250523E-09  0.894E-05    2.27     172.5  T
     SCC iter.                  ...        0 min,  0.016 sec
     gradient                   ...        0 min,  0.081 sec
 * total energy  :   -83.0010459 Eh     change       -0.1075942E-04 Eh
   gradient norm :     0.0018481 Eh/α   predicted    -0.5938191E-05 ( -44.81%)
   displ. norm   :     0.2854504 α      lambda       -0.4434092E-04
   maximum displ.:     0.1304220 α      in ANC's #1, #3, #2, ...

........................................................................
.............................. CYCLE   27 ..............................
........................................................................
   1    -83.7758635 -0.837759E+02  0.671E-03    2.26       0.0  T
   2    -83.7758651 -0.155317E-05  0.281E-03    2.26       5.5  T
   3    -83.7758653 -0.202631E-06  0.147E-03    2.26      10.5  T
   4    -83.7758653 -0.122262E-07  0.645E-04    2.26      23.9  T
   5    -83.7758653 -0.513363E-08  0.188E-04    2.26      81.9  T
   6    -83.7758653 -0.110066E-08  0.360E-05    2.26     429.2  T
     SCC iter.                  ...        0 min,  0.023 sec
     gradient                   ...        0 min,  0.080 sec
 * total energy  :   -83.0010717 Eh     change       -0.2575245E-04 Eh
   gradient norm :     0.0027711 Eh/α   predicted    -0.2299016E-04 ( -10.73%)
   displ. norm   :     0.0430179 α      lambda       -0.1193608E-04
   maximum displ.:     0.0195407 α      in ANC's #3, #9, #12, ...

........................................................................
.............................. CYCLE   28 ..............................
........................................................................
   1    -83.7764510 -0.837765E+02  0.204E-03    2.26       0.0  T
   2    -83.7764511 -0.142205E-06  0.108E-03    2.26      14.3  T
   3    -83.7764511 -0.171074E-07  0.602E-04    2.26      25.6  T
   4    -83.7764511 -0.363016E-09  0.220E-04    2.26      70.0  T
   5    -83.7764511 -0.115621E-08  0.595E-05    2.26     259.4  T
   6    -83.7764511 -0.166708E-09  0.756E-06    2.26    2041.0  T
     SCC iter.                  ...        0 min,  0.022 sec
     gradient                   ...        0 min,  0.080 sec
 * total energy  :   -83.0010800 Eh     change       -0.8295907E-05 Eh
   gradient norm :     0.0017177 Eh/α   predicted    -0.5985834E-05 ( -27.85%)
   displ. norm   :     0.0476916 α      lambda       -0.1080912E-04
   maximum displ.:     0.0239173 α      in ANC's #1, #9, #7, ...

........................................................................
.............................. CYCLE   29 ..............................
........................................................................
   1    -83.7767198 -0.837767E+02  0.293E-03    2.26       0.0  T
   2    -83.7767201 -0.332261E-06  0.126E-03    2.26      12.3  T
   3    -83.7767201 -0.172713E-07  0.695E-04    2.26      22.2  T
   4    -83.7767201 -0.459053E-09  0.223E-04    2.26      69.1  T
   5    -83.7767201 -0.268017E-09  0.326E-05    2.26     472.9  T
   6    -83.7767201 -0.246132E-10  0.134E-05    2.26    1151.7  T
     SCC iter.                  ...        0 min,  0.022 sec
     gradient                   ...        0 min,  0.081 sec
 * total energy  :   -83.0010899 Eh     change       -0.9915094E-05 Eh
   gradient norm :     0.0009193 Eh/α   predicted    -0.5411168E-05 ( -45.42%)
   displ. norm   :     0.0719162 α      lambda       -0.6445079E-05
   maximum displ.:     0.0439614 α      in ANC's #1, #2, #3, ...

........................................................................
.............................. CYCLE   30 ..............................
........................................................................
   1    -83.7766691 -0.837767E+02  0.866E-04    2.26       0.0  T
   2    -83.7766691 -0.262990E-07  0.413E-04    2.26      37.4  T
   3    -83.7766691 -0.329516E-08  0.217E-04    2.26      71.2  T
   4    -83.7766691 -0.130058E-09  0.104E-04    2.26     148.0  T
   5    -83.7766691 -0.186702E-09  0.219E-05    2.26     705.0  T
     SCC iter.                  ...        0 min,  0.018 sec
     gradient                   ...        0 min,  0.080 sec
 * total energy  :   -83.0010978 Eh     change       -0.7942785E-05 Eh
   gradient norm :     0.0010129 Eh/α   predicted    -0.3230287E-05 ( -59.33%)
   displ. norm   :     0.1293140 α      lambda       -0.9489833E-05
   maximum displ.:     0.0784011 α      in ANC's #1, #2, #3, ...

........................................................................
.............................. CYCLE   31 ..............................
........................................................................
   1    -83.7762445 -0.837762E+02  0.151E-03    2.26       0.0  T
   2    -83.7762446 -0.820728E-07  0.837E-04    2.26      18.4  T
   3    -83.7762446 -0.189385E-07  0.430E-04    2.26      35.9  T
   4    -83.7762447 -0.127856E-08  0.177E-04    2.26      87.3  T
   5    -83.7762447 -0.278362E-09  0.271E-05    2.26     569.9  T
     SCC iter.                  ...        0 min,  0.018 sec
     gradient                   ...        0 min,  0.078 sec
 * total energy  :   -83.0011077 Eh     change       -0.9918566E-05 Eh
   gradient norm :     0.0010685 Eh/α   predicted    -0.4782408E-05 ( -51.78%)
   displ. norm   :     0.1080487 α      lambda       -0.6818052E-05
   maximum displ.:     0.0691420 α      in ANC's #1, #2, #3, ...

........................................................................
.............................. CYCLE   32 ..............................
........................................................................
   1    -83.7762948 -0.837763E+02  0.118E-03    2.26       0.0  T
   2    -83.7762949 -0.690187E-07  0.479E-04    2.26      32.2  T
   3    -83.7762949 -0.616220E-08  0.266E-04    2.26      58.0  T
   4    -83.7762949 -0.664897E-09  0.142E-04    2.26     108.3  T
   5    -83.7762949 -0.204665E-09  0.251E-05    2.26     615.0  T
     SCC iter.                  ...        0 min,  0.018 sec
     gradient                   ...        0 min,  0.058 sec
 * total energy  :   -83.0011147 Eh     change       -0.7002414E-05 Eh
   gradient norm :     0.0008295 Eh/α   predicted    -0.3428954E-05 ( -51.03%)
   displ. norm   :     0.0798130 α      lambda       -0.4724173E-05
   maximum displ.:     0.0532990 α      in ANC's #1, #2, #3, ...

........................................................................
.............................. CYCLE   33 ..............................
........................................................................
   1    -83.7764379 -0.837764E+02  0.736E-04    2.26       0.0  T
   2    -83.7764380 -0.147176E-07  0.356E-04    2.26      43.4  T
   3    -83.7764380 -0.255824E-08  0.211E-04    2.26      73.1  T
   4    -83.7764380 -0.520785E-09  0.715E-05    2.26     215.8  T
   5    -83.7764380 -0.698037E-10  0.241E-05    2.26     639.5  T
     SCC iter.                  ...        0 min,  0.018 sec
     gradient                   ...        0 min,  0.080 sec
 * total energy  :   -83.0011208 Eh     change       -0.6027695E-05 Eh
   gradient norm :     0.0005827 Eh/α   predicted    -0.2373008E-05 ( -60.63%)
   displ. norm   :     0.0981497 α      lambda       -0.5759797E-05
   maximum displ.:     0.0665195 α      in ANC's #1, #2, #3, ...

........................................................................
.............................. CYCLE   34 ..............................
........................................................................
   1    -83.7765889 -0.837766E+02  0.938E-04    2.26       0.0  T
   2    -83.7765889 -0.205109E-07  0.411E-04    2.26      37.5  T
   3    -83.7765889 -0.114113E-08  0.213E-04    2.26      72.3  T
   4    -83.7765889 -0.130029E-09  0.711E-05    2.26     217.1  T
   5    -83.7765889 -0.788134E-10  0.216E-05    2.26     713.1  T
     SCC iter.                  ...        0 min,  0.018 sec
     gradient                   ...        0 min,  0.079 sec
 * total energy  :   -83.0011277 Eh     change       -0.6882579E-05 Eh
   gradient norm :     0.0004379 Eh/α   predicted    -0.2894980E-05 ( -57.94%)
   displ. norm   :     0.0858848 α      lambda       -0.4166351E-05
   maximum displ.:     0.0602036 α      in ANC's #1, #2, #7, ...

........................................................................
.............................. CYCLE   35 ..............................
........................................................................
   1    -83.7766919 -0.837767E+02  0.866E-04    2.26       0.0  T
   2    -83.7766919 -0.190033E-07  0.386E-04    2.26      40.0  T
   3    -83.7766919 -0.447427E-08  0.189E-04    2.26      81.7  T
   4    -83.7766919 -0.476930E-09  0.761E-05    2.26     202.8  T
     SCC iter.                  ...        0 min,  0.014 sec
     gradient                   ...        0 min,  0.079 sec
 * total energy  :   -83.0011327 Eh     change       -0.5052010E-05 Eh
   gradient norm :     0.0004128 Eh/α   predicted    -0.2093248E-05 ( -58.57%)
   displ. norm   :     0.0754992 α      lambda       -0.3660306E-05
   maximum displ.:     0.0534259 α      in ANC's #1, #2, #7, ...

........................................................................
.............................. CYCLE   36 ..............................
........................................................................
   1    -83.7767230 -0.837767E+02  0.747E-04    2.26       0.0  T
   2    -83.7767230 -0.141141E-07  0.328E-04    2.26      47.0  T
   3    -83.7767231 -0.555750E-08  0.143E-04    2.26     107.7  T
   4    -83.7767231 -0.445951E-09  0.501E-05    2.26     308.1  T
     SCC iter.                  ...        0 min,  0.014 sec
     gradient                   ...        0 min,  0.079 sec
 * total energy  :   -83.0011376 Eh     change       -0.4843950E-05 Eh
   gradient norm :     0.0004258 Eh/α   predicted    -0.1836176E-05 ( -62.09%)
   displ. norm   :     0.0900527 α      lambda       -0.4959728E-05
   maximum displ.:     0.0629098 α      in ANC's #1, #2, #7, ...

   *** GEOMETRY OPTIMIZATION CONVERGED AFTER 36 ITERATIONS ***

------------------------------------------------------------------------
 total energy gain   :        -0.0252948 Eh      -15.8727 kcal/mol
 total RMSD          :         0.6911098 a0        0.3657 Å
 total power (kW/mol):        -1.8447635 (step)  -13.4187 (real)
------------------------------------------------------------------------

 ANCopt (total)                0 d,  0 h,  0 min,  4.949 sec
 optimizer setup                ...        0 min,  0.001 sec (  0.017%)
 model hessian                  ...        0 min,  0.044 sec (  0.891%)
 ANC generation                 ...        0 min,  0.005 sec (  0.096%)
 coordinate transformation      ...        0 min,  0.001 sec (  0.025%)
 single point calculation       ...        0 min,  4.878 sec ( 98.558%)
 optimization log               ...        0 min,  0.010 sec (  0.210%)
 hessian update                 ...        0 min,  0.001 sec (  0.023%)
 rational function              ...        0 min,  0.005 sec (  0.107%)

================
 final structure:
================
42
 xtb: 6.5.1 (579679a)
C            5.42726384757573       -1.82174935373438       -1.74252359903220
O            4.23072565785423       -1.33441156195166       -1.13579256995490
C            4.22723667868932       -0.02853958540689       -0.80616383037057
O            5.18269327005674        0.68794781748058       -1.01038178937030
C            2.94860218920666        0.38288887379181       -0.18501038067934
N            2.02438833610934       -0.59488305620065       -0.05020030080539
C            0.87090881462795       -0.36222303716740        0.48937834398593
C           -0.13534104702051       -1.48357843109599        0.66578381655888
C           -0.36587893632910       -1.76838532091082        2.15639053441093
C            0.39272447848304       -2.73740380613973       -0.03341254138956
N           -1.40995518684823       -1.13635348735428        0.01501162558566
C           -2.29753271900232       -0.22847845575502        0.45975741706486
O           -2.12126209247566        0.54564423415007        1.39180046572677
C           -3.53890242332671       -0.24900643758634       -0.34773935389549
N           -3.76290577517718       -0.98911087795426       -1.39218216758291
N           -5.01984602978394       -0.69260691238453       -1.82050397335900
C           -5.48503194649247        0.20969599979274       -1.00891128999617
C           -6.81511028044670        0.85562460711012       -1.04085165264443
O           -4.59471237191893        0.53244360492505       -0.06020325122633
N            0.56782690312473        0.89352807819902        0.94679766305525
C            1.40129404301538        1.91979024885885        0.83963088885230
O            0.91118401930845        3.05319227647721        1.31687530949600
C            1.65121119596279        4.28007576588469        1.29084102221725
C            2.72870753617018        1.73295080626598        0.23800167367695
O            3.52869927924923        2.67391137417850        0.13244545155690
H            6.27957545790314       -1.67539506479242       -1.07322499728997
H            5.61555374285096       -1.29796886200007       -2.68372043374469
H            5.27483006030417       -2.88308795382661       -1.92867066600623
H           -0.72346972952879       -0.88201534363432        2.67511907822747
H            0.57146532756200       -2.08724521559672        2.60945570785345
H           -1.10220048023627       -2.56259639417813        2.26517991252674
H           -0.31923639121876       -3.55275860861570        0.07694218744830
H            0.55413439678153       -2.53946393530369       -1.09207116567497
H            1.34177192845170       -3.03083025710411        0.41247469576273
H           -1.69952405414996       -1.72475792188417       -0.75322475916719
H           -7.34826729600561        0.65218472678942       -0.11214220365368
H           -6.70292084495704        1.93555769127999       -1.13495715336566
H           -7.38821576620621        0.47273034711687       -1.88149212213941
H           -0.35390748486980        1.05587779345753        1.36298470976445
H            1.89438680493155        4.56314342084211        0.26500997428526
H            2.56698689284636        4.19101429204798        1.87808458924274
H            0.99205299493671        5.02464592192497        1.73695513404508
 
 Bond Distances (Angstroems)
 ---------------------------
C1-O2=1.4273         C1-H26=1.0935        C1-H27=1.0935        C1-H28=1.0883        O2-C1=1.4273         O2-C3=1.3468         
C3-O2=1.3468         C3-O4=1.2116         C3-C5=1.4799         O4-C3=1.2116         C5-C3=1.4799         C5-N6=1.3522         
C5-C24=1.4318        N6-C5=1.3522         N6-C7=1.2945         C7-N6=1.2945         C7-C8=1.5169         C7-N20=1.3704        
C8-C7=1.5169         C8-C9=1.5350         C8-C10=1.5296        C8-N11=1.4727        C9-C8=1.5350         C9-H29=1.0875        
C9-H30=1.0888        C9-H31=1.0885        C10-C8=1.5296        C10-H32=1.0881       C10-H33=1.0890       C10-H34=1.0889       
N11-C8=1.4727        N11-C12=1.3453       N11-H35=1.0101       C12-N11=1.3453       C12-O13=1.2244       C12-C14=1.4810       
O13-C12=1.2244       C14-C12=1.4810       C14-N15=1.2995       C14-O19=1.3446       N15-C14=1.2995       N15-N16=1.3606       
N16-N15=1.3606       N16-C17=1.2997       C17-N16=1.2997       C17-C18=1.4790       C17-O19=1.3405       C18-C17=1.4790       
C18-H36=1.0900       C18-H37=1.0898       C18-H38=1.0871       O19-C14=1.3446       O19-C17=1.3405       N20-C7=1.3704        
N20-C21=1.3264       N20-H39=1.0243       C21-N20=1.3264       C21-O22=1.3238       C21-C24=1.4693       O22-C21=1.3238       
O22-C23=1.4330       C23-O22=1.4330       C23-H40=1.0916       C23-H41=1.0915       C23-H42=1.0899       C24-C5=1.4318        
C24-C21=1.4693       C24-O25=1.2396       O25-C24=1.2396       H26-C1=1.0935        H27-C1=1.0935        H28-C1=1.0883        
H29-C9=1.0875        H30-C9=1.0888        H31-C9=1.0885        H32-C10=1.0881       H33-C10=1.0890       H34-C10=1.0889       
H35-N11=1.0101       H36-C18=1.0900       H37-C18=1.0898       H38-C18=1.0871       H39-N20=1.0243       H40-C23=1.0916       
H41-C23=1.0915       H42-C23=1.0899       
 C  H  Rav=1.0897 sigma=0.0019  Rmin=1.0871  Rmax=1.0935    15
 C  C  Rav=1.4903 sigma=0.0325  Rmin=1.4318  Rmax=1.5350     8
 N  H  Rav=1.0172 sigma=0.0071  Rmin=1.0101  Rmax=1.0243     2
 N  C  Rav=1.3451 sigma=0.0548  Rmin=1.2945  Rmax=1.4727     8
 N  N  Rav=1.3606 sigma=0.0000  Rmin=1.3606  Rmax=1.3606     1
 O  C  Rav=1.3213 sigma=0.0770  Rmin=1.2116  Rmax=1.4330     9
 
 selected bond angles (degree)
 --------------------
H26-C1-O2=110.34               H27-C1-O2=110.28               H27-C1-H26=109.18              H28-C1-O2=106.75               
H28-C1-H26=110.14              H28-C1-H27=110.12              C3-O2-C1=115.93                O4-C3-O2=122.01                
C5-C3-O2=112.00                C5-C3-O4=125.99                N6-C5-C3=115.55                C24-C5-C3=121.26               
C24-C5-N6=123.19               C7-N6-C5=121.37                C8-C7-N6=120.44                N20-C7-N6=120.06               
N20-C7-C8=119.46               C9-C8-C7=110.47                C10-C8-C7=108.89               C10-C8-C9=110.10               
N11-C8-C7=110.39               N11-C8-C9=110.05               N11-C8-C10=106.86              H29-C9-C8=111.18               
H30-C9-C8=109.22               H30-C9-H29=108.86              H31-C9-C8=109.51               H31-C9-H29=108.94              
H31-C9-H30=109.09              H32-C10-C8=110.00              H33-C10-C8=110.28              H33-C10-H32=109.38             
H34-C10-C8=109.55              H34-C10-H32=109.08             H34-C10-H33=108.53             
 
 selected dihedral angles (degree)
 ---------------------------------
C3-O2-C1-H26= 59.38           C3-O2-C1-H27=298.69           C3-O2-C1-H28=179.06           O4-C3-O2-C1=359.88            
C5-C3-O2-C1=180.01            N6-C5-C3-O2=  0.27            N6-C5-C3-O4=180.40            C24-C5-C3-O2=180.23           
C24-C5-C3-O4=  0.36           C7-N6-C5-C3=179.38            C7-N6-C5-C24=359.42           C8-C7-N6-C5=181.74            
N20-C7-N6-C5=359.55           C9-C8-C7-N6=113.96            C9-C8-C7-N20=296.14           C10-C8-C7-N6=352.94           
C10-C8-C7-N20=175.11          N11-C8-C7-N6=235.92           N11-C8-C7-N20= 58.09          H29-C9-C8-C7= 58.59           
H29-C9-C8-C10=178.89          H29-C9-C8-N11=296.43          H30-C9-C8-C7=298.44           H30-C9-C8-C10= 58.74          
H30-C9-C8-N11=176.28          H31-C9-C8-C7=179.03           H31-C9-C8-C10=299.34          H31-C9-C8-N11= 56.88          
H32-C10-C8-C7=180.34          H32-C10-C8-C9= 59.09          H32-C10-C8-N11=299.59         H33-C10-C8-C7=301.06          
H33-C10-C8-C9=179.81          H33-C10-C8-N11= 60.31         H34-C10-C8-C7= 60.45          H34-C10-C8-C9=299.20          
H34-C10-C8-N11=179.70         
           -------------------------------------------------
          |                Final Singlepoint                |
           -------------------------------------------------

          ...................................................
          :                      SETUP                      :
          :.................................................:
          :  # basis functions                 134          :
          :  # atomic orbitals                 134          :
          :  # shells                           84          :
          :  # electrons                       134          :
          :  # halogen bonds                     0          :
          :  max. iterations                   250          :
          :  Hamiltonian                  GFN1-xTB          :
          :  restarted?                      false          :
          :  GBSA solvation                   true          :
          :  PC potential                    false          :
          :  electronic temp.          300.0000000     K    :
          :  accuracy                    1.0000000          :
          :  -> integral cutoff          0.2500000E+02      :
          :  -> integral neglect         0.1000000E-07      :
          :  -> SCF convergence          0.1000000E-05 Eh   :
          :  -> wf. convergence          0.2000000E-04 e    :
          :  Broyden damping             0.4000000          :
          ...................................................

 iter      E             dE          RMSdq      gap      omega  full diag
   1    -83.7767231 -0.837767E+02  0.156E-05    2.26       0.0  T
   2    -83.7767231 -0.211742E-11  0.750E-06    2.26    2058.6  T
   3    -83.7767231 -0.113687E-12  0.459E-06    2.26    3362.9  T

   *** convergence criteria satisfied after 3 iterations ***

         #    Occupation            Energy/Eh            Energy/eV
      -------------------------------------------------------------
         1        2.0000           -0.8683469             -23.6289
       ...           ...                  ...                  ...
        61        2.0000           -0.4725561             -12.8589
        62        2.0000           -0.4686423             -12.7524
        63        2.0000           -0.4646285             -12.6432
        64        2.0000           -0.4580831             -12.4651
        65        2.0000           -0.4531582             -12.3311
        66        2.0000           -0.4195942             -11.4177
        67        2.0000           -0.4115883             -11.1999 (HOMO)
        68                         -0.3284331              -8.9371 (LUMO)
        69                         -0.3188907              -8.6775
        70                         -0.2811604              -7.6508
        71                         -0.2609190              -7.1000
        72                         -0.2391687              -6.5081
       ...                                ...                  ...
       134                          0.7293728              19.8472
      -------------------------------------------------------------
                  HL-Gap            0.0831552 Eh            2.2628 eV
             Fermi-level           -0.3700107 Eh          -10.0685 eV

 SCC (total)                   0 d,  0 h,  0 min,  0.128 sec
 SCC setup                      ...        0 min,  0.002 sec (  1.442%)
 Dispersion                     ...        0 min,  0.000 sec (  0.258%)
 classical contributions        ...        0 min,  0.000 sec (  0.085%)
 integral evaluation            ...        0 min,  0.034 sec ( 26.844%)
 iterations                     ...        0 min,  0.011 sec (  8.733%)
 molecular gradient             ...        0 min,  0.079 sec ( 61.883%)
 printout                       ...        0 min,  0.001 sec (  0.710%)

         :::::::::::::::::::::::::::::::::::::::::::::::::::::
         ::                     SUMMARY                     ::
         :::::::::::::::::::::::::::::::::::::::::::::::::::::
         :: total energy             -83.001137551054 Eh    ::
         :: total w/o Gsasa/hb       -82.979443056826 Eh    ::
         :: gradient norm              0.000426444600 Eh/a0 ::
         :: HOMO-LUMO gap              2.262768739235 eV    ::
         ::.................................................::
         :: SCC energy               -83.776723050893 Eh    ::
         :: -> electrostatic           0.356263075475 Eh    ::
         :: -> Gsolv                  -0.055581289644 Eh    ::
         ::    -> Gelec               -0.033886795415 Eh    ::
         ::    -> Gsasa               -0.025708104453 Eh    ::
         ::    -> Ghb                 -0.003610668780 Eh    ::
         ::    -> Gshift               0.007624279005 Eh    ::
         :: repulsion energy           0.800613779560 Eh    ::
         :: dispersion energy         -0.025028279721 Eh    ::
         :: halogen bond corr.         0.000000000000 Eh    ::
         :: add. restraining           0.000000000000 Eh    ::
         :: total charge              -0.000000000000 e     ::
         :::::::::::::::::::::::::::::::::::::::::::::::::::::

           -------------------------------------------------
          |                Property Printout                |
           -------------------------------------------------

    * Orbital Energies and Occupations

         #    Occupation            Energy/Eh            Energy/eV
      -------------------------------------------------------------
         1        2.0000           -0.8683469             -23.6289
       ...           ...                  ...                  ...
        55        2.0000           -0.5064974             -13.7825
        56        2.0000           -0.5053516             -13.7513
        57        2.0000           -0.4909021             -13.3581
        58        2.0000           -0.4878846             -13.2760
        59        2.0000           -0.4863041             -13.2330
        60        2.0000           -0.4739681             -12.8973
        61        2.0000           -0.4725561             -12.8589
        62        2.0000           -0.4686423             -12.7524
        63        2.0000           -0.4646285             -12.6432
        64        2.0000           -0.4580831             -12.4651
        65        2.0000           -0.4531582             -12.3311
        66        2.0000           -0.4195942             -11.4177
        67        2.0000           -0.4115883             -11.1999 (HOMO)
        68                         -0.3284331              -8.9371 (LUMO)
        69                         -0.3188907              -8.6775
        70                         -0.2811604              -7.6508
        71                         -0.2609190              -7.1000
        72                         -0.2391687              -6.5081
        73                         -0.2068903              -5.6298
        74                         -0.1516997              -4.1280
        75                         -0.1439995              -3.9184
        76                         -0.1373814              -3.7383
        77                         -0.1334842              -3.6323
        78                         -0.1323605              -3.6017
       ...                                ...                  ...
       134                          0.7293728              19.8472
      -------------------------------------------------------------
                  HL-Gap            0.0831552 Eh            2.2628 eV
             Fermi-level           -0.3700107 Eh          -10.0685 eV

  Mulliken/CM5 charges         n(s)   n(p)   n(d)
     1C     0.16600  0.04582   0.977  2.857  0.000
     2O    -0.42699 -0.50826   1.689  4.738  0.000
     3C     0.56707  0.63327   0.971  2.462  0.000
     4O    -0.56855 -0.61404   1.726  4.843  0.000
     5C     0.04031  0.12151   1.051  2.909  0.000
     6N    -0.34178 -0.52981   1.526  3.816  0.000
     7C     0.24031  0.39050   1.007  2.753  0.000
     8C     0.15124  0.18995   1.065  2.784  0.000
     9C    -0.11110 -0.25102   1.022  3.089  0.000
    10C    -0.10353 -0.24270   1.020  3.084  0.000
    11N    -0.34440 -0.69535   1.435  3.909  0.000
    12C     0.46853  0.57754   0.977  2.555  0.000
    13O    -0.57575 -0.63494   1.723  4.852  0.000
    14C     0.33530  0.46096   1.003  2.662  0.000
    15N    -0.23815 -0.34898   1.567  3.671  0.000
    16N    -0.25986 -0.36715   1.563  3.696  0.000
    17C     0.39058  0.49887   1.009  2.601  0.000
    18C    -0.11126 -0.24867   1.012  3.099  0.000
    19O    -0.33542 -0.38712   1.690  4.645  0.000
    20N    -0.22772 -0.57514   1.439  3.789  0.000
    21C     0.37564  0.47859   1.010  2.614  0.000
    22O    -0.38828 -0.47257   1.671  4.717  0.000
    23C     0.16559  0.04476   0.984  2.850  0.000
    24C     0.30293  0.34775   1.014  2.683  0.000
    25O    -0.60584 -0.65252   1.734  4.872  0.000
    26H     0.04691  0.10872   0.953  0.000  0.000
    27H     0.04631  0.10794   0.954  0.000  0.000
    28H     0.04684  0.10718   0.953  0.000  0.000
    29H     0.06034  0.12323   0.940  0.000  0.000
    30H     0.05054  0.10518   0.949  0.000  0.000
    31H     0.05648  0.11258   0.944  0.000  0.000
    32H     0.05260  0.10845   0.947  0.000  0.000
    33H     0.05158  0.11052   0.948  0.000  0.000
    34H     0.05419  0.11199   0.946  0.000  0.000
    35H     0.26036  0.46595   0.740  0.000  0.000
    36H     0.08105  0.13555   0.919  0.000  0.000
    37H     0.08050  0.13500   0.920  0.000  0.000
    38H     0.07091  0.12674   0.929  0.000  0.000
    39H     0.30259  0.51941   0.697  0.000  0.000
    40H     0.05815  0.12114   0.942  0.000  0.000
    41H     0.05871  0.12167   0.941  0.000  0.000
    42H     0.05705  0.11752   0.943  0.000  0.000

Wiberg/Mayer (AO) data.
largest (>0.10) Wiberg bond orders for each atom

 ---------------------------------------------------------------------------
     #   Z sym  total        # sym  WBO       # sym  WBO       # sym  WBO
 ---------------------------------------------------------------------------
     1   6 C    3.881 --    28 H    0.986    27 H    0.980    26 H    0.980
                             2 O    0.907
     2   8 O    2.176 --     3 C    1.079     1 C    0.907     4 O    0.126
     3   6 C    3.853 --     4 O    1.645     2 O    1.079     5 C    1.037
     4   8 O    1.913 --     3 C    1.645     2 O    0.126
     5   6 C    3.947 --     6 N    1.279    24 C    1.216     3 C    1.037
                            25 O    0.128
     6   7 N    3.044 --     7 C    1.540     5 C    1.279
     7   6 C    3.919 --     6 N    1.540    20 N    1.134     8 C    0.975
     8   6 C    3.932 --    10 C    1.001     9 C    0.982     7 C    0.975
                            11 N    0.914
     9   6 C    3.987 --    30 H    0.984    31 H    0.983     8 C    0.982
                            29 H    0.979
    10   6 C    3.990 --     8 C    1.001    32 H    0.985    33 H    0.983
                            34 H    0.982
    11   7 N    3.350 --    12 C    1.273     8 C    0.914    35 H    0.891
                            13 O    0.174
    12   6 C    3.915 --    13 O    1.556    11 N    1.273    14 C    0.998
    13   8 O    1.924 --    12 C    1.556    11 N    0.174
    14   6 C    3.878 --    15 N    1.605    19 O    1.065    12 C    0.998
    15   7 N    3.018 --    14 C    1.605    16 N    1.205
    16   7 N    2.981 --    17 C    1.599    15 N    1.205
    17   6 C    3.869 --    16 N    1.599    19 O    1.085    18 C    1.032
    18   6 C    3.986 --    17 C    1.032    38 H    0.982    37 H    0.963
                            36 H    0.962
    19   8 O    2.333 --    17 C    1.085    14 C    1.065
    20   7 N    3.535 --    21 C    1.341     7 C    1.134    39 H    0.830
    21   6 C    3.860 --    20 N    1.341    22 O    1.137    24 C    1.067
    22   8 O    2.223 --    21 C    1.137    23 C    0.880
    23   6 C    3.851 --    42 H    0.984    40 H    0.978    41 H    0.977
                            22 O    0.880
    24   6 C    3.950 --    25 O    1.511     5 C    1.216    21 C    1.067
    25   8 O    1.860 --    24 C    1.511     5 C    0.128
    26   1 H    1.009 --     1 C    0.980
    27   1 H    1.009 --     1 C    0.980
    28   1 H    1.013 --     1 C    0.986
    29   1 H    1.007 --     9 C    0.979
    30   1 H    1.001 --     9 C    0.984
    31   1 H    0.999 --     9 C    0.983
    32   1 H    0.998 --    10 C    0.985
    33   1 H    1.004 --    10 C    0.983
    34   1 H    1.008 --    10 C    0.982
    35   1 H    0.947 --    11 N    0.891
    36   1 H    0.996 --    18 C    0.962
    37   1 H    0.996 --    18 C    0.963
    38   1 H    0.998 --    18 C    0.982
    39   1 H    0.925 --    20 N    0.830
    40   1 H    1.016 --    23 C    0.978
    41   1 H    1.016 --    23 C    0.977
    42   1 H    1.010 --    23 C    0.984
 ---------------------------------------------------------------------------

Topologies differ in total number of bonds
Writing topology from bond orders to xtbtopo.mol

 dipole moment from electron density (au)
     X       Y       Z   
  -4.6414  -1.3722   0.9168  total (Debye):   12.521

           -------------------------------------------------
          |                Geometry Summary                 |
           -------------------------------------------------

      molecular mass/u    :      351.3152409
   center of mass at/Å    :        0.0549834       0.1915635      -0.0219715
  moments of inertia/u·Å² :        0.1369544E+04   0.4551362E+04   0.5271960E+04
rotational constants/cm⁻¹ :        0.1230894E-01   0.3703865E-02   0.3197602E-02

 * 38 selected distances

     #   Z          #   Z                                           value/Å
     1   6 C        2   8 O                                       1.4273488
     2   8 O        3   6 C                                       1.3468368
     3   6 C        4   8 O                                       1.2115926
     5   6 C        6   7 N                                       1.3521772
     6   7 N        7   6 C                                       1.2945235
     8   6 C        9   6 C                                       1.5349826 (max)
     8   6 C       10   6 C                                       1.5296429
     8   6 C       11   7 N                                       1.4726545
    11   7 N       12   6 C                                       1.3452993
    12   6 C       13   8 O                                       1.2243536
    14   6 C       15   7 N                                       1.2995358
    16   7 N       17   6 C                                       1.2997044
    17   6 C       18   6 C                                       1.4789702
    14   6 C       19   8 O                                       1.3446472
    17   6 C       19   8 O                                       1.3404784
     7   6 C       20   7 N                                       1.3704022
    20   7 N       21   6 C                                       1.3264112
    21   6 C       22   8 O                                       1.3238469
    22   8 O       23   6 C                                       1.4330253
     5   6 C       24   6 C                                       1.4317683
    24   6 C       25   8 O                                       1.2395709
     1   6 C       26   1 H                                       1.0935335
     1   6 C       27   1 H                                       1.0934582
     1   6 C       28   1 H                                       1.0882677
     9   6 C       29   1 H                                       1.0874753
     9   6 C       30   1 H                                       1.0888316
     9   6 C       31   1 H                                       1.0884742
    10   6 C       32   1 H                                       1.0880580
    10   6 C       33   1 H                                       1.0890324
    10   6 C       34   1 H                                       1.0888553
    11   7 N       35   1 H                                       1.0100778 (min)
    18   6 C       36   1 H                                       1.0900209
    18   6 C       37   1 H                                       1.0898156
    18   6 C       38   1 H                                       1.0870761
    20   7 N       39   1 H                                       1.0242869
    23   6 C       40   1 H                                       1.0916003
    23   6 C       41   1 H                                       1.0915275
    23   6 C       42   1 H                                       1.0899047

 * 5 distinct bonds (by element types)

   Z      Z             #   av. dist./Å        max./Å        min./Å
   1 H    6 C          15     1.0897287     1.0935335     1.0870761
   6 C    6 C           4     1.4938410     1.5349826     1.4317683
   1 H    7 N           2     1.0171823     1.0242869     1.0100778
   6 C    7 N           8     1.3450885     1.4726545     1.2945235
   6 C    8 O           9     1.3213001     1.4330253     1.2115926


optimized geometry written to: xtbopt.xyz


           -------------------------------------------------
          | TOTAL ENERGY              -83.001137551054 Eh   |
          | GRADIENT NORM               0.000426444600 Eh/α |
          | HOMO-LUMO GAP               2.262768739235 eV   |
           -------------------------------------------------

------------------------------------------------------------------------
 * finished run on 2023/06/21 at 18:02:57.889     
------------------------------------------------------------------------
 total:
 * wall-time:     0 d,  0 h,  0 min,  5.414 sec
 *  cpu-time:     0 d,  0 h,  0 min,  5.243 sec
 * ratio c/w:     0.968 speedup
 SCF:
 * wall-time:     0 d,  0 h,  0 min,  0.215 sec
 *  cpu-time:     0 d,  0 h,  0 min,  0.159 sec
 * ratio c/w:     0.739 speedup
 ANC optimizer:
 * wall-time:     0 d,  0 h,  0 min,  5.084 sec
 *  cpu-time:     0 d,  0 h,  0 min,  5.033 sec
 * ratio c/w:     0.990 speedup

