      -----------------------------------------------------------      
     |                   =====================                   |     
     |                           x T B                           |     
     |                   =====================                   |     
     |                         S. Grimme                         |     
     |          Mulliken Center for Theoretical Chemistry        |     
     |                    University of Bonn                     |     
      -----------------------------------------------------------      

   * xtb version 6.5.1 (579679a) compiled by 'ehlert@majestix' on 2022-07-11

   xtb is free software: you can redistribute it and/or modify it under
   the terms of the GNU Lesser General Public License as published by
   the Free Software Foundation, either version 3 of the License, or
   (at your option) any later version.
   
   xtb is distributed in the hope that it will be useful,
   but WITHOUT ANY WARRANTY; without even the implied warranty of
   MERCHANTABILITY or FITNESS FOR A PARTICULAR PURPOSE.  See the
   GNU Lesser General Public License for more details.
   
   Cite this work as:
   * C. Bannwarth, E. Caldeweyher, S. Ehlert, A. Hansen, P. Pracht,
     J. Seibert, S. Spicher, S. Grimme, WIREs Comput. Mol. Sci., 2020, 11,
     e01493. DOI: 10.1002/wcms.1493
   
   for GFN2-xTB:
   * C. Bannwarth, S. Ehlert and S. Grimme., J. Chem. Theory Comput., 2019,
     15, 1652-1671. DOI: 10.1021/acs.jctc.8b01176
   for GFN1-xTB:
   * S. Grimme, C. Bannwarth, P. Shushkov, J. Chem. Theory Comput., 2017,
     13, 1989-2009. DOI: 10.1021/acs.jctc.7b00118
   for GFN0-xTB:
   * P. Pracht, E. Caldeweyher, S. Ehlert, S. Grimme, ChemRxiv, 2019, preprint.
     DOI: 10.26434/chemrxiv.8326202.v1
   for GFN-FF:
   * S. Spicher and S. Grimme, Angew. Chem. Int. Ed., 2020, 59, 15665-15673.
     DOI: 10.1002/anie.202004239
   
   for ALPB and GBSA implicit solvation:
   * S. Ehlert, M. Stahn, S. Spicher, S. Grimme, J. Chem. Theory Comput.,
     2021, 17, 4250-4261. DOI: 10.1021/acs.jctc.1c00471
   
   for DFT-D4:
   * E. Caldeweyher, C. Bannwarth and S. Grimme, J. Chem. Phys., 2017,
     147, 034112. DOI: 10.1063/1.4993215
   * E. Caldeweyher, S. Ehlert, A. Hansen, H. Neugebauer, S. Spicher,
     C. Bannwarth and S. Grimme, J. Chem. Phys., 2019, 150, 154122.
     DOI: 10.1063/1.5090222
   * E. Caldeweyher, J.-M. Mewes, S. Ehlert and S. Grimme, Phys. Chem. Chem. Phys.
     2020, 22, 8499-8512. DOI: 10.1039/D0CP00502A
   
   for sTDA-xTB:
   * S. Grimme and C. Bannwarth, J. Chem. Phys., 2016, 145, 054103.
     DOI: 10.1063/1.4959605
   
   in the mass-spec context:
   * V. Asgeirsson, C. Bauer and S. Grimme, Chem. Sci., 2017, 8, 4879.
     DOI: 10.1039/c7sc00601b
   * J. Koopman and S. Grimme, ACS Omega 2019, 4, 12, 15120-15133.
     DOI: 10.1021/acsomega.9b02011
   
   for metadynamics refer to:
   * S. Grimme, J. Chem. Theory Comput., 2019, 155, 2847-2862
     DOI: 10.1021/acs.jctc.9b00143
   
   for SPH calculations refer to:
   * S. Spicher and S. Grimme, J. Chem. Theory Comput., 2021, 17, 1701-1714
     DOI: 10.1021/acs.jctc.0c01306
   
   with help from (in alphabetical order)
   P. Atkinson, C. Bannwarth, F. Bohle, G. Brandenburg, E. Caldeweyher
   M. Checinski, S. Dohm, S. Ehlert, S. Ehrlich, I. Gerasimov, C. Hölzer
   A. Katbashev, J. Koopman, C. Lavigne, S. Lehtola, F. März, M. Müller,
   F. Musil, H. Neugebauer, J. Pisarek, C. Plett, P. Pracht, F. Pultar,
   J. Seibert, P. Shushkov, S. Spicher, M. Stahn, M. Steiner, T. Strunk,
   J. Stückrath, T. Rose, and J. Unsleber
   
 * started run on 2023/06/21 at 17:17:02.658     

           -------------------------------------------------
          |                Calculation Setup                |
           -------------------------------------------------

          program call               : /lustre/hpc/kemi/ree/PhD/git/ReactivityQM/dep/xtb-6.5.1/bin/xtb --gfn 1 /lustre/hpc/kemi/ree/PhD/git/ReactivityQM/calculations/R02oxygendeprot/reac01prodN01/conf11/R02oxygendeprot_reac01prodN01_conf11_gfn1.xyz --opt --vfukui --chrg 0 --uhf 0 --alpb DMSO
          hostname                   : node070
          coordinate file            : /lustre/hpc/kemi/ree/PhD/git/ReactivityQM/calculations/R02oxygendeprot/reac01prodN01/conf11/R02oxygendeprot_reac01prodN01_conf11_gfn1.xyz
          omp threads                :                     1

   ID    Z sym.   atoms
    1    6 C      1, 3, 5, 7-10, 12, 14, 17, 18, 20, 22, 24
    2    8 O      2, 4, 13, 19, 23, 25
    3    7 N      6, 11, 15, 16, 21
    4    1 H      26-42

           -------------------------------------------------
          |                 G F N 1 - x T B                 |
           -------------------------------------------------

        Reference                      10.1021/acs.jctc.7b00118
      * Hamiltonian:
        H0-scaling (s, p, d)           1.850000    2.250000    2.000000
        zeta-weighting                 0.000000
      * Dispersion:
        s8                             2.400000
        a1                             0.630000
        a2                             5.000000
        s9                             0.000000
      * Repulsion:
        kExp                           1.500000
        rExp                           1.000000
      * Coulomb:
        alpha                          2.000000
        third order                    atomic
        anisotropic                    false
      * Halogen bond correction:
        rad-scale                      1.300000
        damping                        0.440000

      * Solvation model:               ALPB
        Solvent                        DMSO
        Parameter file                 internal GFN1-xTB/ALPB
        Dielectric constant                4.6680E+01
        Reference state                gsolv [1 M gas/solution]
        Free energy shift                  7.6243E-03 Eh       4.7843E+00 kcal/mol
        Temperature                        2.9815E+02 K
        Density                            1.1000E+00 kg/L
        Solvent mass                       7.8130E+01 g/mol
        Interaction kernel             P16
        Born radius scaling (c1)           1.7672E+00
        Born radii integrator          GBOBC
        Born offset                        0.0000E+00 a0       0.0000E+00 AA
        H-bond correction              true
        Ion screening                  false
        Surface tension                    1.0000E-05 Eh       1.5569E+01 dyn/cm
        Grid points                               230 per atom

          ...................................................
          :                      SETUP                      :
          :.................................................:
          :  # basis functions                 134          :
          :  # atomic orbitals                 134          :
          :  # shells                           84          :
          :  # electrons                       134          :
          :  # halogen bonds                     0          :
          :  max. iterations                   250          :
          :  Hamiltonian                  GFN1-xTB          :
          :  restarted?                      false          :
          :  GBSA solvation                   true          :
          :  PC potential                    false          :
          :  electronic temp.          300.0000000     K    :
          :  accuracy                    1.0000000          :
          :  -> integral cutoff          0.2500000E+02      :
          :  -> integral neglect         0.1000000E-07      :
          :  -> SCF convergence          0.1000000E-05 Eh   :
          :  -> wf. convergence          0.2000000E-04 e    :
          :  Broyden damping             0.4000000          :
          ...................................................

 iter      E             dE          RMSdq      gap      omega  full diag
   1    -83.2547212 -0.832547E+02  0.852E+00    2.54       0.0  T
   2    -83.6183270 -0.363606E+00  0.510E+00    0.69       1.0  T
   3    -83.2620999  0.356227E+00  0.242E+00    0.32       1.0  T
   4    -83.5559226 -0.293823E+00  0.135E+00    2.27       1.0  T
   5    -83.6287032 -0.727806E-01  0.602E-01    1.86       1.0  T
   6    -83.6378151 -0.911191E-02  0.419E-01    1.09       1.0  T
   7    -83.6434864 -0.567125E-02  0.250E-01    0.39       1.0  T
   8    -83.3063818  0.337105E+00  0.163E+00    0.24       1.0  T
   9    -83.6427941 -0.336412E+00  0.268E-01    0.45       1.0  T
  10    -83.6425458  0.248302E-03  0.271E-01    0.49       1.0  T
  11    -83.6429087 -0.362898E-03  0.256E-01    0.43       1.0  T
  12    -83.6436937 -0.785001E-03  0.226E-01    0.32       1.0  T
  13    -83.6444764 -0.782696E-03  0.202E-01    0.26       1.0  T
  14    -83.6473993 -0.292288E-02  0.118E-01    0.16       1.0  T
  15    -83.6470992  0.300079E-03  0.128E-01    0.17       1.0  T
  16    -83.6377810  0.931821E-02  0.295E-01    0.06       1.0  T
  17    -83.6455438 -0.776283E-02  0.173E-01    0.21       1.0  T
  18    -83.6491035 -0.355972E-02  0.930E-03    0.12       1.7  T
  19    -83.6490929  0.106338E-04  0.129E-02    0.11       1.2  T
  20    -83.6491136 -0.206579E-04  0.225E-03    0.11       6.9  T
  21    -83.6491096  0.393478E-05  0.598E-03    0.11       2.6  T
  22    -83.6491142 -0.456810E-05  0.255E-04    0.11      60.6  T
  23    -83.6491142 -0.101625E-08  0.238E-04    0.11      64.7  T
  24    -83.6491142 -0.438753E-08  0.149E-04    0.11     103.4  T
  25    -83.6491142 -0.277032E-08  0.257E-05    0.11     599.9  T

   *** convergence criteria satisfied after 25 iterations ***

         #    Occupation            Energy/Eh            Energy/eV
      -------------------------------------------------------------
         1        2.0000           -0.9312305             -25.3401
       ...           ...                  ...                  ...
        61        2.0000           -0.4700647             -12.7911
        62        2.0000           -0.4621948             -12.5770
        63        2.0000           -0.4549635             -12.3802
        64        2.0000           -0.4528799             -12.3235
        65        2.0000           -0.4397324             -11.9657
        66        2.0000           -0.3933074             -10.7024
        67        1.8012           -0.3772939             -10.2667 (HOMO)
        68        0.1988           -0.3731068             -10.1528 (LUMO)
        69                         -0.3053852              -8.3100
        70                         -0.2870083              -7.8099
        71                         -0.2607048              -7.0941
        72                         -0.2319570              -6.3119
       ...                                ...                  ...
       134                          0.7981320              21.7183
      -------------------------------------------------------------
                  HL-Gap            0.0041871 Eh            0.1139 eV
             Fermi-level           -0.3752004 Eh          -10.2097 eV

 SCC (total)                   0 d,  0 h,  0 min,  0.224 sec
 SCC setup                      ...        0 min,  0.002 sec (  0.961%)
 Dispersion                     ...        0 min,  0.000 sec (  0.135%)
 classical contributions        ...        0 min,  0.000 sec (  0.048%)
 integral evaluation            ...        0 min,  0.026 sec ( 11.433%)
 iterations                     ...        0 min,  0.135 sec ( 60.377%)
 molecular gradient             ...        0 min,  0.059 sec ( 26.402%)
 printout                       ...        0 min,  0.001 sec (  0.632%)

         :::::::::::::::::::::::::::::::::::::::::::::::::::::
         ::                     SUMMARY                     ::
         :::::::::::::::::::::::::::::::::::::::::::::::::::::
         :: total energy             -82.883075229936 Eh    ::
         :: total w/o Gsasa/hb       -82.861721778786 Eh    ::
         :: gradient norm              0.148753308819 Eh/a0 ::
         :: HOMO-LUMO gap              0.113937826926 eV    ::
         ::.................................................::
         :: SCC energy               -83.649114200330 Eh    ::
         :: -> electrostatic           0.436429081855 Eh    ::
         :: -> Gsolv                  -0.100815101243 Eh    ::
         ::    -> Gelec               -0.079461650093 Eh    ::
         ::    -> Gsasa               -0.024617272196 Eh    ::
         ::    -> Ghb                 -0.004360457958 Eh    ::
         ::    -> Gshift               0.007624279005 Eh    ::
         :: repulsion energy           0.791766605641 Eh    ::
         :: dispersion energy         -0.025727635247 Eh    ::
         :: halogen bond corr.         0.000000000000 Eh    ::
         :: add. restraining           0.000000000000 Eh    ::
         :: total charge               0.000000000001 e     ::
         :::::::::::::::::::::::::::::::::::::::::::::::::::::

      ----------------------------------------------------------- 
     |                   =====================                   |
     |                        A N C O P T                        |
     |                   =====================                   |
     |               Approximate Normal Coordinate               |
     |                Rational Function Optimizer                |
      ----------------------------------------------------------- 

          ...................................................
          :                      SETUP                      :
          :.................................................:
          :   optimization level            normal          :
          :   max. optcycles                   200          :
          :   ANC micro-cycles                  20          :
          :   degrees of freedom               120          :
          :.................................................:
          :   RF solver                   davidson          :
          :   write xtbopt.log                true          :
          :   linear?                        false          :
          :   energy convergence         0.5000000E-05 Eh   :
          :   grad. convergence          0.1000000E-02 Eh/α :
          :   maximium RF displ.         1.0000000          :
          :   Hlow (freq-cutoff)         0.1000000E-01      :
          :   Hmax (freq-cutoff)         5.0000000          :
          :   S6 in model hess.         20.0000000          :
          ...................................................

generating ANC from model Hessian ...
Using Lindh-Hessian (1995)
 Shifting diagonal of input Hessian by   9.704977427300228E-003
 Lowest  eigenvalues of input Hessian
    0.000000    0.000000    0.000000    0.000000    0.000000    0.000000
    0.010000    0.010025    0.010233    0.010521    0.011876    0.012505
    0.012712    0.013880    0.014344    0.014812    0.016247    0.016406
 Highest eigenvalues
    2.073669    2.086496    2.256584    2.334570    2.348052    2.455355
 

........................................................................
.............................. CYCLE    1 ..............................
........................................................................
   1    -83.6491142 -0.836491E+02  0.119E-05    0.11       0.0  T
   2    -83.6491142  0.101038E-08  0.898E-05    0.11     171.7  T
   3    -83.6491142 -0.102858E-08  0.213E-07    0.11   72349.9  T
     SCC iter.                  ...        0 min,  0.017 sec
     gradient                   ...        0 min,  0.063 sec
 * total energy  :   -82.8830752 Eh     change       -0.8492407E-10 Eh
   gradient norm :     0.1487501 Eh/α   predicted     0.0000000E+00 (-100.00%)
   displ. norm   :     0.3638415 α      lambda       -0.2343494E-01
   maximum displ.:     0.1540909 α      in ANC's #20, #28, #19, ...

........................................................................
.............................. CYCLE    2 ..............................
........................................................................
   1    -83.6609561 -0.836610E+02  0.196E-01    0.42       0.0  T
   2    -83.4341622  0.226794E+00  0.135E+00    0.07       1.0  T
   3    -83.6618056 -0.227643E+00  0.160E-01    0.34       1.0  T
   4    -83.6621591 -0.353518E-03  0.145E-01    0.29       1.0  T
   5    -83.6633370 -0.117784E-02  0.988E-02    0.20       1.0  T
   6    -83.6643560 -0.101896E-02  0.327E-02    0.15       1.0  T
   7    -83.6644729 -0.116957E-03  0.748E-03    0.14       2.1  T
   8    -83.6644788 -0.585904E-05  0.531E-04    0.14      29.0  T
   9    -83.6644788  0.825972E-08  0.526E-04    0.14      29.3  T
  10    -83.6644788 -0.350451E-07  0.650E-05    0.14     237.6  T
  11    -83.6644788  0.830836E-08  0.266E-04    0.14      58.0  T
  12    -83.6644788 -0.795757E-08  0.616E-05    0.14     250.4  T
     SCC iter.                  ...        0 min,  0.112 sec
     gradient                   ...        0 min,  0.062 sec
 * total energy  :   -82.9008936 Eh     change       -0.1781841E-01 Eh
   gradient norm :     0.0825453 Eh/α   predicted    -0.1330261E-01 ( -25.34%)
   displ. norm   :     0.4380515 α      lambda       -0.1452846E-01
   maximum displ.:     0.1909962 α      in ANC's #20, #19, #25, ...

........................................................................
.............................. CYCLE    3 ..............................
........................................................................
   1    -83.6833164 -0.836833E+02  0.157E-01    0.53       0.0  T
   2    -83.6846715 -0.135513E-02  0.756E-02    0.19       1.0  T
   3    -83.6848640 -0.192520E-03  0.245E-02    0.21       1.0  T
   4    -83.6843523  0.511703E-03  0.685E-02    0.15       1.0  T
   5    -83.6849044 -0.552094E-03  0.883E-03    0.19       1.7  T
   6    -83.6849049 -0.506273E-06  0.273E-03    0.19       5.7  T
   7    -83.6849046  0.295325E-06  0.182E-03    0.19       8.5  T
   8    -83.6849050 -0.339157E-06  0.514E-04    0.19      30.0  T
   9    -83.6849050 -0.471593E-08  0.425E-04    0.19      36.3  T
  10    -83.6849050 -0.189143E-07  0.910E-05    0.19     169.5  T
  11    -83.6849050 -0.846228E-09  0.298E-05    0.19     517.3  T
     SCC iter.                  ...        0 min,  0.065 sec
     gradient                   ...        0 min,  0.044 sec
 * total energy  :   -82.9100990 Eh     change       -0.9205317E-02 Eh
   gradient norm :     0.0268836 Eh/α   predicted    -0.8661284E-02 (  -5.91%)
   displ. norm   :     0.3497118 α      lambda       -0.3588666E-02
   maximum displ.:     0.1516716 α      in ANC's #19, #25, #20, ...

........................................................................
.............................. CYCLE    4 ..............................
........................................................................
   1    -83.6900723 -0.836901E+02  0.591E-02    0.36       0.0  T
   2    -83.6902856 -0.213266E-03  0.348E-02    0.23       1.0  T
   3    -83.6903258 -0.401816E-04  0.113E-02    0.25       1.4  T
   4    -83.6903254  0.367238E-06  0.577E-03    0.23       2.7  T
   5    -83.6903269 -0.147675E-05  0.357E-03    0.24       4.3  T
   6    -83.6903275 -0.575216E-06  0.469E-04    0.24      32.9  T
   7    -83.6903275 -0.437706E-08  0.162E-04    0.24      95.5  T
   8    -83.6903275 -0.347356E-09  0.690E-05    0.24     223.6  T
     SCC iter.                  ...        0 min,  0.033 sec
     gradient                   ...        0 min,  0.058 sec
 * total energy  :   -82.9127600 Eh     change       -0.2661086E-02 Eh
   gradient norm :     0.0209725 Eh/α   predicted    -0.2013788E-02 ( -24.32%)
   displ. norm   :     0.3832404 α      lambda       -0.2490788E-02
   maximum displ.:     0.1586756 α      in ANC's #19, #25, #27, ...

........................................................................
.............................. CYCLE    5 ..............................
........................................................................
   1    -83.6932027 -0.836932E+02  0.349E-02    0.36       0.0  T
   2    -83.6932816 -0.789511E-04  0.240E-02    0.31       1.0  T
   3    -83.6932941 -0.124500E-04  0.107E-02    0.32       1.4  T
   4    -83.6932943 -0.292501E-06  0.341E-03    0.31       4.5  T
   5    -83.6932944 -0.609432E-07  0.532E-04    0.31      29.0  T
   6    -83.6932944 -0.749074E-08  0.161E-04    0.31      96.1  T
   7    -83.6932944 -0.532438E-09  0.581E-05    0.31     265.4  T
     SCC iter.                  ...        0 min,  0.037 sec
     gradient                   ...        0 min,  0.059 sec
 * total energy  :   -82.9144611 Eh     change       -0.1701056E-02 Eh
   gradient norm :     0.0170307 Eh/α   predicted    -0.1428310E-02 ( -16.03%)
   displ. norm   :     0.2729295 α      lambda       -0.1071183E-02
   maximum displ.:     0.1078626 α      in ANC's #2, #25, #19, ...

........................................................................
.............................. CYCLE    6 ..............................
........................................................................
   1    -83.6961520 -0.836962E+02  0.176E-02    0.37       0.0  T
   2    -83.6961694 -0.173980E-04  0.102E-02    0.36       1.5  T
   3    -83.6961719 -0.249972E-05  0.442E-03    0.36       3.5  T
   4    -83.6961719 -0.675745E-08  0.158E-03    0.36       9.8  T
   5    -83.6961719 -0.108479E-07  0.188E-04    0.36      82.2  T
   6    -83.6961719 -0.557876E-09  0.751E-05    0.36     205.5  T
     SCC iter.                  ...        0 min,  0.033 sec
     gradient                   ...        0 min,  0.059 sec
 * total energy  :   -82.9152329 Eh     change       -0.7717765E-03 Eh
   gradient norm :     0.0144108 Eh/α   predicted    -0.5754883E-03 ( -25.43%)
   displ. norm   :     0.2645753 α      lambda       -0.7560212E-03
   maximum displ.:     0.1285182 α      in ANC's #2, #15, #25, ...

........................................................................
.............................. CYCLE    7 ..............................
........................................................................
   1    -83.6978454 -0.836978E+02  0.129E-02    0.38       0.0  T
   2    -83.6978501 -0.477456E-05  0.576E-03    0.38       2.7  T
   3    -83.6978504 -0.264243E-06  0.332E-03    0.38       4.6  T
   4    -83.6978504 -0.317384E-07  0.953E-04    0.39      16.2  T
   5    -83.6978505 -0.966637E-08  0.178E-04    0.39      86.5  T
   6    -83.6978505 -0.466329E-09  0.591E-05    0.39     260.9  T
     SCC iter.                  ...        0 min,  0.034 sec
     gradient                   ...        0 min,  0.058 sec
 * total energy  :   -82.9157857 Eh     change       -0.5527945E-03 Eh
   gradient norm :     0.0114079 Eh/α   predicted    -0.4044721E-03 ( -26.83%)
   displ. norm   :     0.2782283 α      lambda       -0.5584662E-03
   maximum displ.:     0.1460677 α      in ANC's #2, #15, #3, ...

........................................................................
.............................. CYCLE    8 ..............................
........................................................................
   1    -83.6987351 -0.836987E+02  0.137E-02    0.40       0.0  T
   2    -83.6987388 -0.367523E-05  0.703E-03    0.40       2.2  T
   3    -83.6987390 -0.215956E-06  0.388E-03    0.40       4.0  T
   4    -83.6987391 -0.565904E-07  0.878E-04    0.40      17.6  T
   5    -83.6987391 -0.151517E-07  0.161E-04    0.40      96.1  T
   6    -83.6987391 -0.547658E-09  0.517E-05    0.40     298.7  T
     SCC iter.                  ...        0 min,  0.034 sec
     gradient                   ...        0 min,  0.058 sec
 * total energy  :   -82.9161901 Eh     change       -0.4044678E-03 Eh
   gradient norm :     0.0080923 Eh/α   predicted    -0.3008501E-03 ( -25.62%)
   displ. norm   :     0.2930230 α      lambda       -0.4187678E-03
   maximum displ.:     0.1581696 α      in ANC's #2, #15, #3, ...

........................................................................
.............................. CYCLE    9 ..............................
........................................................................
   1    -83.6982128 -0.836982E+02  0.109E-02    0.40       0.0  T
   2    -83.6982167 -0.393764E-05  0.591E-03    0.40       2.6  T
   3    -83.6982171 -0.400552E-06  0.302E-03    0.40       5.1  T
   4    -83.6982171 -0.162786E-07  0.100E-03    0.40      15.4  T
   5    -83.6982171 -0.108598E-07  0.161E-04    0.40      95.7  T
   6    -83.6982171 -0.363826E-09  0.535E-05    0.40     288.5  T
     SCC iter.                  ...        0 min,  0.033 sec
     gradient                   ...        0 min,  0.059 sec
 * total energy  :   -82.9165013 Eh     change       -0.3111361E-03 Eh
   gradient norm :     0.0082002 Eh/α   predicted    -0.2273670E-03 ( -26.92%)
   displ. norm   :     0.3399794 α      lambda       -0.4033869E-03
   maximum displ.:     0.1805653 α      in ANC's #2, #3, #15, ...

........................................................................
.............................. CYCLE   10 ..............................
........................................................................
   1    -83.6988406 -0.836988E+02  0.122E-02    0.42       0.0  T
   2    -83.6988431 -0.247582E-05  0.654E-03    0.42       2.4  T
   3    -83.6988433 -0.191290E-06  0.364E-03    0.42       4.2  T
   4    -83.6988434 -0.899595E-07  0.624E-04    0.42      24.7  T
   5    -83.6988434 -0.390473E-08  0.188E-04    0.42      82.1  T
   6    -83.6988434 -0.647091E-09  0.610E-05    0.42     252.8  T
     SCC iter.                  ...        0 min,  0.033 sec
     gradient                   ...        0 min,  0.059 sec
 * total energy  :   -82.9167732 Eh     change       -0.2718869E-03 Eh
   gradient norm :     0.0098367 Eh/α   predicted    -0.2250073E-03 ( -17.24%)
   displ. norm   :     0.3095696 α      lambda       -0.3268704E-03
   maximum displ.:     0.1685281 α      in ANC's #2, #15, #3, ...

........................................................................
.............................. CYCLE   11 ..............................
........................................................................
   1    -83.6973498 -0.836973E+02  0.101E-02    0.41       0.0  T
   2    -83.6973516 -0.187453E-05  0.432E-03    0.41       3.6  T
   3    -83.6973518 -0.159611E-06  0.269E-03    0.41       5.7  T
   4    -83.6973518 -0.269419E-07  0.533E-04    0.41      28.9  T
   5    -83.6973518 -0.320975E-08  0.149E-04    0.41     103.4  T
   6    -83.6973518 -0.192827E-09  0.431E-05    0.41     358.3  T
     SCC iter.                  ...        0 min,  0.032 sec
     gradient                   ...        0 min,  0.059 sec
 * total energy  :   -82.9169742 Eh     change       -0.2010706E-03 Eh
   gradient norm :     0.0096213 Eh/α   predicted    -0.1791101E-03 ( -10.92%)
   displ. norm   :     0.2387142 α      lambda       -0.2780450E-03
   maximum displ.:     0.1293601 α      in ANC's #2, #3, #15, ...

........................................................................
.............................. CYCLE   12 ..............................
........................................................................
   1    -83.7004832 -0.837005E+02  0.113E-02    0.44       0.0  T
   2    -83.7004872 -0.390412E-05  0.498E-03    0.44       3.1  T
   3    -83.7004878 -0.602189E-06  0.223E-03    0.44       6.9  T
   4    -83.7004878 -0.859841E-08  0.578E-04    0.44      26.7  T
   5    -83.7004878 -0.127578E-08  0.100E-04    0.44     154.3  T
   6    -83.7004878 -0.158451E-09  0.296E-05    0.44     521.1  T
     SCC iter.                  ...        0 min,  0.032 sec
     gradient                   ...        0 min,  0.059 sec
 * total energy  :   -82.9171397 Eh     change       -0.1655059E-03 Eh
   gradient norm :     0.0077678 Eh/α   predicted    -0.1469511E-03 ( -11.21%)
   displ. norm   :     0.2300079 α      lambda       -0.1566149E-03
   maximum displ.:     0.1385402 α      in ANC's #2, #3, #15, ...

........................................................................
.............................. CYCLE   13 ..............................
........................................................................
   1    -83.6984309 -0.836984E+02  0.831E-03    0.45       0.0  T
   2    -83.6984324 -0.151091E-05  0.473E-03    0.45       3.3  T
   3    -83.6984325 -0.114635E-06  0.243E-03    0.45       6.4  T
   4    -83.6984325 -0.165087E-07  0.590E-04    0.45      26.2  T
   5    -83.6984325 -0.423742E-08  0.101E-04    0.45     152.6  T
   6    -83.6984325 -0.245691E-09  0.385E-05    0.45     401.2  T
     SCC iter.                  ...        0 min,  0.032 sec
     gradient                   ...        0 min,  0.059 sec
 * total energy  :   -82.9172274 Eh     change       -0.8767482E-04 Eh
   gradient norm :     0.0057606 Eh/α   predicted    -0.8245333E-04 (  -5.96%)
   displ. norm   :     0.1108605 α      lambda       -0.1107546E-03
   maximum displ.:     0.0799146 α      in ANC's #2, #3, #1, ...

........................................................................
.............................. CYCLE   14 ..............................
........................................................................
   1    -83.7006262 -0.837006E+02  0.613E-03    0.45       0.0  T
   2    -83.7006271 -0.957172E-06  0.368E-03    0.45       4.2  T
   3    -83.7006272 -0.909107E-07  0.196E-03    0.45       7.9  T
   4    -83.7006272 -0.537378E-08  0.393E-04    0.45      39.3  T
   5    -83.7006272 -0.239379E-08  0.841E-05    0.45     183.5  T
   6    -83.7006272 -0.204338E-09  0.258E-05    0.45     597.2  T
     SCC iter.                  ...        0 min,  0.032 sec
     gradient                   ...        0 min,  0.058 sec
 * total energy  :   -82.9172905 Eh     change       -0.6308722E-04 Eh
   gradient norm :     0.0037620 Eh/α   predicted    -0.5606305E-04 ( -11.13%)
   displ. norm   :     0.1421132 α      lambda       -0.7271305E-04
   maximum displ.:     0.0960197 α      in ANC's #2, #3, #15, ...

........................................................................
.............................. CYCLE   15 ..............................
........................................................................
   1    -83.7007318 -0.837007E+02  0.257E-03    0.45       0.0  T
   2    -83.7007319 -0.115592E-06  0.128E-03    0.45      12.0  T
   3    -83.7007319 -0.970053E-08  0.617E-04    0.46      25.0  T
   4    -83.7007319 -0.253664E-08  0.168E-04    0.46      91.8  T
   5    -83.7007319 -0.190795E-09  0.487E-05    0.46     316.9  T
     SCC iter.                  ...        0 min,  0.027 sec
     gradient                   ...        0 min,  0.058 sec
 * total energy  :   -82.9173476 Eh     change       -0.5709688E-04 Eh
   gradient norm :     0.0041750 Eh/α   predicted    -0.3709095E-04 ( -35.04%)
   displ. norm   :     0.2190764 α      lambda       -0.1209163E-03
   maximum displ.:     0.1490122 α      in ANC's #2, #3, #1, ...

........................................................................
.............................. CYCLE   16 ..............................
........................................................................
   1    -83.7010825 -0.837011E+02  0.493E-03    0.46       0.0  T
   2    -83.7010830 -0.443544E-06  0.222E-03    0.46       6.9  T
   3    -83.7010830 -0.197738E-07  0.104E-03    0.46      14.9  T
   4    -83.7010830 -0.461122E-08  0.344E-04    0.46      44.9  T
   5    -83.7010830 -0.148985E-08  0.719E-05    0.46     214.6  T
   6    -83.7010830 -0.664357E-10  0.220E-05    0.46     700.2  T
     SCC iter.                  ...        0 min,  0.033 sec
     gradient                   ...        0 min,  0.057 sec
 * total energy  :   -82.9174306 Eh     change       -0.8301812E-04 Eh
   gradient norm :     0.0054250 Eh/α   predicted    -0.6336197E-04 ( -23.68%)
   displ. norm   :     0.2608963 α      lambda       -0.1112165E-03
   maximum displ.:     0.1757154 α      in ANC's #2, #3, #15, ...

........................................................................
.............................. CYCLE   17 ..............................
........................................................................
   1    -83.7003345 -0.837003E+02  0.492E-03    0.46       0.0  T
   2    -83.7003353 -0.742058E-06  0.245E-03    0.46       6.3  T
   3    -83.7003354 -0.799303E-07  0.119E-03    0.46      12.9  T
   4    -83.7003354 -0.404751E-08  0.405E-04    0.46      38.1  T
   5    -83.7003354 -0.107453E-08  0.762E-05    0.46     202.4  T
   6    -83.7003354 -0.531344E-10  0.245E-05    0.46     629.0  T
     SCC iter.                  ...        0 min,  0.033 sec
     gradient                   ...        0 min,  0.042 sec
 * total energy  :   -82.9175067 Eh     change       -0.7607866E-04 Eh
   gradient norm :     0.0059279 Eh/α   predicted    -0.5939591E-04 ( -21.93%)
   displ. norm   :     0.2390212 α      lambda       -0.1123795E-03
   maximum displ.:     0.1631257 α      in ANC's #2, #3, #1, ...

........................................................................
.............................. CYCLE   18 ..............................
........................................................................
   1    -83.7002967 -0.837003E+02  0.512E-03    0.46       0.0  T
   2    -83.7002977 -0.104794E-05  0.276E-03    0.46       5.6  T
   3    -83.7002979 -0.161982E-06  0.108E-03    0.46      14.3  T
   4    -83.7002979 -0.104133E-08  0.348E-04    0.46      44.4  T
   5    -83.7002979 -0.472269E-09  0.486E-05    0.46     317.5  T
   6    -83.7002979 -0.505196E-10  0.143E-05    0.46    1076.2  T
     SCC iter.                  ...        0 min,  0.030 sec
     gradient                   ...        0 min,  0.052 sec
 * total energy  :   -82.9175924 Eh     change       -0.8574288E-04 Eh
   gradient norm :     0.0043566 Eh/α   predicted    -0.5940318E-04 ( -30.72%)
   displ. norm   :     0.2782414 α      lambda       -0.1233294E-03
   maximum displ.:     0.1873593 α      in ANC's #2, #3, #8, ...

........................................................................
.............................. CYCLE   19 ..............................
........................................................................
   1    -83.6998740 -0.836999E+02  0.624E-03    0.45       0.0  T
   2    -83.6998756 -0.157484E-05  0.330E-03    0.45       4.7  T
   3    -83.6998758 -0.240040E-06  0.128E-03    0.45      12.1  T
   4    -83.6998758 -0.162206E-08  0.440E-04    0.45      35.0  T
   5    -83.6998758 -0.681268E-09  0.612E-05    0.45     252.1  T
   6    -83.6998758 -0.720775E-10  0.201E-05    0.45     769.4  T
     SCC iter.                  ...        0 min,  0.029 sec
     gradient                   ...        0 min,  0.053 sec
 * total energy  :   -82.9176804 Eh     change       -0.8795362E-04 Eh
   gradient norm :     0.0034462 Eh/α   predicted    -0.6644046E-04 ( -24.46%)
   displ. norm   :     0.2251202 α      lambda       -0.8256947E-04
   maximum displ.:     0.1485707 α      in ANC's #2, #3, #8, ...

........................................................................
.............................. CYCLE   20 ..............................
........................................................................
   1    -83.6998437 -0.836998E+02  0.448E-03    0.45       0.0  T
   2    -83.6998445 -0.734271E-06  0.210E-03    0.45       7.3  T
   3    -83.6998445 -0.864384E-07  0.862E-04    0.45      17.9  T
   4    -83.6998446 -0.145616E-08  0.376E-04    0.46      41.1  T
   5    -83.6998446 -0.570353E-09  0.501E-05    0.46     307.8  T
   6    -83.6998446 -0.424194E-10  0.160E-05    0.46     964.2  T
     SCC iter.                  ...        0 min,  0.031 sec
     gradient                   ...        0 min,  0.055 sec
 * total energy  :   -82.9177390 Eh     change       -0.5865549E-04 Eh
   gradient norm :     0.0039642 Eh/α   predicted    -0.4338117E-04 ( -26.04%)
   displ. norm   :     0.1995770 α      lambda       -0.6476880E-04
   maximum displ.:     0.1290826 α      in ANC's #2, #3, #8, ...
 * RMSD in coord.:     0.6111623 α      energy gain  -0.3466381E-01 Eh

generating ANC from model Hessian ...
Using Lindh-Hessian (1995)
 Shifting diagonal of input Hessian by   9.712094969626217E-003
 Lowest  eigenvalues of input Hessian
    0.000000    0.000000    0.000000    0.000000    0.000000    0.000000
    0.010000    0.010129    0.010372    0.010551    0.011860    0.012620
    0.012713    0.014057    0.014247    0.015637    0.017343    0.017963
 Highest eigenvalues
    2.076724    2.193040    2.242551    2.310852    2.370478    2.464420
 

........................................................................
.............................. CYCLE   21 ..............................
........................................................................
   1    -83.7002554 -0.837003E+02  0.304E-03    0.46       0.0  T
   2    -83.7002557 -0.299794E-06  0.139E-03    0.46      11.1  T
   3    -83.7002557 -0.329322E-07  0.632E-04    0.46      24.4  T
   4    -83.7002557 -0.976257E-09  0.279E-04    0.46      55.4  T
   5    -83.7002557 -0.530662E-09  0.449E-05    0.46     343.9  T
   6    -83.7002557 -0.337224E-10  0.131E-05    0.46    1174.7  T
     SCC iter.                  ...        0 min,  0.031 sec
     gradient                   ...        0 min,  0.057 sec
 * total energy  :   -82.9177848 Eh     change       -0.4572490E-04 Eh
   gradient norm :     0.0039584 Eh/α   predicted     0.0000000E+00 (-100.00%)
   displ. norm   :     0.0327410 α      lambda       -0.2759050E-04
   maximum displ.:     0.0173782 α      in ANC's #3, #1, #10, ...

........................................................................
.............................. CYCLE   22 ..............................
........................................................................
   1    -83.7008301 -0.837008E+02  0.231E-03    0.46       0.0  T
   2    -83.7008303 -0.189872E-06  0.121E-03    0.46      12.7  T
   3    -83.7008303 -0.210911E-07  0.582E-04    0.46      26.5  T
   4    -83.7008303 -0.585203E-09  0.182E-04    0.46      84.6  T
   5    -83.7008303 -0.109310E-09  0.240E-05    0.46     643.5  T
     SCC iter.                  ...        0 min,  0.027 sec
     gradient                   ...        0 min,  0.053 sec
 * total energy  :   -82.9178119 Eh     change       -0.2713607E-04 Eh
   gradient norm :     0.0019681 Eh/α   predicted    -0.1708279E-04 ( -37.05%)
   displ. norm   :     0.1221160 α      lambda       -0.4269265E-04
   maximum displ.:     0.0696645 α      in ANC's #3, #1, #14, ...

........................................................................
.............................. CYCLE   23 ..............................
........................................................................
   1    -83.7015777 -0.837016E+02  0.530E-03    0.47       0.0  T
   2    -83.7015789 -0.124234E-05  0.293E-03    0.46       5.3  T
   3    -83.7015790 -0.133644E-06  0.131E-03    0.47      11.8  T
   4    -83.7015790 -0.194881E-08  0.503E-04    0.47      30.7  T
   5    -83.7015790 -0.101966E-08  0.648E-05    0.47     238.0  T
   6    -83.7015790 -0.411973E-10  0.250E-05    0.47     616.3  T
     SCC iter.                  ...        0 min,  0.030 sec
     gradient                   ...        0 min,  0.053 sec
 * total energy  :   -82.9178480 Eh     change       -0.3606283E-04 Eh
   gradient norm :     0.0031576 Eh/α   predicted    -0.2283429E-04 ( -36.68%)
   displ. norm   :     0.0544943 α      lambda       -0.1959062E-04
   maximum displ.:     0.0325956 α      in ANC's #3, #1, #11, ...

........................................................................
.............................. CYCLE   24 ..............................
........................................................................
   1    -83.7014105 -0.837014E+02  0.912E-04    0.47       0.0  T
   2    -83.7014106 -0.276642E-07  0.474E-04    0.47      32.6  T
   3    -83.7014106 -0.235968E-08  0.222E-04    0.47      69.6  T
   4    -83.7014106 -0.146301E-09  0.881E-05    0.47     175.1  T
   5    -83.7014106 -0.482032E-10  0.148E-05    0.47    1040.5  T
     SCC iter.                  ...        0 min,  0.025 sec
     gradient                   ...        0 min,  0.053 sec
 * total energy  :   -82.9178669 Eh     change       -0.1888432E-04 Eh
   gradient norm :     0.0029450 Eh/α   predicted    -0.1012147E-04 ( -46.40%)
   displ. norm   :     0.2079717 α      lambda       -0.7898481E-04
   maximum displ.:     0.1194285 α      in ANC's #3, #1, #11, ...

........................................................................
.............................. CYCLE   25 ..............................
........................................................................
   1    -83.7004531 -0.837005E+02  0.419E-03    0.47       0.0  T
   2    -83.7004534 -0.337328E-06  0.190E-03    0.47       8.1  T
   3    -83.7004535 -0.213781E-07  0.925E-04    0.47      16.7  T
   4    -83.7004535 -0.482858E-08  0.311E-04    0.47      49.6  T
   5    -83.7004535 -0.585899E-09  0.551E-05    0.47     280.0  T
   6    -83.7004535 -0.402451E-10  0.219E-05    0.47     703.9  T
     SCC iter.                  ...        0 min,  0.031 sec
     gradient                   ...        0 min,  0.057 sec
 * total energy  :   -82.9179318 Eh     change       -0.6499422E-04 Eh
   gradient norm :     0.0025782 Eh/α   predicted    -0.4132954E-04 ( -36.41%)
   displ. norm   :     0.3009780 α      lambda       -0.8254060E-04
   maximum displ.:     0.1711906 α      in ANC's #3, #1, #11, ...

........................................................................
.............................. CYCLE   26 ..............................
........................................................................
   1    -83.6989495 -0.836989E+02  0.688E-03    0.48       0.0  T
   2    -83.6989501 -0.552296E-06  0.319E-03    0.48       4.8  T
   3    -83.6989501 -0.254027E-07  0.143E-03    0.48      10.8  T
   4    -83.6989501 -0.136455E-07  0.441E-04    0.48      35.0  T
   5    -83.6989501 -0.126505E-08  0.796E-05    0.48     193.9  T
   6    -83.6989501 -0.863452E-10  0.324E-05    0.48     475.6  T
     SCC iter.                  ...        0 min,  0.026 sec
     gradient                   ...        0 min,  0.056 sec
 * total energy  :   -82.9179742 Eh     change       -0.4230842E-04 Eh
   gradient norm :     0.0061299 Eh/α   predicted    -0.4506279E-04 (   6.51%)
   displ. norm   :     0.0455844 α      lambda       -0.4744569E-04
   maximum displ.:     0.0240389 α      in ANC's #3, #1, #18, ...

........................................................................
.............................. CYCLE   27 ..............................
........................................................................
   1    -83.6997147 -0.836997E+02  0.161E-03    0.48       0.0  T
   2    -83.6997147 -0.259128E-07  0.999E-04    0.48      15.4  T
   3    -83.6997147 -0.163693E-08  0.478E-04    0.48      32.3  T
   4    -83.6997147 -0.159322E-08  0.618E-05    0.48     249.8  T
   5    -83.6997147 -0.583498E-10  0.127E-05    0.48    1219.6  T
     SCC iter.                  ...        0 min,  0.025 sec
     gradient                   ...        0 min,  0.055 sec
 * total energy  :   -82.9180145 Eh     change       -0.4034197E-04 Eh
   gradient norm :     0.0045520 Eh/α   predicted    -0.2379193E-04 ( -41.02%)
   displ. norm   :     0.3237152 α      lambda       -0.1515491E-03
   maximum displ.:     0.1773039 α      in ANC's #3, #1, #11, ...

........................................................................
.............................. CYCLE   28 ..............................
........................................................................
   1    -83.7005223 -0.837005E+02  0.476E-03    0.48       0.0  T
   2    -83.7005228 -0.452785E-06  0.228E-03    0.48       6.8  T
   3    -83.7005228 -0.316859E-07  0.989E-04    0.48      15.6  T
   4    -83.7005228 -0.853869E-08  0.416E-04    0.48      37.1  T
   5    -83.7005228 -0.123690E-08  0.582E-05    0.48     265.3  T
   6    -83.7005228 -0.515286E-10  0.281E-05    0.48     549.5  T
     SCC iter.                  ...        0 min,  0.031 sec
     gradient                   ...        0 min,  0.056 sec
 * total energy  :   -82.9181342 Eh     change       -0.1197477E-03 Eh
   gradient norm :     0.0039399 Eh/α   predicted    -0.8374421E-04 ( -30.07%)
   displ. norm   :     0.4870890 α      lambda       -0.1860525E-03
   maximum displ.:     0.2595488 α      in ANC's #3, #1, #11, ...

........................................................................
.............................. CYCLE   29 ..............................
........................................................................
   1    -83.6990417 -0.836990E+02  0.104E-02    0.47       0.0  T
   2    -83.6990431 -0.134520E-05  0.474E-03    0.47       3.3  T
   3    -83.6990432 -0.682344E-07  0.193E-03    0.47       8.0  T
   4    -83.6990432 -0.355182E-07  0.632E-04    0.47      24.4  T
   5    -83.6990432 -0.328947E-08  0.127E-04    0.47     121.0  T
   6    -83.6990432 -0.349715E-09  0.498E-05    0.47     310.0  T
     SCC iter.                  ...        0 min,  0.031 sec
     gradient                   ...        0 min,  0.056 sec
 * total energy  :   -82.9182611 Eh     change       -0.1268200E-03 Eh
   gradient norm :     0.0069744 Eh/α   predicted    -0.1150991E-03 (  -9.24%)
   displ. norm   :     0.2563044 α      lambda       -0.2421572E-03
   maximum displ.:     0.1195548 α      in ANC's #18, #3, #1, ...

........................................................................
.............................. CYCLE   30 ..............................
........................................................................
   1    -83.7012645 -0.837013E+02  0.116E-02    0.46       0.0  T
   2    -83.7012671 -0.260601E-05  0.589E-03    0.46       2.6  T
   3    -83.7012673 -0.124917E-06  0.310E-03    0.46       5.0  T
   4    -83.7012673 -0.349645E-07  0.682E-04    0.46      22.6  T
   5    -83.7012673 -0.601820E-08  0.149E-04    0.46     103.6  T
   6    -83.7012673 -0.508209E-09  0.488E-05    0.46     316.5  T
     SCC iter.                  ...        0 min,  0.031 sec
     gradient                   ...        0 min,  0.055 sec
 * total energy  :   -82.9183505 Eh     change       -0.8940330E-04 Eh
   gradient norm :     0.0063617 Eh/α   predicted    -0.1290329E-03 (  44.33%)
   displ. norm   :     0.2801720 α      lambda       -0.1281150E-03
   maximum displ.:     0.1576707 α      in ANC's #3, #1, #2, ...

........................................................................
.............................. CYCLE   31 ..............................
........................................................................
   1    -83.6990250 -0.836990E+02  0.942E-03    0.46       0.0  T
   2    -83.6990256 -0.593783E-06  0.468E-03    0.46       3.3  T
   3    -83.6990256 -0.102424E-07  0.176E-03    0.46       8.8  T
   4    -83.6990256 -0.223096E-07  0.435E-04    0.46      35.5  T
   5    -83.6990256 -0.230277E-08  0.857E-05    0.46     180.1  T
   6    -83.6990256 -0.962217E-10  0.316E-05    0.46     487.8  T
     SCC iter.                  ...        0 min,  0.030 sec
     gradient                   ...        0 min,  0.053 sec
 * total energy  :   -82.9184093 Eh     change       -0.5888168E-04 Eh
   gradient norm :     0.0079136 Eh/α   predicted    -0.6910869E-04 (  17.37%)
   displ. norm   :     0.1081105 α      lambda       -0.2211167E-03
   maximum displ.:     0.0524170 α      in ANC's #9, #5, #18, ...

........................................................................
.............................. CYCLE   32 ..............................
........................................................................
   1    -83.7021381 -0.837021E+02  0.901E-03    0.48       0.0  T
   2    -83.7021405 -0.243526E-05  0.419E-03    0.48       3.7  T
   3    -83.7021408 -0.227626E-06  0.216E-03    0.48       7.2  T
   4    -83.7021408 -0.139320E-07  0.707E-04    0.48      21.8  T
   5    -83.7021408 -0.415724E-08  0.972E-05    0.48     158.8  T
   6    -83.7021408 -0.252115E-09  0.316E-05    0.48     487.7  T
     SCC iter.                  ...        0 min,  0.029 sec
     gradient                   ...        0 min,  0.052 sec
 * total energy  :   -82.9184576 Eh     change       -0.4826112E-04 Eh
   gradient norm :     0.0053307 Eh/α   predicted    -0.1118544E-03 ( 131.77%)
   displ. norm   :     0.1311626 α      lambda       -0.1164499E-03
   maximum displ.:     0.0537069 α      in ANC's #3, #1, #18, ...

........................................................................
.............................. CYCLE   33 ..............................
........................................................................
   1    -83.7011536 -0.837012E+02  0.373E-03    0.47       0.0  T
   2    -83.7011539 -0.278391E-06  0.164E-03    0.47       9.4  T
   3    -83.7011539 -0.104149E-07  0.875E-04    0.47      17.6  T
   4    -83.7011539 -0.204960E-08  0.196E-04    0.47      78.7  T
   5    -83.7011539 -0.983334E-09  0.507E-05    0.47     304.4  T
     SCC iter.                  ...        0 min,  0.024 sec
     gradient                   ...        0 min,  0.052 sec
 * total energy  :   -82.9185432 Eh     change       -0.8558828E-04 Eh
   gradient norm :     0.0028206 Eh/α   predicted    -0.5922809E-04 ( -30.80%)
   displ. norm   :     0.2516256 α      lambda       -0.1038299E-03
   maximum displ.:     0.1176658 α      in ANC's #3, #1, #11, ...

........................................................................
.............................. CYCLE   34 ..............................
........................................................................
   1    -83.6997318 -0.836997E+02  0.524E-03    0.47       0.0  T
   2    -83.6997321 -0.275175E-06  0.273E-03    0.47       5.7  T
   3    -83.6997321 -0.100662E-07  0.118E-03    0.47      13.1  T
   4    -83.6997321 -0.110729E-07  0.239E-04    0.47      64.6  T
   5    -83.6997321 -0.890026E-09  0.689E-05    0.47     223.8  T
   6    -83.6997321 -0.356835E-10  0.164E-05    0.47     938.1  T
     SCC iter.                  ...        0 min,  0.022 sec
     gradient                   ...        0 min,  0.053 sec
 * total energy  :   -82.9186031 Eh     change       -0.5991921E-04 Eh
   gradient norm :     0.0049387 Eh/α   predicted    -0.5520742E-04 (  -7.86%)
   displ. norm   :     0.0835672 α      lambda       -0.6844664E-04
   maximum displ.:     0.0495966 α      in ANC's #9, #5, #11, ...

........................................................................
.............................. CYCLE   35 ..............................
........................................................................
   1    -83.7010876 -0.837011E+02  0.405E-03    0.48       0.0  T
   2    -83.7010879 -0.283057E-06  0.201E-03    0.48       7.7  T
   3    -83.7010879 -0.129716E-07  0.106E-03    0.48      14.6  T
   4    -83.7010879 -0.660555E-08  0.257E-04    0.48      60.1  T
   5    -83.7010879 -0.447287E-09  0.309E-05    0.48     498.8  T
   6    -83.7010879 -0.194831E-10  0.100E-05    0.48    1543.2  T
     SCC iter.                  ...        0 min,  0.031 sec
     gradient                   ...        0 min,  0.055 sec
 * total energy  :   -82.9186475 Eh     change       -0.4441249E-04 Eh
   gradient norm :     0.0031322 Eh/α   predicted    -0.3446278E-04 ( -22.40%)
   displ. norm   :     0.1965515 α      lambda       -0.7109386E-04
   maximum displ.:     0.0910056 α      in ANC's #3, #9, #2, ...

........................................................................
.............................. CYCLE   36 ..............................
........................................................................
   1    -83.7012436 -0.837012E+02  0.324E-03    0.48       0.0  T
   2    -83.7012438 -0.155916E-06  0.166E-03    0.48       9.3  T
   3    -83.7012438 -0.153517E-07  0.811E-04    0.48      19.0  T
   4    -83.7012438 -0.382026E-08  0.177E-04    0.48      87.3  T
   5    -83.7012438 -0.273744E-09  0.405E-05    0.48     380.7  T
     SCC iter.                  ...        0 min,  0.024 sec
     gradient                   ...        0 min,  0.053 sec
 * total energy  :   -82.9186976 Eh     change       -0.5004270E-04 Eh
   gradient norm :     0.0025622 Eh/α   predicted    -0.3692062E-04 ( -26.22%)
   displ. norm   :     0.1214766 α      lambda       -0.3905288E-04
   maximum displ.:     0.0541516 α      in ANC's #3, #11, #2, ...

........................................................................
.............................. CYCLE   37 ..............................
........................................................................
   1    -83.7021206 -0.837021E+02  0.252E-03    0.48       0.0  T
   2    -83.7021207 -0.819751E-07  0.128E-03    0.48      12.1  T
   3    -83.7021207 -0.734622E-08  0.690E-04    0.48      22.4  T
   4    -83.7021207 -0.281028E-08  0.114E-04    0.48     135.6  T
   5    -83.7021207 -0.114795E-09  0.319E-05    0.48     483.8  T
     SCC iter.                  ...        0 min,  0.025 sec
     gradient                   ...        0 min,  0.090 sec
 * total energy  :   -82.9187217 Eh     change       -0.2416482E-04 Eh
   gradient norm :     0.0017817 Eh/α   predicted    -0.1981655E-04 ( -17.99%)
   displ. norm   :     0.1483359 α      lambda       -0.1460050E-04
   maximum displ.:     0.0740645 α      in ANC's #3, #11, #2, ...

........................................................................
.............................. CYCLE   38 ..............................
........................................................................
   1    -83.7016037 -0.837016E+02  0.296E-03    0.47       0.0  T
   2    -83.7016039 -0.157623E-06  0.157E-03    0.47       9.8  T
   3    -83.7016039 -0.164509E-07  0.752E-04    0.47      20.5  T
   4    -83.7016039 -0.427872E-08  0.161E-04    0.47      96.1  T
   5    -83.7016039 -0.185608E-09  0.385E-05    0.47     400.8  T
     SCC iter.                  ...        0 min,  0.038 sec
     gradient                   ...        0 min,  0.054 sec
 * total energy  :   -82.9187316 Eh     change       -0.9839659E-05 Eh
   gradient norm :     0.0017016 Eh/α   predicted    -0.7373598E-05 ( -25.06%)
   displ. norm   :     0.0568412 α      lambda       -0.1417446E-04
   maximum displ.:     0.0277287 α      in ANC's #4, #1, #9, ...

........................................................................
.............................. CYCLE   39 ..............................
........................................................................
   1    -83.7032137 -0.837032E+02  0.430E-03    0.47       0.0  T
   2    -83.7032140 -0.248488E-06  0.239E-03    0.47       6.5  T
   3    -83.7032140 -0.264194E-07  0.129E-03    0.47      11.9  T
   4    -83.7032140 -0.738652E-08  0.154E-04    0.47     100.2  T
   5    -83.7032140 -0.232774E-09  0.292E-05    0.47     528.0  T
     SCC iter.                  ...        0 min,  0.025 sec
     gradient                   ...        0 min,  0.056 sec
 * total energy  :   -82.9187354 Eh     change       -0.3851745E-05 Eh
   gradient norm :     0.0021195 Eh/α   predicted    -0.7098952E-05 (  84.30%)
   displ. norm   :     0.0179248 α      lambda       -0.8961571E-05
   maximum displ.:     0.0087456 α      in ANC's #5, #9, #18, ...

........................................................................
.............................. CYCLE   40 ..............................
........................................................................
   1    -83.7026903 -0.837027E+02  0.133E-03    0.47       0.0  T
   2    -83.7026903 -0.195815E-07  0.743E-04    0.47      20.8  T
   3    -83.7026903 -0.136085E-08  0.385E-04    0.47      40.1  T
   4    -83.7026903 -0.128948E-08  0.487E-05    0.47     316.5  T
   5    -83.7026903 -0.236611E-10  0.872E-06    0.47    1770.0  T
     SCC iter.                  ...        0 min,  0.025 sec
     gradient                   ...        0 min,  0.079 sec
 * total energy  :   -82.9187423 Eh     change       -0.6847755E-05 Eh
   gradient norm :     0.0012129 Eh/α   predicted    -0.4487120E-05 ( -34.47%)
   displ. norm   :     0.0477749 α      lambda       -0.8934228E-05
   maximum displ.:     0.0230046 α      in ANC's #9, #3, #5, ...

........................................................................
.............................. CYCLE   41 ..............................
........................................................................
   1    -83.7016978 -0.837017E+02  0.290E-03    0.47       0.0  T
   2    -83.7016979 -0.114622E-06  0.161E-03    0.47       9.6  T
   3    -83.7016979 -0.837380E-08  0.834E-04    0.47      18.5  T
   4    -83.7016980 -0.592014E-08  0.133E-04    0.47     116.0  T
   5    -83.7016980 -0.140787E-09  0.220E-05    0.47     702.6  T
     SCC iter.                  ...        0 min,  0.025 sec
     gradient                   ...        0 min,  0.054 sec
 * total energy  :   -82.9187479 Eh     change       -0.5653008E-05 Eh
   gradient norm :     0.0011496 Eh/α   predicted    -0.4472434E-05 ( -20.88%)
   displ. norm   :     0.0297029 α      lambda       -0.2941342E-05
   maximum displ.:     0.0152433 α      in ANC's #11, #4, #2, ...

........................................................................
.............................. CYCLE   42 ..............................
........................................................................
   1    -83.7019860 -0.837020E+02  0.852E-04    0.47       0.0  T
   2    -83.7019860 -0.974761E-08  0.440E-04    0.47      35.0  T
   3    -83.7019860 -0.930513E-09  0.236E-04    0.47      65.5  T
   4    -83.7019860 -0.421650E-09  0.360E-05    0.47     428.9  T
   5    -83.7019860 -0.738964E-11  0.112E-05    0.47    1382.2  T
     SCC iter.                  ...        0 min,  0.026 sec
     gradient                   ...        0 min,  0.056 sec
 * total energy  :   -82.9187512 Eh     change       -0.3298444E-05 Eh
   gradient norm :     0.0008030 Eh/α   predicted    -0.1475281E-05 ( -55.27%)
   displ. norm   :     0.0594587 α      lambda       -0.4668238E-05
   maximum displ.:     0.0290001 α      in ANC's #4, #11, #2, ...

   *** GEOMETRY OPTIMIZATION CONVERGED AFTER 42 ITERATIONS ***

------------------------------------------------------------------------
 total energy gain   :        -0.0356760 Eh      -22.3870 kcal/mol
 total RMSD          :         0.8015805 a0        0.4242 Å
 total power (kW/mol):        -2.2301742 (step)  -18.8249 (real)
------------------------------------------------------------------------

 ANCopt (total)                0 d,  0 h,  0 min,  4.976 sec
 optimizer setup                ...        0 min,  0.001 sec (  0.017%)
 model hessian                  ...        0 min,  0.043 sec (  0.860%)
 ANC generation                 ...        0 min,  0.005 sec (  0.104%)
 coordinate transformation      ...        0 min,  0.001 sec (  0.019%)
 single point calculation       ...        0 min,  4.899 sec ( 98.453%)
 optimization log               ...        0 min,  0.019 sec (  0.385%)
 hessian update                 ...        0 min,  0.001 sec (  0.018%)
 rational function              ...        0 min,  0.005 sec (  0.098%)

================
 final structure:
================
42
 xtb: 6.5.1 (579679a)
C            4.15050141952867       -1.17391337591819        3.96430116432542
O            4.24457295847839       -0.65205522576841        2.64529490007542
C            3.07350877891863       -0.50569125353235        1.98237484972592
O            2.00844875403193       -0.80769643470037        2.51124217624396
C            3.19585121976255        0.02343343263111        0.63334791808246
N            1.96946829339518        0.14173844648567        0.00536360571583
C            1.87701987386113        0.58656521217141       -1.19159101592637
C            0.51124564277102        0.69299680731297       -1.84378886934274
C            0.17876531899578        2.14705218270903       -2.19901678742931
C            0.41896796457042       -0.21687530596182       -3.07450264007449
N           -0.41945656016880        0.21755564981238       -0.81475616967345
C           -1.73325097241906        0.13383976706857       -0.94883362067196
O           -2.40736333219960        0.42395141507638       -1.92459799354787
C           -2.36535663932696       -0.39262657954452        0.30598536909528
N           -1.81635212146451       -0.74583175517700        1.40399190111629
N           -2.78957248453376       -1.16315638377639        2.27110476157479
C           -3.92646768702271       -1.06279347150334        1.70042105556489
C           -5.26361594602257       -1.38697713136541        2.22096780158671
O           -3.74803470876711       -0.56214061608695        0.40356765345048
C           -4.73399952390533       -0.29868084291389       -0.64380552465537
N            2.98230333104070        0.96965964159402       -1.91459769339020
C            4.26588629263638        0.90738576179121       -1.42046019694635
O            5.20324472285075        1.26422840300136       -2.12516382133728
C            4.41031722196710        0.38465286461118       -0.00495547296085
O            5.54948782898685        0.30879655145828        0.48504569715896
H            3.52378368210809       -0.53122844950145        4.59037663422270
H            3.72026099356997       -2.18016690327293        3.95127885280597
H            5.16229048562367       -1.20957227888039        4.36693044984107
H            0.91348422192793        2.52918533315399       -2.90516231649095
H            0.19253341394876        2.76268492776783       -1.30075341677530
H           -0.80791882909801        2.20365391594000       -2.65433041760956
H           -0.57611897256534       -0.15586983728218       -3.51025946863896
H            0.62124073626867       -1.24885575952153       -2.79123388649001
H            1.14779913882943        0.09910133572329       -3.81829871447285
H            0.03899160354411       -0.06280759781565        0.05951634024451
H           -5.15807722447266       -1.75898701414336        3.23860617412710
H           -5.74046171328153       -2.14819995908495        1.60341224674246
H           -5.89898596504703       -0.50097848553658        2.22169160634135
H           -4.64535069676468        0.75057211467896       -0.91772785196384
H           -5.70733884851239       -0.52456862957877       -0.22043767740239
H           -4.49779774771230       -0.94671611021800       -1.48592897487728
H            2.87554707567227        1.31280363809951       -2.85461362736292
 
 Bond Distances (Angstroems)
 ---------------------------
C1-O2=1.4216         C1-H26=1.0944        C1-H27=1.0945        C1-H28=1.0895        O2-C1=1.4216         O2-C3=1.3536         
C3-O2=1.3536         C3-O4=1.2269         C3-C5=1.4542         O4-C3=1.2269         C5-C3=1.4542         C5-N6=1.3829         
C5-C24=1.4187        N6-C5=1.3829         N6-C7=1.2803         C7-N6=1.2803         C7-C8=1.5172         C7-N21=1.3752        
C8-C7=1.5172         C8-C9=1.5333         C8-C10=1.5333        C8-N11=1.4667        C9-C8=1.5333         C9-H29=1.0883        
C9-H30=1.0891        C9-H31=1.0881        C10-C8=1.5333        C10-H32=1.0880       C10-H33=1.0891       C10-H34=1.0882       
N11-C8=1.4667        N11-C12=1.3233       N11-H35=1.0262       C12-N11=1.3233       C12-O13=1.2209       C12-C14=1.5004       
O13-C12=1.2209       C14-C12=1.5004       C14-N15=1.2774       C14-O19=1.3964       N15-C14=1.2774       N15-N16=1.3686       
N16-N15=1.3686       N16-C17=1.2760       C17-N16=1.2760       C17-C18=1.4711       C17-O19=1.4015       C18-C17=1.4711       
C18-H36=1.0886       C18-H37=1.0901       C18-H38=1.0903       O19-C14=1.3964       O19-C17=1.4015       O19-C20=1.4624       
C20-O19=1.4624       C20-H39=1.0880       C20-H40=1.0852       C20-H41=1.0885       N21-C7=1.3752        N21-C22=1.3768       
N21-H42=1.0064       C22-N21=1.3768       C22-O23=1.2258       C22-C24=1.5158       O23-C22=1.2258       C24-C5=1.4187        
C24-C22=1.5158       C24-O25=1.2424       O25-C24=1.2424       H26-C1=1.0944        H27-C1=1.0945        H28-C1=1.0895        
H29-C9=1.0883        H30-C9=1.0891        H31-C9=1.0881        H32-C10=1.0880       H33-C10=1.0891       H34-C10=1.0882       
H35-N11=1.0262       H36-C18=1.0886       H37-C18=1.0901       H38-C18=1.0903       H39-C20=1.0880       H40-C20=1.0852       
H41-C20=1.0885       H42-N21=1.0064       
 C  H  Rav=1.0893 sigma=0.0023  Rmin=1.0852  Rmax=1.0945    15
 C  C  Rav=1.4930 sigma=0.0386  Rmin=1.4187  Rmax=1.5333     8
 N  H  Rav=1.0163 sigma=0.0099  Rmin=1.0064  Rmax=1.0262     2
 N  C  Rav=1.3448 sigma=0.0634  Rmin=1.2760  Rmax=1.4667     8
 N  N  Rav=1.3686 sigma=0.0000  Rmin=1.3686  Rmax=1.3686     1
 O  C  Rav=1.3280 sigma=0.0925  Rmin=1.2209  Rmax=1.4624     9
 
 selected bond angles (degree)
 --------------------
H26-C1-O2=110.68               H27-C1-O2=110.64               H27-C1-H26=108.76              H28-C1-O2=107.06               
H28-C1-H26=109.85              H28-C1-H27=109.84              C3-O2-C1=115.90                O4-C3-O2=120.88                
C5-C3-O2=114.89                C5-C3-O4=124.23                N6-C5-C3=112.20                C24-C5-C3=125.59               
C24-C5-N6=122.21               C7-N6-C5=121.22                C8-C7-N6=119.42                N21-C7-N6=122.02               
N21-C7-C8=118.55               C9-C8-C7=111.18                C10-C8-C7=110.95               C10-C8-C9=111.33               
N11-C8-C7=104.29               N11-C8-C9=109.41               N11-C8-C10=109.43              H29-C9-C8=109.69               
H30-C9-C8=110.01               H30-C9-H29=109.16              H31-C9-C8=110.05               H31-C9-H29=108.81              
H31-C9-H30=109.10              H32-C10-C8=110.07              H33-C10-C8=110.02              H33-C10-H32=109.10             
H34-C10-C8=109.63              H34-C10-H32=108.81             H34-C10-H33=109.18             
 
 selected dihedral angles (degree)
 ---------------------------------
C3-O2-C1-H26=300.96           C3-O2-C1-H27= 61.59           C3-O2-C1-H28=181.26           O4-C3-O2-C1=  0.25            
C5-C3-O2-C1=180.29            N6-C5-C3-O2=179.60            N6-C5-C3-O4=359.64            C24-C5-C3-O2=359.81           
C24-C5-C3-O4=179.85           C7-N6-C5-C3=180.22            C7-N6-C5-C24=  0.02           C8-C7-N6-C5=179.70            
N21-C7-N6-C5=359.96           C9-C8-C7-N6=118.24            C9-C8-C7-N21=297.99           C10-C8-C7-N6=242.71           
C10-C8-C7-N21= 62.47          N11-C8-C7-N6=  0.43           N11-C8-C7-N21=180.18          H29-C9-C8-C7= 60.98           
H29-C9-C8-C10=296.72          H29-C9-C8-N11=175.64          H30-C9-C8-C7=300.90           H30-C9-C8-C10=176.64          
H30-C9-C8-N11= 55.56          H31-C9-C8-C7=180.66           H31-C9-C8-C10= 56.40          H31-C9-C8-N11=295.32          
H32-C10-C8-C7=178.03          H32-C10-C8-C9=302.42          H32-C10-C8-N11= 63.49         H33-C10-C8-C7= 57.78          
H33-C10-C8-C9=182.17          H33-C10-C8-N11=303.24         H34-C10-C8-C7=297.70          H34-C10-C8-C9= 62.09          
H34-C10-C8-N11=183.16         
           -------------------------------------------------
          |                Final Singlepoint                |
           -------------------------------------------------

          ...................................................
          :                      SETUP                      :
          :.................................................:
          :  # basis functions                 134          :
          :  # atomic orbitals                 134          :
          :  # shells                           84          :
          :  # electrons                       134          :
          :  # halogen bonds                     0          :
          :  max. iterations                   250          :
          :  Hamiltonian                  GFN1-xTB          :
          :  restarted?                      false          :
          :  GBSA solvation                   true          :
          :  PC potential                    false          :
          :  electronic temp.          300.0000000     K    :
          :  accuracy                    1.0000000          :
          :  -> integral cutoff          0.2500000E+02      :
          :  -> integral neglect         0.1000000E-07      :
          :  -> SCF convergence          0.1000000E-05 Eh   :
          :  -> wf. convergence          0.2000000E-04 e    :
          :  Broyden damping             0.4000000          :
          ...................................................

 iter      E             dE          RMSdq      gap      omega  full diag
   1    -83.7019860 -0.837020E+02  0.354E-06    0.47       0.0  T
   2    -83.7019860 -0.213163E-12  0.164E-06    0.47    9402.6  T
   3    -83.7019860  0.184741E-12  0.565E-07    0.47   27315.6  T

   *** convergence criteria satisfied after 3 iterations ***

         #    Occupation            Energy/Eh            Energy/eV
      -------------------------------------------------------------
         1        2.0000           -0.9630471             -26.2058
       ...           ...                  ...                  ...
        61        2.0000           -0.4656852             -12.6719
        62        2.0000           -0.4639995             -12.6261
        63        2.0000           -0.4493075             -12.2263
        64        2.0000           -0.4439301             -12.0800
        65        2.0000           -0.4287843             -11.6678
        66        2.0000           -0.3871939             -10.5361
        67        1.9998           -0.3739126             -10.1747 (HOMO)
        68        0.0002           -0.3564839              -9.7004 (LUMO)
        69                         -0.3083074              -8.3895
        70                         -0.2775649              -7.5529
        71                         -0.2494936              -6.7891
        72                         -0.2344845              -6.3806
       ...                                ...                  ...
       134                          0.7541364              20.5211
      -------------------------------------------------------------
                  HL-Gap            0.0174287 Eh            0.4743 eV
             Fermi-level           -0.3651983 Eh           -9.9376 eV

 SCC (total)                   0 d,  0 h,  0 min,  0.100 sec
 SCC setup                      ...        0 min,  0.002 sec (  1.618%)
 Dispersion                     ...        0 min,  0.000 sec (  0.243%)
 classical contributions        ...        0 min,  0.000 sec (  0.078%)
 integral evaluation            ...        0 min,  0.024 sec ( 24.608%)
 iterations                     ...        0 min,  0.016 sec ( 16.022%)
 molecular gradient             ...        0 min,  0.056 sec ( 56.236%)
 printout                       ...        0 min,  0.001 sec (  1.173%)

         :::::::::::::::::::::::::::::::::::::::::::::::::::::
         ::                     SUMMARY                     ::
         :::::::::::::::::::::::::::::::::::::::::::::::::::::
         :: total energy             -82.918751227025 Eh    ::
         :: total w/o Gsasa/hb       -82.897425323194 Eh    ::
         :: gradient norm              0.000805636773 Eh/a0 ::
         :: HOMO-LUMO gap              0.474258142225 eV    ::
         ::.................................................::
         :: SCC energy               -83.701985979229 Eh    ::
         :: -> electrostatic           0.472355903367 Eh    ::
         :: -> Gsolv                  -0.118020787177 Eh    ::
         ::    -> Gelec               -0.096694883346 Eh    ::
         ::    -> Gsasa               -0.024651461685 Eh    ::
         ::    -> Ghb                 -0.004298721151 Eh    ::
         ::    -> Gshift               0.007624279005 Eh    ::
         :: repulsion energy           0.809191015289 Eh    ::
         :: dispersion energy         -0.025956263085 Eh    ::
         :: halogen bond corr.         0.000000000000 Eh    ::
         :: add. restraining           0.000000000000 Eh    ::
         :: total charge               0.000000000176 e     ::
         :::::::::::::::::::::::::::::::::::::::::::::::::::::

           -------------------------------------------------
          |                Property Printout                |
           -------------------------------------------------

    * Orbital Energies and Occupations

         #    Occupation            Energy/Eh            Energy/eV
      -------------------------------------------------------------
         1        2.0000           -0.9630471             -26.2058
       ...           ...                  ...                  ...
        55        2.0000           -0.5061155             -13.7721
        56        2.0000           -0.5006378             -13.6230
        57        2.0000           -0.4966028             -13.5132
        58        2.0000           -0.4927566             -13.4086
        59        2.0000           -0.4814983             -13.1022
        60        2.0000           -0.4707093             -12.8087
        61        2.0000           -0.4656852             -12.6719
        62        2.0000           -0.4639995             -12.6261
        63        2.0000           -0.4493075             -12.2263
        64        2.0000           -0.4439301             -12.0800
        65        2.0000           -0.4287843             -11.6678
        66        2.0000           -0.3871939             -10.5361
        67        1.9998           -0.3739126             -10.1747 (HOMO)
        68        0.0002           -0.3564839              -9.7004 (LUMO)
        69                         -0.3083074              -8.3895
        70                         -0.2775649              -7.5529
        71                         -0.2494936              -6.7891
        72                         -0.2344845              -6.3806
        73                         -0.2044147              -5.5624
        74                         -0.1869007              -5.0858
        75                         -0.1733902              -4.7182
        76                         -0.1338104              -3.6412
        77                         -0.1256487              -3.4191
        78                         -0.1249690              -3.4006
       ...                                ...                  ...
       134                          0.7541364              20.5211
      -------------------------------------------------------------
                  HL-Gap            0.0174287 Eh            0.4743 eV
             Fermi-level           -0.3651983 Eh           -9.9376 eV

  Mulliken/CM5 charges         n(s)   n(p)   n(d)
     1C     0.17136  0.05185   0.972  2.857  0.000
     2O    -0.42806 -0.51082   1.687  4.741  0.000
     3C     0.54797  0.61291   0.974  2.478  0.000
     4O    -0.62724 -0.67073   1.735  4.892  0.000
     5C    -0.01751  0.05818   1.038  2.980  0.000
     6N    -0.38613 -0.58117   1.528  3.859  0.000
     7C     0.23813  0.38984   0.999  2.763  0.000
     8C     0.14822  0.18790   1.069  2.783  0.000
     9C    -0.10899 -0.24870   1.020  3.089  0.000
    10C    -0.10897 -0.24869   1.020  3.089  0.000
    11N    -0.30497 -0.65253   1.436  3.869  0.000
    12C     0.47261  0.58498   0.961  2.566  0.000
    13O    -0.56811 -0.62043   1.724  4.844  0.000
    14C     0.33566  0.46136   1.036  2.628  0.000
    15N    -0.16491 -0.27828   1.549  3.616  0.000
    16N    -0.19139 -0.30400   1.545  3.647  0.000
    17C     0.38559  0.49302   1.027  2.588  0.000
    18C    -0.11479 -0.25325   1.019  3.096  0.000
    19O    -0.19758 -0.29347   1.648  4.550  0.000
    20C     0.14976  0.02571   1.019  2.831  0.000
    21N    -0.31611 -0.66201   1.434  3.882  0.000
    22C     0.43007  0.53288   1.012  2.558  0.000
    23O    -0.59923 -0.63695   1.734  4.866  0.000
    24C     0.29160  0.33713   1.032  2.676  0.000
    25O    -0.62652 -0.66469   1.742  4.885  0.000
    26H     0.03479  0.09663   0.965  0.000  0.000
    27H     0.03438  0.09593   0.966  0.000  0.000
    28H     0.03755  0.09775   0.962  0.000  0.000
    29H     0.05037  0.10637   0.950  0.000  0.000
    30H     0.04787  0.10465   0.952  0.000  0.000
    31H     0.06131  0.12067   0.939  0.000  0.000
    32H     0.06137  0.12090   0.939  0.000  0.000
    33H     0.04778  0.10454   0.952  0.000  0.000
    34H     0.05043  0.10640   0.950  0.000  0.000
    35H     0.26011  0.47597   0.740  0.000  0.000
    36H     0.10459  0.16050   0.895  0.000  0.000
    37H     0.10333  0.15788   0.897  0.000  0.000
    38H     0.10377  0.15828   0.896  0.000  0.000
    39H     0.11636  0.18073   0.884  0.000  0.000
    40H     0.10116  0.16316   0.899  0.000  0.000
    41H     0.11514  0.17881   0.885  0.000  0.000
    42H     0.25923  0.46080   0.741  0.000  0.000

Wiberg/Mayer (AO) data.
largest (>0.10) Wiberg bond orders for each atom

 ---------------------------------------------------------------------------
     #   Z sym  total        # sym  WBO       # sym  WBO       # sym  WBO
 ---------------------------------------------------------------------------
     1   6 C    3.896 --    28 H    0.987    27 H    0.981    26 H    0.981
                             2 O    0.922
     2   8 O    2.165 --     3 C    1.056     1 C    0.922     4 O    0.110
     3   6 C    3.852 --     4 O    1.571     5 C    1.113     2 O    1.056
     4   8 O    1.848 --     3 C    1.571     2 O    0.110
     5   6 C    3.910 --    24 C    1.269     6 N    1.145     3 C    1.113
                            25 O    0.129
     6   7 N    3.074 --     7 C    1.624     5 C    1.145
     7   6 C    3.936 --     6 N    1.624    21 N    1.106     8 C    0.977
     8   6 C    3.921 --     9 C    0.982    10 C    0.982     7 C    0.977
                            11 N    0.913
     9   6 C    3.988 --    30 H    0.985    29 H    0.983     8 C    0.982
                            31 H    0.981
    10   6 C    3.988 --    33 H    0.985    34 H    0.983     8 C    0.982
                            32 H    0.981
    11   7 N    3.420 --    12 C    1.340     8 C    0.913    35 H    0.852
                            13 O    0.201
    12   6 C    3.932 --    13 O    1.556    11 N    1.340    14 C    0.962
    13   8 O    1.921 --    12 C    1.556    11 N    0.201
    14   6 C    3.795 --    15 N    1.711    12 C    0.962    19 O    0.882
    15   7 N    3.043 --    14 C    1.711    16 N    1.142
    16   7 N    3.025 --    17 C    1.704    15 N    1.142
    17   6 C    3.805 --    16 N    1.704    18 C    1.043    19 O    0.874
    18   6 C    3.971 --    17 C    1.043    36 H    0.970    37 H    0.952
                            38 H    0.952
    19   8 O    2.653 --    14 C    0.882    17 C    0.874    20 C    0.750
    20   6 C    3.728 --    40 H    0.975    41 H    0.968    39 H    0.968
                            19 O    0.750
    21   7 N    3.424 --    22 C    1.147     7 C    1.106    42 H    0.895
                            23 O    0.133
    22   6 C    3.875 --    23 O    1.593    21 N    1.147    24 C    0.963
    23   8 O    1.873 --    22 C    1.593    21 N    0.133
    24   6 C    3.943 --    25 O    1.529     5 C    1.269    22 C    0.963
    25   8 O    1.834 --    24 C    1.529     5 C    0.129
    26   1 H    1.014 --     1 C    0.981
    27   1 H    1.013 --     1 C    0.981
    28   1 H    1.015 --     1 C    0.987
    29   1 H    1.000 --     9 C    0.983
    30   1 H    1.002 --     9 C    0.985
    31   1 H    1.005 --     9 C    0.981
    32   1 H    1.005 --    10 C    0.981
    33   1 H    1.002 --    10 C    0.985
    34   1 H    1.000 --    10 C    0.983
    35   1 H    0.967 --    11 N    0.852
    36   1 H    0.990 --    18 C    0.970
    37   1 H    0.989 --    18 C    0.952
    38   1 H    0.989 --    18 C    0.952
    39   1 H    1.001 --    20 C    0.968
    40   1 H    0.991 --    20 C    0.975
    41   1 H    1.000 --    20 C    0.968
    42   1 H    0.943 --    21 N    0.895
 ---------------------------------------------------------------------------

Topologies differ in total number of bonds
Writing topology from bond orders to xtbtopo.mol

 dipole moment from electron density (au)
     X       Y       Z   
 -15.1168  -1.2061  -0.7485  total (Debye):   38.592

           -------------------------------------------------
          |                Geometry Summary                 |
           -------------------------------------------------

      molecular mass/u    :      351.3152409
   center of mass at/Å    :        0.5874222      -0.0344052       0.1040673
  moments of inertia/u·Å² :        0.1475532E+04   0.3983311E+04   0.5340255E+04
rotational constants/cm⁻¹ :        0.1142478E-01   0.4232065E-02   0.3156709E-02

 * 37 selected distances

     #   Z          #   Z                                           value/Å
     1   6 C        2   8 O                                       1.4216059
     2   8 O        3   6 C                                       1.3536163
     3   6 C        4   8 O                                       1.2268908
     6   7 N        7   6 C                                       1.2802805
     8   6 C        9   6 C                                       1.5332996
     8   6 C       10   6 C                                       1.5333099 (max)
     8   6 C       11   7 N                                       1.4666832
    11   7 N       12   6 C                                       1.3232691
    12   6 C       13   8 O                                       1.2209458
    14   6 C       15   7 N                                       1.2774109
    16   7 N       17   6 C                                       1.2760422
    17   6 C       18   6 C                                       1.4710642
    14   6 C       19   8 O                                       1.3964442
    17   6 C       19   8 O                                       1.4015423
    19   8 O       20   6 C                                       1.4623709
     7   6 C       21   7 N                                       1.3751916
    21   7 N       22   6 C                                       1.3768208
    22   6 C       23   8 O                                       1.2257997
     5   6 C       24   6 C                                       1.4187455
    24   6 C       25   8 O                                       1.2424030
     1   6 C       26   1 H                                       1.0944358
     1   6 C       27   1 H                                       1.0944509
     1   6 C       28   1 H                                       1.0895408
     9   6 C       29   1 H                                       1.0883379
     9   6 C       30   1 H                                       1.0890687
     9   6 C       31   1 H                                       1.0881453
    10   6 C       32   1 H                                       1.0880275
    10   6 C       33   1 H                                       1.0891002
    10   6 C       34   1 H                                       1.0882412
    11   7 N       35   1 H                                       1.0262217
    18   6 C       36   1 H                                       1.0886312
    18   6 C       37   1 H                                       1.0900537
    18   6 C       38   1 H                                       1.0902703
    20   6 C       39   1 H                                       1.0880368
    20   6 C       40   1 H                                       1.0851983
    20   6 C       41   1 H                                       1.0885371
    21   7 N       42   1 H                                       1.0063672 (min)

 * 5 distinct bonds (by element types)

   Z      Z             #   av. dist./Å        max./Å        min./Å
   1 H    6 C          15     1.0893384     1.0944509     1.0851983
   6 C    6 C           4     1.4891048     1.5333099     1.4187455
   1 H    7 N           2     1.0162944     1.0262217     1.0063672
   6 C    7 N           7     1.3393855     1.4666832     1.2760422
   6 C    8 O           9     1.3279576     1.4623709     1.2209458


optimized geometry written to: xtbopt.xyz


           -------------------------------------------------
          | TOTAL ENERGY              -82.918751227025 Eh   |
          | GRADIENT NORM               0.000805636773 Eh/α |
          | HOMO-LUMO GAP               0.474258142225 eV   |
           -------------------------------------------------

------------------------------------------------------------------------
 * finished run on 2023/06/21 at 17:17:08.028     
------------------------------------------------------------------------
 total:
 * wall-time:     0 d,  0 h,  0 min,  5.370 sec
 *  cpu-time:     0 d,  0 h,  0 min,  5.190 sec
 * ratio c/w:     0.967 speedup
 SCF:
 * wall-time:     0 d,  0 h,  0 min,  0.224 sec
 *  cpu-time:     0 d,  0 h,  0 min,  0.224 sec
 * ratio c/w:     0.997 speedup
 ANC optimizer:
 * wall-time:     0 d,  0 h,  0 min,  5.080 sec
 *  cpu-time:     0 d,  0 h,  0 min,  4.928 sec
 * ratio c/w:     0.970 speedup

