29
 energy: -54.508866083523 gnorm: 0.000576699158 xtb: 6.5.1 (579679a)
C            4.79878681008066        0.27217898642159       -0.83512807041817
O            3.63783938369974       -0.08064859300986       -0.06872491678322
C            2.45389429787883        0.17022452970637       -0.64830208694273
O            2.35911094720061        0.66126044311877       -1.74754169663142
C            1.28951705252076       -0.20927538028933        0.19967399489028
N            0.08519313031012        0.04851742468603       -0.40616292934977
C           -1.01920843714970       -0.21812982108721        0.20909703978170
C           -2.32232250496143        0.09777584598947       -0.51073894822937
C           -3.53797647210682       -0.57956565962041        0.11989428751885
C           -2.49733130053236        1.62448665545079       -0.52027497165274
N           -2.20215135514402       -0.35833535458504       -1.89181076635155
N           -1.02388188711800       -0.74578539013689        1.46530619513733
C            0.11434163272824       -1.05811345403584        2.18195093800811
O            0.03698710268865       -1.53209911076215        3.30329357022734
C            1.35345158909847       -0.75454136460451        1.45799447410638
O            2.47106156252797       -1.04984721572038        2.13449859426718
H            4.79153921794278        1.34344044820443       -1.04788156443661
H            4.80741781316764       -0.28601121079854       -1.77377845400273
H            5.66356290812928        0.01160828623691       -0.22974220611946
H           -3.38115833093903       -1.65439823959228        0.19843353118027
H           -3.74173087841443       -0.17338996721102        1.10945457510775
H           -4.40826223133875       -0.40230917911117       -0.51106272152446
H           -2.63269710745179        1.99629469996291        0.49418361230792
H           -1.61599914467583        2.09469153552573       -0.95555270571917
H           -3.37068317044412        1.88390935527596       -1.11705504130665
H           -2.16636633257111       -1.36911071164985       -1.90473739620474
H           -1.32424043679564       -0.01519409142703       -2.27093425046204
H           -1.89612986385662       -0.93900129632871        1.93369361940274
H            3.27743800552621       -0.84093717060849        1.63195529419890
