42
 energy: -83.005869556245 gnorm: 0.000316008477 xtb: 6.5.1 (579679a)
C           -5.34331235971837        0.86316480970267        1.93484620886332
O           -4.06646657664687        0.57040475557864        1.35088616711678
C           -3.92521451162723        0.84390915825402        0.06482952380828
O           -4.78953562092900        1.31127062847497       -0.63268573685487
C           -2.54561029625797        0.44725327441534       -0.43428301252884
N           -1.56891959105739        0.32045022394305        0.57952689955169
C           -0.47314579751035       -0.27188891275720        0.31179167838722
C            0.61322526440671       -0.35675915048685        1.36389422677228
C            0.54345514018833       -1.75176517813368        2.00356035266852
C            0.42257508067447        0.74313496750857        2.41230202922074
N            1.89576105987566       -0.17579221788772        0.67663732174870
C            3.08844811924596       -0.24541670512811        1.31051536318196
O            3.25484780681099       -0.56867573571605        2.47354554198219
C            4.22053435807708        0.10816433956483        0.41859106220865
N            5.48432599660073        0.13394126605175        0.70901694942888
N            6.14018123546860        0.52565931072283       -0.41760441743058
C            5.23668742615213        0.71701309476003       -1.32961405322371
C            5.43570316461193        1.15339092824531       -2.73047458558008
O            4.00168658127336        0.47178992280647       -0.86463962055713
N           -0.23543874704455       -0.95221002437504       -0.86509929075430
C           -1.21026050179221       -1.21848557000478       -1.79904220298929
O           -1.09431744851199       -2.11992227967588       -2.60058504813832
C           -2.41524549786586       -0.33073059798243       -1.71466864259779
C           -3.59264393907885       -0.74412368201162       -2.56489980823823
O           -2.12629616576383        1.04101344082742       -1.62543019736714
H           -5.55815123902141        1.92993046189412        1.84523192411184
H           -6.12178141249266        0.29061074679594        1.42698784566176
H           -5.27777216438739        0.57312933678169        2.98073689489945
H            0.74521128275635       -2.51644186692107        1.25590334251521
H            1.27422980472152       -1.83500990914804        2.80548978839430
H           -0.45311538229035       -1.90913108035732        2.41306263811567
H            0.48035399764057        1.72188517781705        1.93869596880687
H            1.19419719006034        0.66566519080247        3.17591066742467
H           -0.55559979039242        0.63286906256446        2.87730233861727
H            1.88131974464942        0.21648024112544       -0.25080254090027
H            4.48571453728431        1.13940138119243       -3.25844527166122
H            6.14090268985333        0.49079532333334       -3.23123093663411
H            5.84436482570548        2.16387504748221       -2.75187101743725
H            0.58975770354972       -1.53000244600710       -0.92608949691076
H           -4.31173364339819        0.06864273228903       -2.63268568009065
H           -4.07222587599115       -1.62188564471812       -2.13539173944698
H           -3.23670044783326       -0.99560382162560       -3.56372143414510
