47
 energy: -80.183529035055 gnorm: 0.000646595762 xtb: 6.5.1 (579679a)
C            0.94359785933821        2.36208645303157       -0.84693171756712
O            0.89351307056018        1.45666042324493       -1.93673285501274
C            0.97138512176281        0.09263361585387       -1.61005579059304
N            2.11809922800944       -0.54144612808318       -2.19174365084263
C            3.40217752643877        0.08811705747796       -1.89243931247886
C            3.74293550906143        0.15803163612939       -0.41418787380215
C            3.50904503801125       -0.92450609995542        0.43260421197645
C            3.82714696148209       -0.85467960774974        1.78118367843579
C            4.38002292126385        0.31634978715167        2.26686652710278
F            4.68937468759000        0.39250551808740        3.57702294049289
C            4.63284404653325        1.40960876403798        1.46020433441062
C            4.30845548469120        1.31905712461614        0.11249399731902
C           -0.06027865067012       -0.56810011486766       -1.00750213111121
N           -1.19810850846599        0.19143513258501       -0.66495665535805
C           -2.25543909332330       -0.34584040067402       -0.15905677056033
C           -3.39557860062843        0.62447601435548        0.17578084390745
C           -3.07296031582463        2.01995556623982       -0.38517885896534
C           -3.56313420298254        0.73718104908054        1.69769026797633
N           -4.65809700261411        0.16075464531763       -0.41090333594209
N           -2.37235352037217       -1.68596746300679        0.08706882353314
C           -3.52371528054180       -2.34793857169080        0.68680066403960
C           -1.22835871213693       -2.54961901504918       -0.10003766592182
O           -1.33209048855002       -3.76772045254061        0.23447731080654
C           -0.11867139743006       -1.95778629099505       -0.65031637035256
O            1.01242773541789       -2.79128085532783       -0.83080911604651
H            1.85104092876948        2.22242445304661       -0.24425611277019
H            0.06905727102292        2.24920870518061       -0.19303996921380
H            0.94778124870615        3.37167129715787       -1.26469595133163
H            2.14711623111122       -1.52248087599133       -1.92371963002032
H            4.17454125102229       -0.49415577460913       -2.40843980170467
H            3.40923273914350        1.09747386397555       -2.31764317894057
H            3.07094669125590       -1.83493092820805        0.03924981962473
H            3.65488481112412       -1.69119973291513        2.44669266141454
H            5.07144281955924        2.30770979464761        1.87471890329093
H            4.50982700787147        2.16470147217930       -0.53525177841178
H           -2.88037626443878        1.96333612182225       -1.45624202046970
H           -2.19268695547496        2.43426128960437        0.10558948972399
H           -3.91790481604984        2.68537038523924       -0.21297236370470
H           -2.61650028455744        1.02523392465571        2.15502108894072
H           -3.88974385222235       -0.20513414297713        2.13310879107372
H           -4.30766160534336        1.49748151115093        1.93257741137466
H           -5.40815261082670        0.74442784489196       -0.07024792923842
H           -4.62570743625681        0.27001975569494       -1.41669022258403
H           -4.44001554159200       -1.80016428255475        0.48107045737179
H           -3.60998349921079       -3.35017488658165        0.25823449979470
H           -3.39134215976822       -2.44974075001411        1.76889642892415
H            0.72196460954554       -3.67930883266159       -0.56330308858349
