42
 energy: -83.580416722920 gnorm: 0.000255187264 xtb: 6.5.1 (579679a)
C           -4.64187952706715       -0.29889549889141        2.03348328946056
O           -3.64184229584061       -1.23508640584879        1.64799477602069
C           -2.45588055001284       -0.68774564133310        1.16062662290628
O           -1.54228488978719       -0.32292374585315        2.16228892932687
C           -0.47711257486673       -1.23432048269747        2.39577274660972
C           -2.18535830057197       -0.49391748147730       -0.18699352914367
N           -0.89537216483581       -0.08525222394417       -0.52022569353244
C           -0.62808726416505        0.11386436203913       -1.79375899970448
C            0.78635054109734        0.60858370377218       -2.12571830057391
C            0.69436534418928        2.10571468245404       -2.46790981002111
C            1.34863795962655       -0.17811741408456       -3.31855811537988
N            1.62348238933612        0.40203922958299       -0.94984585433423
C            2.92628216462445        0.75011982720647       -0.85165224892954
O            3.57444494381573        1.30849563389538       -1.75511094400950
C            3.53871590077680        0.40212916810189        0.42582937764516
N            4.77580220412534        0.65532243916682        0.81340937191743
N            4.90752198687322        0.13112232099673        2.06921124358196
C            3.77182518200345       -0.40540657027170        2.38042468399494
C            3.43144027769820       -1.10958858132654        3.63961935332717
O            2.85133495310696       -0.27731479283695        1.40008356653560
N           -1.42682281594815       -0.00892920844753       -2.84482081198873
C           -2.72738035622261       -0.41940992878081       -2.60323464888155
O           -3.56613211569892       -0.55980739856235       -3.54614377517683
C           -3.08903917745605       -0.66876831073402       -1.25699620318965
O           -4.42076479721682       -1.04506789284862       -1.03612852624119
H           -4.26867385678081        0.38859275490726        2.80335284032946
H           -5.48045056176594       -0.86727396573169        2.44122002800745
H           -4.99009776497738        0.28540792831254        1.17162778260932
H           -0.84886180306705       -2.24278010118779        2.61971245818772
H            0.08531405810170       -0.86494642517700        3.25663478795213
H            0.19463157581691       -1.28491236073888        1.52807066983789
H            1.65968094820840        2.49660692574106       -2.78804016850954
H            0.35635883309069        2.66714747763965       -1.59648068078022
H           -0.02783599709607        2.23863450231246       -3.27401858850956
H            2.30281909005628        0.23472644348927       -3.64443298711497
H            0.63628074506159       -0.12769182047371       -4.14286306697970
H            1.49221092299402       -1.22297735494136       -3.04238127195199
H            1.14779827616914       -0.00100080696497       -0.14682170452226
H            2.56141792020579       -0.65019621703818        4.10895209997964
H            4.27710987449976       -1.06032870314613        4.32080924597981
H            3.19489777278068       -2.15433289355711        3.43719969573294
H           -4.82485005086771       -1.04403817273615       -1.92418464048569
