42
 energy: -83.000662906118 gnorm: 0.000708044967 xtb: 6.5.1 (579679a)
C           -6.10055697208180        0.39576765577536        1.31925671660551
O           -4.75409817087851        0.87326465670408        1.30808768603492
C           -3.86642743425180        0.28984134034893        0.52882107334834
O           -4.36025719131717       -0.72414590464464       -0.16226616114462
C           -3.64345560613229       -1.49896903592613       -1.12191671414316
C           -2.55806915412233        0.78096714835288        0.50487869462256
N           -1.63778457501454        0.11214134457820       -0.29996265059109
C           -0.42814388351476        0.51789529651157       -0.37211598133491
C            0.58388444273395       -0.17733788356272       -1.25916300847475
C            0.76983726402661        0.64134560919411       -2.54041344934237
C            0.14565160930442       -1.60722104373530       -1.58331144857106
N            1.86955605280992       -0.20247316340668       -0.55773926356583
C            1.98795499941487       -0.73825011154397        0.67776183847781
O            1.05337103722392       -1.12954495676802        1.35620805121378
C            3.39019105332626       -0.76536280979822        1.15994641702680
N            3.83059038810610       -1.18993695496749        2.30312903543057
N            5.18065696526115       -1.00246936881644        2.29866246260857
C            5.48088134032183       -0.47451375533609        1.15290072733655
C            6.81579794923564       -0.07730984643813        0.65616649197296
O            4.39322932442246       -0.29811192259277        0.38508868966905
N            0.02785010579973        1.63326313220567        0.29294344242649
C           -0.73740910806969        2.39197321312506        1.13495664553760
O           -0.27284432328054        3.36487704059175        1.70195358249522
C           -2.17920837806505        1.93122585292357        1.29342556491878
O           -2.91977380949060        2.54938928420033        2.05044951141433
H           -6.53647423862118        0.46894282447619        0.32118403825518
H           -6.64214664568481        1.03379388478339        2.01554054506552
H           -6.13202025378760       -0.64284987066389        1.65434896551291
H           -3.24503076627229       -0.86060322108956       -1.91151421711046
H           -2.82745190119210       -2.04430999475317       -0.64553489160386
H           -4.36972562413575       -2.19852441509828       -1.53583021974370
H           -0.18171828181562        0.72587715690223       -3.06267099398813
H            1.13265388534784        1.63952303656665       -2.30128513280945
H            1.48830632243396        0.15017966932998       -3.19363038615293
H           -0.75254826645622       -1.58263065926843       -2.19690496392245
H            0.93593478187074       -2.11648578222669       -2.13088654703638
H           -0.06589466463971       -2.15366298512174       -0.66485682434525
H            2.69901902589678       -0.00235381405730       -1.08884464564487
H            6.81898001389283        0.98511207542275        0.41408691428342
H            7.56743812423365       -0.28236054005288        1.41519995785476
H            7.05213524169019       -0.62974756613063       -0.25295390960272
H            0.98712132147291        1.91379738399215        0.15877235703323
