20
 energy: -38.328693686811 gnorm: 0.000391973623 xtb: 6.5.1 (579679a)
C            3.38571133353860        0.13685275552856        0.31322197643241
O            2.16225911390254       -0.58171743628406        0.22783765781809
C            1.10560031451416        0.09068003874650       -0.32681715109969
O            1.24202087821338        1.21306052258143       -0.79751130916616
C           -0.21638593891243       -0.60847732873143       -0.03060425905231
C           -0.18005725255363       -2.13560155223745       -0.12088843562209
N           -0.33723368170663       -0.08696449200194        1.32992296316507
N           -1.38403624108130        0.80054468826387        1.28076832800246
C           -1.90316483005717        0.80682866159193        0.11292263075615
C           -3.07188362356523        1.59754648928148       -0.36047467763437
O           -1.28159829907381       -0.06472294314606       -0.79062317146497
H            3.67354328309598        0.53158964441541       -0.66689303248419
H            3.30110738558113        0.97052680330461        1.01906831655938
H            4.14467115868416       -0.56240488753796        0.66244673200405
H           -1.13520840569455       -2.53300918538165        0.21741843058843
H           -0.00534497747388       -2.45128057398284       -1.14800745283762
H            0.61265206399450       -2.52038801058221        0.51668240616423
H           -3.85896271026679        0.93972794787908       -0.73418380493296
H           -3.46542301413537        2.18514267515073        0.46704427009554
H           -2.78826655700348        2.27206618314203       -1.17133041729146
