      -----------------------------------------------------------      
     |                   =====================                   |     
     |                           x T B                           |     
     |                   =====================                   |     
     |                         S. Grimme                         |     
     |          Mulliken Center for Theoretical Chemistry        |     
     |                    University of Bonn                     |     
      -----------------------------------------------------------      

   * xtb version 6.5.1 (579679a) compiled by 'ehlert@majestix' on 2022-07-11

   xtb is free software: you can redistribute it and/or modify it under
   the terms of the GNU Lesser General Public License as published by
   the Free Software Foundation, either version 3 of the License, or
   (at your option) any later version.
   
   xtb is distributed in the hope that it will be useful,
   but WITHOUT ANY WARRANTY; without even the implied warranty of
   MERCHANTABILITY or FITNESS FOR A PARTICULAR PURPOSE.  See the
   GNU Lesser General Public License for more details.
   
   Cite this work as:
   * C. Bannwarth, E. Caldeweyher, S. Ehlert, A. Hansen, P. Pracht,
     J. Seibert, S. Spicher, S. Grimme, WIREs Comput. Mol. Sci., 2020, 11,
     e01493. DOI: 10.1002/wcms.1493
   
   for GFN2-xTB:
   * C. Bannwarth, S. Ehlert and S. Grimme., J. Chem. Theory Comput., 2019,
     15, 1652-1671. DOI: 10.1021/acs.jctc.8b01176
   for GFN1-xTB:
   * S. Grimme, C. Bannwarth, P. Shushkov, J. Chem. Theory Comput., 2017,
     13, 1989-2009. DOI: 10.1021/acs.jctc.7b00118
   for GFN0-xTB:
   * P. Pracht, E. Caldeweyher, S. Ehlert, S. Grimme, ChemRxiv, 2019, preprint.
     DOI: 10.26434/chemrxiv.8326202.v1
   for GFN-FF:
   * S. Spicher and S. Grimme, Angew. Chem. Int. Ed., 2020, 59, 15665-15673.
     DOI: 10.1002/anie.202004239
   
   for ALPB and GBSA implicit solvation:
   * S. Ehlert, M. Stahn, S. Spicher, S. Grimme, J. Chem. Theory Comput.,
     2021, 17, 4250-4261. DOI: 10.1021/acs.jctc.1c00471
   
   for DFT-D4:
   * E. Caldeweyher, C. Bannwarth and S. Grimme, J. Chem. Phys., 2017,
     147, 034112. DOI: 10.1063/1.4993215
   * E. Caldeweyher, S. Ehlert, A. Hansen, H. Neugebauer, S. Spicher,
     C. Bannwarth and S. Grimme, J. Chem. Phys., 2019, 150, 154122.
     DOI: 10.1063/1.5090222
   * E. Caldeweyher, J.-M. Mewes, S. Ehlert and S. Grimme, Phys. Chem. Chem. Phys.
     2020, 22, 8499-8512. DOI: 10.1039/D0CP00502A
   
   for sTDA-xTB:
   * S. Grimme and C. Bannwarth, J. Chem. Phys., 2016, 145, 054103.
     DOI: 10.1063/1.4959605
   
   in the mass-spec context:
   * V. Asgeirsson, C. Bauer and S. Grimme, Chem. Sci., 2017, 8, 4879.
     DOI: 10.1039/c7sc00601b
   * J. Koopman and S. Grimme, ACS Omega 2019, 4, 12, 15120-15133.
     DOI: 10.1021/acsomega.9b02011
   
   for metadynamics refer to:
   * S. Grimme, J. Chem. Theory Comput., 2019, 155, 2847-2862
     DOI: 10.1021/acs.jctc.9b00143
   
   for SPH calculations refer to:
   * S. Spicher and S. Grimme, J. Chem. Theory Comput., 2021, 17, 1701-1714
     DOI: 10.1021/acs.jctc.0c01306
   
   with help from (in alphabetical order)
   P. Atkinson, C. Bannwarth, F. Bohle, G. Brandenburg, E. Caldeweyher
   M. Checinski, S. Dohm, S. Ehlert, S. Ehrlich, I. Gerasimov, C. Hölzer
   A. Katbashev, J. Koopman, C. Lavigne, S. Lehtola, F. März, M. Müller,
   F. Musil, H. Neugebauer, J. Pisarek, C. Plett, P. Pracht, F. Pultar,
   J. Seibert, P. Shushkov, S. Spicher, M. Stahn, M. Steiner, T. Strunk,
   J. Stückrath, T. Rose, and J. Unsleber
   
 * started run on 2023/06/20 at 15:14:57.013     

           -------------------------------------------------
          |                Calculation Setup                |
           -------------------------------------------------

          program call               : /lustre/hpc/kemi/ree/PhD/git/ReactivityQM/dep/xtb-6.5.1/bin/xtb --gfn 1 /lustre/hpc/kemi/ree/PhD/git/ReactivityQM/calculations/R03/reac01prodN06/conf12/R03_reac01prodN06_conf12_gfn1.xyz --opt --vfukui --chrg 1 --uhf 0 --alpb DMSO
          hostname                   : node068
          coordinate file            : /lustre/hpc/kemi/ree/PhD/git/ReactivityQM/calculations/R03/reac01prodN06/conf12/R03_reac01prodN06_conf12_gfn1.xyz
          omp threads                :                     1

   ID    Z sym.   atoms
    1    6 C      1, 3-7, 9, 10
    2    9 F      2
    3    7 N      8
    4    1 H      11-21

           -------------------------------------------------
          |                 G F N 1 - x T B                 |
           -------------------------------------------------

        Reference                      10.1021/acs.jctc.7b00118
      * Hamiltonian:
        H0-scaling (s, p, d)           1.850000    2.250000    2.000000
        zeta-weighting                 0.000000
      * Dispersion:
        s8                             2.400000
        a1                             0.630000
        a2                             5.000000
        s9                             0.000000
      * Repulsion:
        kExp                           1.500000
        rExp                           1.000000
      * Coulomb:
        alpha                          2.000000
        third order                    atomic
        anisotropic                    false
      * Halogen bond correction:
        rad-scale                      1.300000
        damping                        0.440000

      * Solvation model:               ALPB
        Solvent                        DMSO
        Parameter file                 internal GFN1-xTB/ALPB
        Dielectric constant                4.6680E+01
        Reference state                gsolv [1 M gas/solution]
        Free energy shift                  7.6243E-03 Eh       4.7843E+00 kcal/mol
        Temperature                        2.9815E+02 K
        Density                            1.1000E+00 kg/L
        Solvent mass                       7.8130E+01 g/mol
        Interaction kernel             P16
        Born radius scaling (c1)           1.7672E+00
        Born radii integrator          GBOBC
        Born offset                        0.0000E+00 a0       0.0000E+00 AA
        H-bond correction              true
        Ion screening                  false
        Surface tension                    1.0000E-05 Eh       1.5569E+01 dyn/cm
        Grid points                               230 per atom

          ...................................................
          :                      SETUP                      :
          :.................................................:
          :  # basis functions                  62          :
          :  # atomic orbitals                  62          :
          :  # shells                           42          :
          :  # electrons                        54          :
          :  # halogen bonds                     0          :
          :  max. iterations                   250          :
          :  Hamiltonian                  GFN1-xTB          :
          :  restarted?                      false          :
          :  GBSA solvation                   true          :
          :  PC potential                    false          :
          :  electronic temp.          300.0000000     K    :
          :  accuracy                    1.0000000          :
          :  -> integral cutoff          0.2500000E+02      :
          :  -> integral neglect         0.1000000E-07      :
          :  -> SCF convergence          0.1000000E-05 Eh   :
          :  -> wf. convergence          0.2000000E-04 e    :
          :  Broyden damping             0.4000000          :
          ...................................................

 iter      E             dE          RMSdq      gap      omega  full diag
   1    -31.0849432 -0.310849E+02  0.841E+00    3.92       0.0  T
   2    -31.1334417 -0.484985E-01  0.501E+00    2.93       1.0  T
   3    -31.1295590  0.388265E-02  0.864E-01    2.67       1.0  T
   4    -31.1375631 -0.800408E-02  0.167E-01    2.57       1.0  T
   5    -31.1379270 -0.363841E-03  0.278E-02    2.67       1.0  T
   6    -31.1379415 -0.145326E-04  0.710E-03    2.67       3.1  T
   7    -31.1379418 -0.267599E-06  0.152E-03    2.67      14.3  T
   8    -31.1379418 -0.504041E-08  0.480E-04    2.67      45.5  T
   9    -31.1379418 -0.823864E-09  0.675E-05    2.67     323.2  T
  10    -31.1379418 -0.461640E-10  0.227E-05    2.67     959.4  T

   *** convergence criteria satisfied after 10 iterations ***

         #    Occupation            Energy/Eh            Energy/eV
      -------------------------------------------------------------
         1        2.0000           -0.9806730             -26.6855
       ...           ...                  ...                  ...
        21        2.0000           -0.5392146             -14.6728
        22        2.0000           -0.5320401             -14.4775
        23        2.0000           -0.5142423             -13.9932
        24        2.0000           -0.4948632             -13.4659
        25        2.0000           -0.4900268             -13.3343
        26        2.0000           -0.4843040             -13.1786
        27        2.0000           -0.4154720             -11.3056 (HOMO)
        28                         -0.3174021              -8.6370 (LUMO)
        29                         -0.3081945              -8.3864
        30                         -0.3022228              -8.2239
        31                         -0.2411888              -6.5631
        32                         -0.1819327              -4.9506
       ...                                ...                  ...
        62                          0.6245752              16.9956
      -------------------------------------------------------------
                  HL-Gap            0.0980699 Eh            2.6686 eV
             Fermi-level           -0.3664371 Eh           -9.9713 eV

 SCC (total)                   0 d,  0 h,  0 min,  0.020 sec
 SCC setup                      ...        0 min,  0.001 sec (  2.547%)
 Dispersion                     ...        0 min,  0.000 sec (  0.339%)
 classical contributions        ...        0 min,  0.000 sec (  0.132%)
 integral evaluation            ...        0 min,  0.005 sec ( 24.596%)
 iterations                     ...        0 min,  0.005 sec ( 25.596%)
 molecular gradient             ...        0 min,  0.009 sec ( 46.112%)
 printout                       ...        0 min,  0.000 sec (  0.622%)

         :::::::::::::::::::::::::::::::::::::::::::::::::::::
         ::                     SUMMARY                     ::
         :::::::::::::::::::::::::::::::::::::::::::::::::::::
         :: total energy             -30.720149411733 Eh    ::
         :: total w/o Gsasa/hb       -30.705616669795 Eh    ::
         :: gradient norm              0.068244242853 Eh/a0 ::
         :: HOMO-LUMO gap              2.668618377172 eV    ::
         ::.................................................::
         :: SCC energy               -31.137941761943 Eh    ::
         :: -> electrostatic           0.127821228380 Eh    ::
         :: -> Gsolv                  -0.085441122325 Eh    ::
         ::    -> Gelec               -0.070908380386 Eh    ::
         ::    -> Gsasa               -0.015473499870 Eh    ::
         ::    -> Ghb                 -0.006683521073 Eh    ::
         ::    -> Gshift               0.007624279005 Eh    ::
         :: repulsion energy           0.427315439270 Eh    ::
         :: dispersion energy         -0.009523089060 Eh    ::
         :: halogen bond corr.         0.000000000000 Eh    ::
         :: add. restraining           0.000000000000 Eh    ::
         :: total charge               1.000000000000 e     ::
         :::::::::::::::::::::::::::::::::::::::::::::::::::::

      ----------------------------------------------------------- 
     |                   =====================                   |
     |                        A N C O P T                        |
     |                   =====================                   |
     |               Approximate Normal Coordinate               |
     |                Rational Function Optimizer                |
      ----------------------------------------------------------- 

          ...................................................
          :                      SETUP                      :
          :.................................................:
          :   optimization level            normal          :
          :   max. optcycles                   200          :
          :   ANC micro-cycles                  20          :
          :   degrees of freedom                57          :
          :.................................................:
          :   RF solver                   davidson          :
          :   write xtbopt.log                true          :
          :   linear?                        false          :
          :   energy convergence         0.5000000E-05 Eh   :
          :   grad. convergence          0.1000000E-02 Eh/α :
          :   maximium RF displ.         1.0000000          :
          :   Hlow (freq-cutoff)         0.1000000E-01      :
          :   Hmax (freq-cutoff)         5.0000000          :
          :   S6 in model hess.         20.0000000          :
          ...................................................

generating ANC from model Hessian ...
Using Lindh-Hessian (1995)
 Shifting diagonal of input Hessian by   9.061424744036347E-003
 Lowest  eigenvalues of input Hessian
    0.000000    0.000000    0.000000    0.000000    0.000000    0.000000
    0.010000    0.010756    0.012440    0.012741    0.014332    0.019140
    0.021484    0.025111    0.028179    0.033112    0.037918    0.043321
 Highest eigenvalues
    1.503641    1.585807    1.625676    1.926074    2.015596    2.051923
 

........................................................................
.............................. CYCLE    1 ..............................
........................................................................
   1    -31.1379418 -0.311379E+02  0.594E-06    2.67       0.0  T
   2    -31.1379418 -0.493827E-12  0.196E-06    2.67   11118.9  T
   3    -31.1379418 -0.355271E-14  0.109E-06    2.67   20105.9  T
     SCC iter.                  ...        0 min,  0.002 sec
     gradient                   ...        0 min,  0.009 sec
 * total energy  :   -30.7201494 Eh     change       -0.2003731E-11 Eh
   gradient norm :     0.0682442 Eh/α   predicted     0.0000000E+00 (-100.00%)
   displ. norm   :     0.3080999 α      lambda       -0.1538666E-01
   maximum displ.:     0.1466268 α      in ANC's #27, #14, #13, ...

........................................................................
.............................. CYCLE    2 ..............................
........................................................................
   1    -31.1393819 -0.311394E+02  0.703E-02    2.75       0.0  T
   2    -31.1394496 -0.677330E-04  0.441E-02    2.74       1.0  T
   3    -31.1394535 -0.388262E-05  0.243E-02    2.75       1.0  T
   4    -31.1394542 -0.738390E-06  0.300E-03    2.75       7.3  T
   5    -31.1394543 -0.818177E-07  0.732E-04    2.75      29.8  T
   6    -31.1394543 -0.750013E-09  0.181E-04    2.75     120.5  T
   7    -31.1394543 -0.941789E-10  0.222E-05    2.75     984.2  T
     SCC iter.                  ...        0 min,  0.003 sec
     gradient                   ...        0 min,  0.009 sec
 * total energy  :   -30.7309675 Eh     change       -0.1081806E-01 Eh
   gradient norm :     0.0323270 Eh/α   predicted    -0.8424231E-02 ( -22.13%)
   displ. norm   :     0.3099666 α      lambda       -0.5704287E-02
   maximum displ.:     0.1538592 α      in ANC's #6, #13, #5, ...

........................................................................
.............................. CYCLE    3 ..............................
........................................................................
   1    -31.1397420 -0.311397E+02  0.670E-02    2.88       0.0  T
   2    -31.1398664 -0.124420E-03  0.360E-02    2.88       1.0  T
   3    -31.1398712 -0.474371E-05  0.205E-02    2.88       1.1  T
   4    -31.1398714 -0.181142E-06  0.672E-03    2.88       3.2  T
   5    -31.1398715 -0.147336E-06  0.662E-04    2.88      33.0  T
   6    -31.1398715 -0.270278E-08  0.172E-04    2.88     127.1  T
   7    -31.1398715 -0.807567E-10  0.217E-05    2.88    1007.7  T
     SCC iter.                  ...        0 min,  0.003 sec
     gradient                   ...        0 min,  0.010 sec
 * total energy  :   -30.7343249 Eh     change       -0.3357482E-02 Eh
   gradient norm :     0.0108644 Eh/α   predicted    -0.3127332E-02 (  -6.85%)
   displ. norm   :     0.1884862 α      lambda       -0.7483086E-03
   maximum displ.:     0.1305582 α      in ANC's #5, #6, #13, ...

........................................................................
.............................. CYCLE    4 ..............................
........................................................................
   1    -31.1414611 -0.311415E+02  0.249E-02    2.93       0.0  T
   2    -31.1414771 -0.160370E-04  0.119E-02    2.93       1.8  T
   3    -31.1414775 -0.436214E-06  0.627E-03    2.93       3.5  T
   4    -31.1414776 -0.316064E-07  0.245E-03    2.93       8.9  T
   5    -31.1414776 -0.192605E-07  0.232E-04    2.93      94.1  T
   6    -31.1414776 -0.576051E-09  0.692E-05    2.93     315.5  T
   7    -31.1414776 -0.146017E-10  0.218E-05    2.93    1000.2  T
     SCC iter.                  ...        0 min,  0.003 sec
     gradient                   ...        0 min,  0.010 sec
 * total energy  :   -30.7348610 Eh     change       -0.5360924E-03 Eh
   gradient norm :     0.0080006 Eh/α   predicted    -0.3874579E-03 ( -27.73%)
   displ. norm   :     0.2329652 α      lambda       -0.4903122E-03
   maximum displ.:     0.1840540 α      in ANC's #5, #6, #1, ...

........................................................................
.............................. CYCLE    5 ..............................
........................................................................
   1    -31.1430799 -0.311431E+02  0.181E-02    2.97       0.0  T
   2    -31.1430850 -0.512917E-05  0.940E-03    2.97       2.3  T
   3    -31.1430851 -0.116999E-06  0.437E-03    2.97       5.0  T
   4    -31.1430851 -0.128026E-07  0.132E-03    2.97      16.6  T
   5    -31.1430851 -0.921140E-08  0.180E-04    2.97     121.5  T
   6    -31.1430851 -0.320025E-09  0.640E-05    2.97     340.9  T
     SCC iter.                  ...        0 min,  0.003 sec
     gradient                   ...        0 min,  0.010 sec
 * total energy  :   -30.7351870 Eh     change       -0.3259871E-03 Eh
   gradient norm :     0.0063518 Eh/α   predicted    -0.2584632E-03 ( -20.71%)
   displ. norm   :     0.1567476 α      lambda       -0.1853755E-03
   maximum displ.:     0.1261972 α      in ANC's #5, #1, #6, ...

........................................................................
.............................. CYCLE    6 ..............................
........................................................................
   1    -31.1438004 -0.311438E+02  0.823E-03    2.98       0.0  T
   2    -31.1438007 -0.271993E-06  0.377E-03    2.98       5.8  T
   3    -31.1438007 -0.118816E-07  0.166E-03    2.98      13.2  T
   4    -31.1438007 -0.259582E-08  0.317E-04    2.98      68.8  T
   5    -31.1438007 -0.737391E-09  0.953E-05    2.98     229.0  T
   6    -31.1438007 -0.565059E-10  0.307E-05    2.98     710.7  T
     SCC iter.                  ...        0 min,  0.003 sec
     gradient                   ...        0 min,  0.010 sec
 * total energy  :   -30.7353147 Eh     change       -0.1276828E-03 Eh
   gradient norm :     0.0040757 Eh/α   predicted    -0.9496551E-04 ( -25.62%)
   displ. norm   :     0.1070142 α      lambda       -0.8012986E-04
   maximum displ.:     0.0756438 α      in ANC's #5, #4, #1, ...

........................................................................
.............................. CYCLE    7 ..............................
........................................................................
   1    -31.1440112 -0.311440E+02  0.568E-03    2.98       0.0  T
   2    -31.1440117 -0.451428E-06  0.142E-03    2.98      15.4  T
   3    -31.1440117 -0.875670E-08  0.714E-04    2.98      30.6  T
   4    -31.1440117 -0.144637E-08  0.296E-04    2.98      73.8  T
   5    -31.1440117 -0.804405E-10  0.655E-05    2.98     333.1  T
   6    -31.1440117 -0.240092E-10  0.173E-05    2.98    1264.0  T
     SCC iter.                  ...        0 min,  0.003 sec
     gradient                   ...        0 min,  0.010 sec
 * total energy  :   -30.7353691 Eh     change       -0.5442340E-04 Eh
   gradient norm :     0.0022044 Eh/α   predicted    -0.4053309E-04 ( -25.52%)
   displ. norm   :     0.0859684 α      lambda       -0.3755492E-04
   maximum displ.:     0.0519400 α      in ANC's #4, #1, #5, ...

........................................................................
.............................. CYCLE    8 ..............................
........................................................................
   1    -31.1439280 -0.311439E+02  0.443E-03    2.98       0.0  T
   2    -31.1439283 -0.347294E-06  0.110E-03    2.98      19.8  T
   3    -31.1439283 -0.440649E-08  0.529E-04    2.98      41.2  T
   4    -31.1439283 -0.233609E-09  0.171E-04    2.98     127.9  T
   5    -31.1439283 -0.651461E-10  0.377E-05    2.98     578.1  T
     SCC iter.                  ...        0 min,  0.002 sec
     gradient                   ...        0 min,  0.009 sec
 * total energy  :   -30.7353974 Eh     change       -0.2824178E-04 Eh
   gradient norm :     0.0021529 Eh/α   predicted    -0.1891684E-04 ( -33.02%)
   displ. norm   :     0.1078016 α      lambda       -0.3848504E-04
   maximum displ.:     0.0758366 α      in ANC's #4, #1, #5, ...

........................................................................
.............................. CYCLE    9 ..............................
........................................................................
   1    -31.1438326 -0.311438E+02  0.519E-03    2.98       0.0  T
   2    -31.1438330 -0.427783E-06  0.161E-03    2.98      13.5  T
   3    -31.1438330 -0.760877E-08  0.860E-04    2.98      25.4  T
   4    -31.1438330 -0.870457E-09  0.240E-04    2.98      90.8  T
   5    -31.1438330 -0.349427E-09  0.521E-05    2.98     418.8  T
   6    -31.1438330 -0.143672E-10  0.162E-05    2.98    1349.5  T
     SCC iter.                  ...        0 min,  0.003 sec
     gradient                   ...        0 min,  0.009 sec
 * total energy  :   -30.7354273 Eh     change       -0.2994982E-04 Eh
   gradient norm :     0.0024159 Eh/α   predicted    -0.1946708E-04 ( -35.00%)
   displ. norm   :     0.1067780 α      lambda       -0.3611246E-04
   maximum displ.:     0.0785450 α      in ANC's #4, #1, #2, ...

........................................................................
.............................. CYCLE   10 ..............................
........................................................................
   1    -31.1438555 -0.311439E+02  0.462E-03    2.98       0.0  T
   2    -31.1438557 -0.229341E-06  0.177E-03    2.98      12.3  T
   3    -31.1438557 -0.650464E-08  0.963E-04    2.98      22.7  T
   4    -31.1438557 -0.166799E-08  0.190E-04    2.98     114.7  T
   5    -31.1438557 -0.278558E-09  0.479E-05    2.98     455.3  T
     SCC iter.                  ...        0 min,  0.002 sec
     gradient                   ...        0 min,  0.010 sec
 * total energy  :   -30.7354578 Eh     change       -0.3045846E-04 Eh
   gradient norm :     0.0021661 Eh/α   predicted    -0.1827061E-04 ( -40.01%)
   displ. norm   :     0.1522446 α      lambda       -0.4713220E-04
   maximum displ.:     0.1133131 α      in ANC's #4, #1, #2, ...

........................................................................
.............................. CYCLE   11 ..............................
........................................................................
   1    -31.1437578 -0.311438E+02  0.482E-03    2.98       0.0  T
   2    -31.1437580 -0.201049E-06  0.181E-03    2.98      12.1  T
   3    -31.1437580 -0.850473E-08  0.101E-03    2.98      21.5  T
   4    -31.1437580 -0.241586E-08  0.187E-04    2.98     116.6  T
   5    -31.1437580 -0.159524E-09  0.625E-05    2.98     349.2  T
     SCC iter.                  ...        0 min,  0.002 sec
     gradient                   ...        0 min,  0.009 sec
 * total energy  :   -30.7354963 Eh     change       -0.3850874E-04 Eh
   gradient norm :     0.0019723 Eh/α   predicted    -0.2411384E-04 ( -37.38%)
   displ. norm   :     0.2610020 α      lambda       -0.4482623E-04
   maximum displ.:     0.1951624 α      in ANC's #4, #1, #2, ...

........................................................................
.............................. CYCLE   12 ..............................
........................................................................
   1    -31.1434413 -0.311434E+02  0.554E-03    2.99       0.0  T
   2    -31.1434416 -0.275967E-06  0.213E-03    2.99      10.2  T
   3    -31.1434416 -0.136446E-07  0.113E-03    2.99      19.2  T
   4    -31.1434416 -0.261227E-08  0.211E-04    2.98     103.5  T
   5    -31.1434416 -0.169198E-09  0.856E-05    2.98     255.0  T
   6    -31.1434416 -0.291465E-10  0.269E-05    2.98     810.9  T
     SCC iter.                  ...        0 min,  0.003 sec
     gradient                   ...        0 min,  0.009 sec
 * total energy  :   -30.7355357 Eh     change       -0.3938811E-04 Eh
   gradient norm :     0.0032598 Eh/α   predicted    -0.2309309E-04 ( -41.37%)
   displ. norm   :     0.0573431 α      lambda       -0.2145293E-04
   maximum displ.:     0.0427898 α      in ANC's #4, #1, #5, ...

........................................................................
.............................. CYCLE   13 ..............................
........................................................................
   1    -31.1441169 -0.311441E+02  0.328E-03    2.99       0.0  T
   2    -31.1441170 -0.109343E-06  0.137E-03    2.98      15.9  T
   3    -31.1441170 -0.196241E-08  0.649E-04    2.98      33.6  T
   4    -31.1441170 -0.312134E-09  0.138E-04    2.98     157.8  T
   5    -31.1441170 -0.169244E-09  0.295E-05    2.98     739.9  T
     SCC iter.                  ...        0 min,  0.002 sec
     gradient                   ...        0 min,  0.009 sec
 * total energy  :   -30.7355514 Eh     change       -0.1571967E-04 Eh
   gradient norm :     0.0024663 Eh/α   predicted    -0.1076348E-04 ( -31.53%)
   displ. norm   :     0.1550870 α      lambda       -0.3227265E-04
   maximum displ.:     0.1236204 α      in ANC's #4, #1, #3, ...

........................................................................
.............................. CYCLE   14 ..............................
........................................................................
   1    -31.1440483 -0.311440E+02  0.495E-03    2.98       0.0  T
   2    -31.1440487 -0.356050E-06  0.213E-03    2.98      10.2  T
   3    -31.1440487 -0.100020E-07  0.106E-03    2.98      20.6  T
   4    -31.1440487 -0.106266E-08  0.222E-04    2.98      98.2  T
   5    -31.1440487 -0.343704E-09  0.763E-05    2.98     285.9  T
   6    -31.1440487 -0.190283E-10  0.230E-05    2.98     950.8  T
     SCC iter.                  ...        0 min,  0.003 sec
     gradient                   ...        0 min,  0.009 sec
 * total energy  :   -30.7355692 Eh     change       -0.1778047E-04 Eh
   gradient norm :     0.0021419 Eh/α   predicted    -0.1652504E-04 (  -7.06%)
   displ. norm   :     0.0487592 α      lambda       -0.1216809E-04
   maximum displ.:     0.0414448 α      in ANC's #4, #3, #2, ...

........................................................................
.............................. CYCLE   15 ..............................
........................................................................
   1    -31.1442464 -0.311442E+02  0.264E-03    2.98       0.0  T
   2    -31.1442464 -0.657592E-07  0.110E-03    2.98      19.9  T
   3    -31.1442465 -0.204886E-08  0.568E-04    2.98      38.4  T
   4    -31.1442465 -0.499345E-09  0.953E-05    2.98     228.9  T
   5    -31.1442465 -0.112117E-09  0.276E-05    2.98     790.8  T
     SCC iter.                  ...        0 min,  0.002 sec
     gradient                   ...        0 min,  0.009 sec
 * total energy  :   -30.7355775 Eh     change       -0.8271795E-05 Eh
   gradient norm :     0.0011220 Eh/α   predicted    -0.6101819E-05 ( -26.23%)
   displ. norm   :     0.1036298 α      lambda       -0.1099899E-04
   maximum displ.:     0.0927929 α      in ANC's #4, #3, #5, ...

........................................................................
.............................. CYCLE   16 ..............................
........................................................................
   1    -31.1440408 -0.311440E+02  0.459E-03    2.98       0.0  T
   2    -31.1440410 -0.188433E-06  0.212E-03    2.98      10.3  T
   3    -31.1440410 -0.569699E-08  0.978E-04    2.98      22.3  T
   4    -31.1440410 -0.117959E-08  0.146E-04    2.98     149.9  T
   5    -31.1440410 -0.278373E-09  0.472E-05    2.98     461.9  T
     SCC iter.                  ...        0 min,  0.002 sec
     gradient                   ...        0 min,  0.010 sec
 * total energy  :   -30.7355897 Eh     change       -0.1226592E-04 Eh
   gradient norm :     0.0014746 Eh/α   predicted    -0.5527560E-05 ( -54.94%)
   displ. norm   :     0.1692757 α      lambda       -0.1800721E-04
   maximum displ.:     0.1493039 α      in ANC's #4, #3, #1, ...

........................................................................
.............................. CYCLE   17 ..............................
........................................................................
   1    -31.1433942 -0.311434E+02  0.525E-03    2.97       0.0  T
   2    -31.1433944 -0.214874E-06  0.262E-03    2.98       8.3  T
   3    -31.1433944 -0.707819E-08  0.110E-03    2.98      19.8  T
   4    -31.1433944 -0.175431E-08  0.179E-04    2.98     122.2  T
   5    -31.1433944 -0.222265E-09  0.593E-05    2.98     367.8  T
     SCC iter.                  ...        0 min,  0.003 sec
     gradient                   ...        0 min,  0.010 sec
 * total energy  :   -30.7356061 Eh     change       -0.1635020E-04 Eh
   gradient norm :     0.0029832 Eh/α   predicted    -0.9119984E-05 ( -44.22%)
   displ. norm   :     0.0564857 α      lambda       -0.1975763E-04
   maximum displ.:     0.0457736 α      in ANC's #1, #4, #2, ...

........................................................................
.............................. CYCLE   18 ..............................
........................................................................
   1    -31.1439809 -0.311440E+02  0.204E-03    2.97       0.0  T
   2    -31.1439809 -0.527663E-08  0.120E-03    2.98      18.2  T
   3    -31.1439809  0.183746E-09  0.239E-04    2.98      91.5  T
   4    -31.1439809 -0.577824E-09  0.422E-05    2.98     517.5  T
   5    -31.1439809 -0.150351E-10  0.152E-05    2.98    1436.6  T
     SCC iter.                  ...        0 min,  0.003 sec
     gradient                   ...        0 min,  0.010 sec
 * total energy  :   -30.7356198 Eh     change       -0.1371308E-04 Eh
   gradient norm :     0.0027920 Eh/α   predicted    -0.9913153E-05 ( -27.71%)
   displ. norm   :     0.0801244 α      lambda       -0.1756580E-04
   maximum displ.:     0.0618041 α      in ANC's #4, #1, #3, ...

........................................................................
.............................. CYCLE   19 ..............................
........................................................................
   1    -31.1440132 -0.311440E+02  0.174E-03    2.98       0.0  T
   2    -31.1440132 -0.216474E-07  0.887E-04    2.98      24.6  T
   3    -31.1440132 -0.118828E-08  0.340E-04    2.98      64.2  T
   4    -31.1440132 -0.206086E-09  0.714E-05    2.98     305.6  T
   5    -31.1440132 -0.272848E-10  0.240E-05    2.98     910.5  T
     SCC iter.                  ...        0 min,  0.003 sec
     gradient                   ...        0 min,  0.010 sec
 * total energy  :   -30.7356346 Eh     change       -0.1478955E-04 Eh
   gradient norm :     0.0018853 Eh/α   predicted    -0.8845693E-05 ( -40.19%)
   displ. norm   :     0.1989417 α      lambda       -0.2265250E-04
   maximum displ.:     0.1551226 α      in ANC's #4, #1, #3, ...

........................................................................
.............................. CYCLE   20 ..............................
........................................................................
   1    -31.1436954 -0.311437E+02  0.408E-03    2.98       0.0  T
   2    -31.1436955 -0.148269E-06  0.237E-03    2.98       9.2  T
   3    -31.1436955 -0.802194E-08  0.841E-04    2.99      25.9  T
   4    -31.1436955 -0.190937E-08  0.260E-04    2.99      83.9  T
   5    -31.1436955 -0.308329E-09  0.552E-05    2.99     395.0  T
   6    -31.1436955 -0.113261E-10  0.262E-05    2.99     832.1  T
     SCC iter.                  ...        0 min,  0.003 sec
     gradient                   ...        0 min,  0.010 sec
 * total energy  :   -30.7356461 Eh     change       -0.1147811E-04 Eh
   gradient norm :     0.0022106 Eh/α   predicted    -0.1152796E-04 (   0.43%)
   displ. norm   :     0.0542868 α      lambda       -0.1319105E-04
   maximum displ.:     0.0471519 α      in ANC's #4, #3, #5, ...
 * RMSD in coord.:     0.4107935 α      energy gain  -0.1549664E-01 Eh

generating ANC from model Hessian ...
Using Lindh-Hessian (1995)
 Shifting diagonal of input Hessian by   8.888455019832861E-003
 Lowest  eigenvalues of input Hessian
    0.000000    0.000000    0.000000    0.000000    0.000000    0.000000
    0.010000    0.011444    0.012356    0.014097    0.015192    0.020673
    0.021346    0.023960    0.030115    0.031875    0.038593    0.054106
 Highest eigenvalues
    1.443554    1.588090    1.628482    1.879956    2.006803    2.045307
 

........................................................................
.............................. CYCLE   21 ..............................
........................................................................
   1    -31.1446676 -0.311447E+02  0.363E-03    2.99       0.0  T
   2    -31.1446677 -0.240567E-07  0.212E-03    2.99      10.3  T
   3    -31.1446677 -0.181743E-09  0.425E-04    2.99      51.3  T
   4    -31.1446677 -0.863782E-09  0.604E-05    2.99     361.3  T
   5    -31.1446677 -0.384794E-10  0.204E-05    2.99    1069.4  T
     SCC iter.                  ...        0 min,  0.003 sec
     gradient                   ...        0 min,  0.010 sec
 * total energy  :   -30.7356505 Eh     change       -0.4468230E-05 Eh
   gradient norm :     0.0012232 Eh/α   predicted     0.0000000E+00 (-100.00%)
   displ. norm   :     0.0107214 α      lambda       -0.1791967E-05
   maximum displ.:     0.0070790 α      in ANC's #2, #6, #3, ...

........................................................................
.............................. CYCLE   22 ..............................
........................................................................
   1    -31.1443680 -0.311444E+02  0.140E-03    2.99       0.0  T
   2    -31.1443680 -0.536073E-08  0.669E-04    2.99      32.6  T
   3    -31.1443680 -0.184201E-09  0.293E-04    2.99      74.6  T
   4    -31.1443680 -0.196589E-09  0.373E-05    2.99     584.3  T
   5    -31.1443680 -0.132481E-10  0.117E-05    2.99    1863.3  T
     SCC iter.                  ...        0 min,  0.003 sec
     gradient                   ...        0 min,  0.010 sec
 * total energy  :   -30.7356529 Eh     change       -0.2361440E-05 Eh
   gradient norm :     0.0004682 Eh/α   predicted    -0.1245775E-05 ( -47.25%)
   displ. norm   :     0.0135762 α      lambda       -0.9351871E-06
   maximum displ.:     0.0111540 α      in ANC's #2, #3, #6, ...

   *** GEOMETRY OPTIMIZATION CONVERGED AFTER 22 ITERATIONS ***

------------------------------------------------------------------------
 total energy gain   :        -0.0155035 Eh       -9.7286 kcal/mol
 total RMSD          :         0.4111569 a0        0.2176 Å
 total power (kW/mol):        -1.8501978 (step) -101.0803 (real)
------------------------------------------------------------------------

 ANCopt (total)                0 d,  0 h,  0 min,  0.403 sec
 optimizer setup                ...        0 min,  0.002 sec (  0.549%)
 model hessian                  ...        0 min,  0.006 sec (  1.593%)
 ANC generation                 ...        0 min,  0.001 sec (  0.206%)
 coordinate transformation      ...        0 min,  0.000 sec (  0.027%)
 single point calculation       ...        0 min,  0.389 sec ( 96.702%)
 optimization log               ...        0 min,  0.002 sec (  0.519%)
 hessian update                 ...        0 min,  0.000 sec (  0.031%)
 rational function              ...        0 min,  0.001 sec (  0.220%)

================
 final structure:
================
21
 xtb: 6.5.1 (579679a)
C            3.74488249575978        0.25086024688380        0.25900862029800
F            2.72110431167779       -0.74850064838459        0.41997874283560
C            1.26962490208731       -0.56996568235700        0.26252704864313
C            0.74020833069572       -0.94178987585271       -0.94572533012111
C           -0.63749488187949       -0.80064851370475       -1.07066261630731
C           -1.40727449568186       -0.30563250549661       -0.01689025409872
C           -2.89006328831562       -0.07435217299053       -0.20082798574138
N           -3.11236725220090        1.28647559742622       -0.68311345037529
C           -0.78816829644364        0.05172594529669        1.18220040452466
C            0.58668268205740       -0.07665135460117        1.34364824650818
H            3.60574281737764        0.95782008007780        1.07160408614723
H            3.58642693507103        0.68948783494370       -0.72173168426035
H            4.66908471356682       -0.31447563910329        0.33319374331005
H            1.35499857599076       -1.32346297171524       -1.74828234423267
H           -1.10884461238593       -1.08046557247284       -2.00495649129216
H           -3.41631895260275       -0.19955462606104        0.74916398780164
H           -3.29882963679016       -0.77646780702788       -0.93224782865826
H           -2.71930424903668        1.93627693123649       -0.01505607889516
H           -2.60734772698812        1.40914012903591       -1.55069188430894
H           -1.37771955508889        0.43702259146101        2.00525439393615
H            1.08497918313328        0.19316001340576        2.26360867428905
 
 Bond Distances (Angstroems)
 ---------------------------
C1-F2=1.4397         C1-H11=1.0860        C1-H12=1.0860        C1-H13=1.0859        F2-C1=1.4397         F2-C3=1.4709         
C3-F2=1.4709         C3-C4=1.3706         C3-C10=1.3706        C4-C3=1.3706         C4-C5=1.3905         C4-H14=1.0806        
C5-C4=1.3905         C5-C6=1.3957         C5-H15=1.0832        C6-C5=1.3957         C6-C7=1.5119         C6-C9=1.3960         
C7-C6=1.5119         C7-N8=1.4608         C7-H16=1.0932        C7-H17=1.0932        N8-C7=1.4608         N8-H18=1.0115        
N8-H19=1.0113        C9-C6=1.3960         C9-C10=1.3902        C9-H20=1.0833        C10-C3=1.3706        C10-C9=1.3902        
C10-H21=1.0805       H11-C1=1.0860        H12-C1=1.0860        H13-C1=1.0859        H14-C4=1.0806        H15-C5=1.0832        
H16-C7=1.0932        H17-C7=1.0932        H18-N8=1.0115        H19-N8=1.0113        H20-C9=1.0833        H21-C10=1.0805       
 C  H  Rav=1.0858 sigma=0.0044  Rmin=1.0805  Rmax=1.0932     9
 C  C  Rav=1.4037 sigma=0.0453  Rmin=1.3706  Rmax=1.5119     7
 N  H  Rav=1.0114 sigma=0.0001  Rmin=1.0113  Rmax=1.0115     2
 N  C  Rav=1.4608 sigma=0.0000  Rmin=1.4608  Rmax=1.4608     1
 F  C  Rav=1.4553 sigma=0.0156  Rmin=1.4397  Rmax=1.4709     2
 
 selected bond angles (degree)
 --------------------
H11-C1-F2=106.09               H12-C1-F2=106.12               H12-C1-H11=113.21              H13-C1-F2=103.66               
H13-C1-H11=113.38              H13-C1-H12=113.34              C3-F2-C1=127.27                C4-C3-F2=116.27                
C10-C3-F2=116.80               C10-C3-C4=126.91               C5-C4-C3=115.75                H14-C4-C3=122.06               
H14-C4-C5=122.19               C6-C5-C4=120.97                H15-C5-C4=118.84               H15-C5-C6=120.19               
C7-C6-C5=120.22                C9-C6-C5=119.65                C9-C6-C7=120.02                N8-C7-C6=109.39                
H16-C7-C6=110.42               H16-C7-N8=108.68               H17-C7-C6=110.48               H17-C7-N8=108.69               
H17-C7-H16=109.14              H18-N8-C7=108.74               H19-N8-C7=108.68               H19-N8-H18=107.14              
C10-C9-C6=120.98               H20-C9-C6=120.15               H20-C9-C10=118.87              C9-C10-C3=115.75               
H21-C10-C3=122.12              H21-C10-C9=122.13              
 
 selected dihedral angles (degree)
 ---------------------------------
C3-F2-C1-H11= 67.46           C3-F2-C1-H12=306.78           C3-F2-C1-H13=187.14           C4-C3-F2-C1= 97.77            
C10-C3-F2-C1=276.50           C5-C4-C3-F2=178.41            C5-C4-C3-C10=359.82           H14-C4-C3-F2=358.61           
H14-C4-C3-C10=180.03          C6-C5-C4-C3=  0.16            C6-C5-C4-H14=179.95           H15-C5-C4-C3=180.04           
H15-C5-C4-H14=359.84          C7-C6-C5-C4=176.01            C7-C6-C5-H15=356.13           C9-C6-C5-C4=359.89            
C9-C6-C5-H15=180.01           N8-C7-C6-C5=270.14            N8-C7-C6-C9= 86.25            H16-C7-C6-C5=150.58           
H16-C7-C6-C9=326.69           H17-C7-C6-C5= 29.75           H17-C7-C6-C9=205.86           H18-N8-C7-C6=301.73           
H18-N8-C7-H16= 62.36          H18-N8-C7-H17=181.03          H19-N8-C7-C6= 58.03           H19-N8-C7-H16=178.66          
H19-N8-C7-H17=297.33          C10-C9-C6-C5=  0.06           C10-C9-C6-C7=183.93           H20-C9-C6-C5=179.98           
H20-C9-C6-C7=  3.85           C9-C10-C3-F2=181.55           C9-C10-C3-C4=  0.13           H21-C10-C3-F2=  1.42          
H21-C10-C3-C4=180.00          C3-C10-C9-C6=359.94           C3-C10-C9-H20=180.01          H21-C10-C9-C6=180.07          
H21-C10-C9-H20=  0.15         
           -------------------------------------------------
          |                Final Singlepoint                |
           -------------------------------------------------

          ...................................................
          :                      SETUP                      :
          :.................................................:
          :  # basis functions                  62          :
          :  # atomic orbitals                  62          :
          :  # shells                           42          :
          :  # electrons                        54          :
          :  # halogen bonds                     0          :
          :  max. iterations                   250          :
          :  Hamiltonian                  GFN1-xTB          :
          :  restarted?                      false          :
          :  GBSA solvation                   true          :
          :  PC potential                    false          :
          :  electronic temp.          300.0000000     K    :
          :  accuracy                    1.0000000          :
          :  -> integral cutoff          0.2500000E+02      :
          :  -> integral neglect         0.1000000E-07      :
          :  -> SCF convergence          0.1000000E-05 Eh   :
          :  -> wf. convergence          0.2000000E-04 e    :
          :  Broyden damping             0.4000000          :
          ...................................................

 iter      E             dE          RMSdq      gap      omega  full diag
   1    -31.1443680 -0.311444E+02  0.453E-06    2.99       0.0  T
   2    -31.1443680 -0.639488E-13  0.235E-06    2.99    9275.5  T
   3    -31.1443680  0.497380E-13  0.244E-07    2.99   89467.9  T

   *** convergence criteria satisfied after 3 iterations ***

         #    Occupation            Energy/Eh            Energy/eV
      -------------------------------------------------------------
         1        2.0000           -1.0061245             -27.3780
       ...           ...                  ...                  ...
        21        2.0000           -0.5347753             -14.5520
        22        2.0000           -0.5283499             -14.3771
        23        2.0000           -0.5149954             -14.0137
        24        2.0000           -0.4969780             -13.5235
        25        2.0000           -0.4871030             -13.2547
        26        2.0000           -0.4813297             -13.0976
        27        2.0000           -0.4215495             -11.4709 (HOMO)
        28                         -0.3117976              -8.4844 (LUMO)
        29                         -0.3097103              -8.4276
        30                         -0.2567829              -6.9874
        31                         -0.1884592              -5.1282
        32                         -0.1810838              -4.9275
       ...                                ...                  ...
        62                          0.6138452              16.7036
      -------------------------------------------------------------
                  HL-Gap            0.1097519 Eh            2.9865 eV
             Fermi-level           -0.3666735 Eh           -9.9777 eV

 SCC (total)                   0 d,  0 h,  0 min,  0.016 sec
 SCC setup                      ...        0 min,  0.000 sec (  2.508%)
 Dispersion                     ...        0 min,  0.000 sec (  0.336%)
 classical contributions        ...        0 min,  0.000 sec (  0.122%)
 integral evaluation            ...        0 min,  0.005 sec ( 28.660%)
 iterations                     ...        0 min,  0.002 sec (  9.476%)
 molecular gradient             ...        0 min,  0.010 sec ( 57.966%)
 printout                       ...        0 min,  0.000 sec (  0.860%)

         :::::::::::::::::::::::::::::::::::::::::::::::::::::
         ::                     SUMMARY                     ::
         :::::::::::::::::::::::::::::::::::::::::::::::::::::
         :: total energy             -30.735652880366 Eh    ::
         :: total w/o Gsasa/hb       -30.721458787035 Eh    ::
         :: gradient norm              0.000469272249 Eh/a0 ::
         :: HOMO-LUMO gap              2.986501379642 eV    ::
         ::.................................................::
         :: SCC energy               -31.144368047417 Eh    ::
         :: -> electrostatic           0.128174846668 Eh    ::
         :: -> Gsolv                  -0.086572832238 Eh    ::
         ::    -> Gelec               -0.072378738907 Eh    ::
         ::    -> Gsasa               -0.015629142477 Eh    ::
         ::    -> Ghb                 -0.006189229858 Eh    ::
         ::    -> Gshift               0.007624279005 Eh    ::
         :: repulsion energy           0.418286426480 Eh    ::
         :: dispersion energy         -0.009571259428 Eh    ::
         :: halogen bond corr.         0.000000000000 Eh    ::
         :: add. restraining           0.000000000000 Eh    ::
         :: total charge               1.000000000000 e     ::
         :::::::::::::::::::::::::::::::::::::::::::::::::::::

           -------------------------------------------------
          |                Property Printout                |
           -------------------------------------------------

    * Orbital Energies and Occupations

         #    Occupation            Energy/Eh            Energy/eV
      -------------------------------------------------------------
         1        2.0000           -1.0061245             -27.3780
       ...           ...                  ...                  ...
        15        2.0000           -0.5899209             -16.0526
        16        2.0000           -0.5845948             -15.9076
        17        2.0000           -0.5740187             -15.6198
        18        2.0000           -0.5722447             -15.5716
        19        2.0000           -0.5679063             -15.4535
        20        2.0000           -0.5602464             -15.2451
        21        2.0000           -0.5347753             -14.5520
        22        2.0000           -0.5283499             -14.3771
        23        2.0000           -0.5149954             -14.0137
        24        2.0000           -0.4969780             -13.5235
        25        2.0000           -0.4871030             -13.2547
        26        2.0000           -0.4813297             -13.0976
        27        2.0000           -0.4215495             -11.4709 (HOMO)
        28                         -0.3117976              -8.4844 (LUMO)
        29                         -0.3097103              -8.4276
        30                         -0.2567829              -6.9874
        31                         -0.1884592              -5.1282
        32                         -0.1810838              -4.9275
        33                         -0.1419037              -3.8614
        34                         -0.1403842              -3.8200
        35                         -0.1290275              -3.5110
        36                         -0.1258349              -3.4241
        37                         -0.1236479              -3.3646
        38                         -0.1182782              -3.2185
       ...                                ...                  ...
        62                          0.6138452              16.7036
      -------------------------------------------------------------
                  HL-Gap            0.1097519 Eh            2.9865 eV
             Fermi-level           -0.3666735 Eh           -9.9777 eV

  Mulliken/CM5 charges         n(s)   n(p)   n(d)
     1C     0.16171  0.03130   1.064  2.775  0.000
     2F    -0.07465 -0.12118   1.801  5.274  0.000
     3C     0.20488  0.20975   1.086  2.709  0.000
     4C    -0.03211 -0.08379   1.062  2.970  0.000
     5C    -0.01322 -0.06629   1.068  2.946  0.000
     6C     0.01320  0.00195   1.103  2.884  0.000
     7C     0.08504  0.03461   1.008  2.907  0.000
     8N    -0.50144 -0.95610   1.476  4.026  0.000
     9C    -0.01274 -0.06580   1.067  2.945  0.000
    10C    -0.03367 -0.08548   1.062  2.972  0.000
    11H     0.11004  0.16353   0.890  0.000  0.000
    12H     0.10947  0.16309   0.891  0.000  0.000
    13H     0.12327  0.17650   0.877  0.000  0.000
    14H     0.09226  0.14944   0.908  0.000  0.000
    15H     0.07544  0.13282   0.925  0.000  0.000
    16H     0.04352  0.10833   0.956  0.000  0.000
    17H     0.04300  0.10783   0.957  0.000  0.000
    18H     0.21954  0.40892   0.780  0.000  0.000
    19H     0.21983  0.40924   0.780  0.000  0.000
    20H     0.07558  0.13305   0.924  0.000  0.000
    21H     0.09104  0.14828   0.909  0.000  0.000

Wiberg/Mayer (AO) data.
largest (>0.10) Wiberg bond orders for each atom

 ---------------------------------------------------------------------------
     #   Z sym  total        # sym  WBO       # sym  WBO       # sym  WBO
 ---------------------------------------------------------------------------
     1   6 C    3.678 --    11 H    0.980    12 H    0.980    13 H    0.974
                             2 F    0.718
     2   9 F    1.437 --     1 C    0.718     3 C    0.632
     3   6 C    3.687 --     4 C    1.432    10 C    1.431     2 F    0.632
     4   6 C    3.984 --     3 C    1.432     5 C    1.425    14 H    0.961
                             9 C    0.109
     5   6 C    3.988 --     4 C    1.425     6 C    1.411    15 H    0.967
                            10 C    0.109
     6   6 C    3.979 --     5 C    1.411     9 C    1.410     7 C    0.998
     7   6 C    3.977 --     6 C    0.998     8 N    0.987    17 H    0.977
                            16 H    0.976
     8   7 N    2.970 --     7 C    0.987    18 H    0.946    19 H    0.946
     9   6 C    3.988 --    10 C    1.426     6 C    1.410    20 H    0.967
                             4 C    0.109
    10   6 C    3.985 --     3 C    1.431     9 C    1.426    21 H    0.961
                             5 C    0.109
    11   1 H    0.993 --     1 C    0.980
    12   1 H    0.993 --     1 C    0.980
    13   1 H    0.992 --     1 C    0.974
    14   1 H    0.990 --     4 C    0.961
    15   1 H    0.995 --     5 C    0.967
    16   1 H    1.007 --     7 C    0.976
    17   1 H    1.007 --     7 C    0.977
    18   1 H    0.958 --     8 N    0.946
    19   1 H    0.958 --     8 N    0.946
    20   1 H    0.994 --     9 C    0.967
    21   1 H    0.990 --    10 C    0.961
 ---------------------------------------------------------------------------

Topologies differ in total number of bonds
Writing topology from bond orders to xtbtopo.mol

 dipole moment from electron density (au)
     X       Y       Z   
   4.2194  -0.0150   0.3565  total (Debye):   10.763

           -------------------------------------------------
          |                Geometry Summary                 |
           -------------------------------------------------

      molecular mass/u    :      140.1783418
   center of mass at/Å    :        0.1091546      -0.1703628       0.0543901
  moments of inertia/u·Å² :        0.1404842E+03   0.7679954E+03   0.8168472E+03
rotational constants/cm⁻¹ :        0.1199966E+00   0.2195017E-01   0.2063744E-01

 * 19 selected distances

     #   Z          #   Z                                           value/Å
     1   6 C        2   9 F                                       1.4397068
     3   6 C        4   6 C                                       1.3705507
     4   6 C        5   6 C                                       1.3905383
     5   6 C        6   6 C                                       1.3957213
     7   6 C        8   7 N                                       1.4607775 (max)
     6   6 C        9   6 C                                       1.3960001
     3   6 C       10   6 C                                       1.3706176
     9   6 C       10   6 C                                       1.3902380
     1   6 C       11   1 H                                       1.0860312
     1   6 C       12   1 H                                       1.0859807
     1   6 C       13   1 H                                       1.0859365
     4   6 C       14   1 H                                       1.0806199
     5   6 C       15   1 H                                       1.0832236
     7   6 C       16   1 H                                       1.0932089
     7   6 C       17   1 H                                       1.0931750
     8   7 N       18   1 H                                       1.0114550
     8   7 N       19   1 H                                       1.0113278 (min)
     9   6 C       20   1 H                                       1.0832554
    10   6 C       21   1 H                                       1.0804744

 * 5 distinct bonds (by element types)

   Z      Z             #   av. dist./Å        max./Å        min./Å
   1 H    6 C           9     1.0857673     1.0932089     1.0804744
   6 C    6 C           6     1.3856110     1.3960001     1.3705507
   1 H    7 N           2     1.0113914     1.0114550     1.0113278
   6 C    7 N           1     1.4607775     1.4607775     1.4607775
   6 C    9 F           1     1.4397068     1.4397068     1.4397068


optimized geometry written to: xtbopt.xyz


           -------------------------------------------------
          | TOTAL ENERGY              -30.735652880366 Eh   |
          | GRADIENT NORM               0.000469272249 Eh/α |
          | HOMO-LUMO GAP               2.986501379642 eV   |
           -------------------------------------------------

------------------------------------------------------------------------
 * finished run on 2023/06/20 at 15:14:57.498     
------------------------------------------------------------------------
 total:
 * wall-time:     0 d,  0 h,  0 min,  0.485 sec
 *  cpu-time:     0 d,  0 h,  0 min,  0.454 sec
 * ratio c/w:     0.937 speedup
 SCF:
 * wall-time:     0 d,  0 h,  0 min,  0.021 sec
 *  cpu-time:     0 d,  0 h,  0 min,  0.021 sec
 * ratio c/w:     1.000 speedup
 ANC optimizer:
 * wall-time:     0 d,  0 h,  0 min,  0.423 sec
 *  cpu-time:     0 d,  0 h,  0 min,  0.417 sec
 * ratio c/w:     0.988 speedup

