39
 energy: -79.830183345224 gnorm: 0.000661667848 xtb: 6.5.1 (579679a)
C           -6.02997865724732        0.96292933383331        1.95605010406056
O           -4.77137130632743        0.27579440642327        1.88487836708342
C           -3.97777655966768        0.60977371510234        0.85739411699842
O           -4.28832600018449        1.43562656660554        0.03321349830539
C           -2.69221127364286       -0.14271747962296        0.83734626330478
N           -1.87760536728721        0.22902656022832       -0.20589655191024
C           -0.73198759023741       -0.33803119128954       -0.35623557092825
C            0.13124073821746        0.00869307781498       -1.54986665364266
C           -0.26092445749233        1.37915757208649       -2.11007791192157
C           -0.07119506628245       -1.09983136972929       -2.59540399204515
N            1.52841086971292        0.03406454150912       -1.10171238607559
C            2.56574783948729        0.24217135101305       -1.94486525389362
O            2.48831690658456        0.31802027824964       -3.15873027705088
C            3.86327732047813        0.35131674933009       -1.23314766193809
N            5.04090834607633        0.50493896718898       -1.75379693918935
N            5.92536475521153        0.55676538220397       -0.71931959487660
C            5.23376802097101        0.43295808056606        0.37068070959368
C            5.72909846685405        0.42517564024147        1.76411582991314
O            3.92158903467246        0.29852965133676        0.11588323161876
N           -0.29442839646879       -1.32086231601923        0.48311607896946
C           -1.01373457616866       -1.78703113765520        1.56647225078003
O           -0.57159107080575       -2.66774827260552        2.28148562838101
C           -2.31332538860696       -1.11869318593814        1.72430337100340
O           -3.02964843300043       -1.55787096261957        2.76361621830170
H           -6.54814885488703        0.57322041799540        2.82858976402023
H           -6.60894228569581        0.77093593079590        1.05007533220736
H           -5.86011833799315        2.03667911461636        2.06088205738650
H           -0.06275081801944        2.15240557084157       -1.36978300672863
H            0.31022358298203        1.58892855005465       -3.01252792344967
H           -1.32362780366120        1.38167296311159       -2.34729651930430
H            0.26556468612217       -2.05377745642251       -2.19409095772927
H           -1.12998688907879       -1.17089795035260       -2.83984242767821
H            0.48770218357422       -0.87466667664150       -3.50130532383553
H            1.70291636655315        0.12579411180870       -0.11477890142717
H            6.80113868548030        0.60795583070355        1.77374003536077
H            5.51885065534255       -0.53912988699293        2.22711590167639
H            5.21909899084402        1.19400207014176        2.34370259999992
H            0.60705343837732       -1.74803768392660        0.33202310764258
H           -3.88259175479260       -1.09802086398762        2.85399638701095
