42
 energy: -82.887595542804 gnorm: 0.000381314988 xtb: 6.5.1 (579679a)
C           -6.81443350220958        0.80728505684193        0.77032813915949
O           -5.44365828909477        1.15851881392795        0.55893178125816
C           -4.61647265432459        0.16587471161421        0.26135586591058
O           -4.96129575997266       -0.99039311106597        0.16489150822716
C           -3.19921438877858        0.60603733167349        0.05601498819306
N           -2.33708913836637       -0.39964111716375       -0.06563106952058
C           -1.05296465184686       -0.18072735021926       -0.26121220372019
C           -0.13282076778643       -1.34312228886536       -0.53960918000776
C            0.14222777501667       -1.37707430612721       -2.05269401628543
C           -0.78981157072194       -2.65746774030719       -0.08590315904669
N            1.05238609483440       -1.10270588634817        0.24510743972086
C            2.44130281797812       -1.32424339666052       -0.16548379231462
C            3.15775602807957       -1.85009762714692        1.14620837758148
O            2.64966091435134       -2.07787652741454       -1.17708038025075
C            3.00216317735267        0.11422021872135       -0.32912176290519
N            2.31285830562333        1.19428461648024       -0.50342616878721
N            3.21979981874833        2.20819044668970       -0.67017154037819
C            4.39415666216147        1.67265834240787       -0.58071910952182
C            5.71008048906869        2.33724753474934       -0.70010847755300
O            4.31917195885517        0.34357081873883       -0.36199608859235
N           -0.52638626203734        1.05574780227161       -0.20242804028405
C           -1.27525266647081        2.21435583641779       -0.06998071949685
O           -0.73941087184783        3.30003608065581       -0.06693709875045
C           -2.77810408756513        1.99871237354262        0.02434486716404
O           -3.52478460779073        2.96230456089468        0.08600652649727
H           -7.24617436752470        0.41769417534893       -0.15419422527903
H           -7.32593471957071        1.71804962402294        1.07428863063628
H           -6.88921734088781        0.04798602642214        1.55171993800666
H            0.65019283748941       -2.29803051900024       -2.32772607101445
H           -0.81091079491885       -1.33040947676628       -2.57734987554596
H            0.75512640939744       -0.52620897716069       -2.34419924651726
H           -1.72237708515016       -2.79953194077383       -0.62925470496352
H           -0.99925748855106       -2.61905316311426        0.98092209592348
H           -0.11246385099582       -3.48354048668377       -0.29063983366863
H            0.91257537047001       -0.70763260200178        1.15948122183446
H            2.73005413814139       -2.81983802506632        1.38141978507446
H            4.21373012745948       -1.94783820058828        0.91117416367686
H            3.01191268674306       -1.15436016633970        1.96584044732621
H            6.26020693427239        1.92450409166359       -1.54596628564923
H            6.29817936354588        2.16366000750610        0.20046901271775
H            5.56743269991019        3.40557924330855       -0.84405321964341
H            0.49705925688946        1.17327519488830       -0.30069251916791
