
                                 *****************
                                 * O   R   C   A *
                                 *****************

                                            #,                                       
                                            ###                                      
                                            ####                                     
                                            #####                                    
                                            ######                                   
                                           ########,                                 
                                     ,,################,,,,,                         
                               ,,#################################,,                 
                          ,,##########################################,,             
                       ,#########################################, ''#####,          
                    ,#############################################,,   '####,        
                  ,##################################################,,,,####,       
                ,###########''''           ''''###############################       
              ,#####''   ,,,,##########,,,,          '''####'''          '####       
            ,##' ,,,,###########################,,,                        '##       
           ' ,,###''''                  '''############,,,                           
         ,,##''                                '''############,,,,        ,,,,,,###''
      ,#''                                            '''#######################'''  
     '                                                          ''''####''''         
             ,#######,   #######,   ,#######,      ##                                
            ,#'     '#,  ##    ##  ,#'     '#,    #''#        ######   ,####,        
            ##       ##  ##   ,#'  ##            #'  '#       #        #'  '#        
            ##       ##  #######   ##           ,######,      #####,   #    #        
            '#,     ,#'  ##    ##  '#,     ,#' ,#      #,         ##   #,  ,#        
             '#######'   ##     ##  '#######'  #'      '#     #####' # '####'        



                  #######################################################
                  #                        -***-                        #
                  #          Department of theory and spectroscopy      #
                  #    Directorship and core code : Frank Neese         #
                  #        Max Planck Institute fuer Kohlenforschung    #
                  #                Kaiser Wilhelm Platz 1               #
                  #                 D-45470 Muelheim/Ruhr               #
                  #                      Germany                        #
                  #                                                     #
                  #                  All rights reserved                #
                  #                        -***-                        #
                  #######################################################


                         Program Version 5.0.1 -  RELEASE  -


 With contributions from (in alphabetic order):
   Daniel Aravena         : Magnetic Suceptibility
   Michael Atanasov       : Ab Initio Ligand Field Theory (pilot matlab implementation)
   Alexander A. Auer      : GIAO ZORA, VPT2 properties, NMR spectrum
   Ute Becker             : Parallelization
   Giovanni Bistoni       : ED, misc. LED, open-shell LED, HFLD
   Martin Brehm           : Molecular dynamics
   Dmytro Bykov           : SCF Hessian
   Vijay G. Chilkuri      : MRCI spin determinant printing, contributions to CSF-ICE
   Dipayan Datta          : RHF DLPNO-CCSD density
   Achintya Kumar Dutta   : EOM-CC, STEOM-CC
   Dmitry Ganyushin       : Spin-Orbit,Spin-Spin,Magnetic field MRCI
   Miquel Garcia          : C-PCM and meta-GGA Hessian, CC/C-PCM, Gaussian charge scheme
   Yang Guo               : DLPNO-NEVPT2, F12-NEVPT2, CIM, IAO-localization
   Andreas Hansen         : Spin unrestricted coupled pair/coupled cluster methods
   Benjamin Helmich-Paris : MC-RPA, TRAH-SCF, COSX integrals
   Lee Huntington         : MR-EOM, pCC
   Robert Izsak           : Overlap fitted RIJCOSX, COSX-SCS-MP3, EOM
   Marcus Kettner         : VPT2
   Christian Kollmar      : KDIIS, OOCD, Brueckner-CCSD(T), CCSD density, CASPT2, CASPT2-K
   Simone Kossmann        : Meta GGA functionals, TD-DFT gradient, OOMP2, MP2 Hessian
   Martin Krupicka        : Initial AUTO-CI
   Lucas Lang             : DCDCAS
   Marvin Lechner         : AUTO-CI (C++ implementation), FIC-MRCC
   Dagmar Lenk            : GEPOL surface, SMD
   Dimitrios Liakos       : Extrapolation schemes; Compound Job, initial MDCI parallelization
   Dimitrios Manganas     : Further ROCIS development; embedding schemes
   Dimitrios Pantazis     : SARC Basis sets
   Anastasios Papadopoulos: AUTO-CI, single reference methods and gradients
   Taras Petrenko         : DFT Hessian,TD-DFT gradient, ASA, ECA, R-Raman, ABS, FL, XAS/XES, NRVS
   Peter Pinski           : DLPNO-MP2, DLPNO-MP2 Gradient
   Christoph Reimann      : Effective Core Potentials
   Marius Retegan         : Local ZFS, SOC
   Christoph Riplinger    : Optimizer, TS searches, QM/MM, DLPNO-CCSD(T), (RO)-DLPNO pert. Triples
   Tobias Risthaus        : Range-separated hybrids, TD-DFT gradient, RPA, STAB
   Michael Roemelt        : Original ROCIS implementation
   Masaaki Saitow         : Open-shell DLPNO-CCSD energy and density
   Barbara Sandhoefer     : DKH picture change effects
   Avijit Sen             : IP-ROCIS
   Kantharuban Sivalingam : CASSCF convergence, NEVPT2, FIC-MRCI
   Bernardo de Souza      : ESD, SOC TD-DFT
   Georgi Stoychev        : AutoAux, RI-MP2 NMR, DLPNO-MP2 response
   Willem Van den Heuvel  : Paramagnetic NMR
   Boris Wezisla          : Elementary symmetry handling
   Frank Wennmohs         : Technical directorship


 We gratefully acknowledge several colleagues who have allowed us to
 interface, adapt or use parts of their codes:
   Stefan Grimme, W. Hujo, H. Kruse, P. Pracht,  : VdW corrections, initial TS optimization,
                  C. Bannwarth, S. Ehlert          DFT functionals, gCP, sTDA/sTD-DF
   Ed Valeev, F. Pavosevic, A. Kumar             : LibInt (2-el integral package), F12 methods
   Garnet Chan, S. Sharma, J. Yang, R. Olivares  : DMRG
   Ulf Ekstrom                                   : XCFun DFT Library
   Mihaly Kallay                                 : mrcc  (arbitrary order and MRCC methods)
   Jiri Pittner, Ondrej Demel                    : Mk-CCSD
   Frank Weinhold                                : gennbo (NPA and NBO analysis)
   Christopher J. Cramer and Donald G. Truhlar   : smd solvation model
   Lars Goerigk                                  : TD-DFT with DH, B97 family of functionals
   V. Asgeirsson, H. Jonsson                     : NEB implementation
   FAccTs GmbH                                   : IRC, NEB, NEB-TS, DLPNO-Multilevel, CI-OPT
                                                   MM, QMMM, 2- and 3-layer-ONIOM, Crystal-QMMM,
                                                   LR-CPCM, SF, NACMEs, symmetry and pop. for TD-DFT,
                                                   nearIR, NL-DFT gradient (VV10), updates on ESD,
                                                   ML-optimized integration grids
   S Lehtola, MJT Oliveira, MAL Marques          : LibXC Library
   Liviu Ungur et al                             : ANISO software


 Your calculation uses the libint2 library for the computation of 2-el integrals
 For citations please refer to: http://libint.valeyev.net

 Your ORCA version has been built with support for libXC version: 5.1.0
 For citations please refer to: https://tddft.org/programs/libxc/

 This ORCA versions uses:
   CBLAS   interface :  Fast vector & matrix operations
   LAPACKE interface :  Fast linear algebra routines
   SCALAPACK package :  Parallel linear algebra routines
   Shared memory     :  Shared parallel matrices
   BLAS/LAPACK       :  OpenBLAS 0.3.15  USE64BITINT DYNAMIC_ARCH NO_AFFINITY Haswell SINGLE_THREADED
        Core in use  :  Haswell
   Copyright (c) 2011-2014, The OpenBLAS Project


Your calculation utilizes the geometrical counterpoise correction gCP
Please cite in your paper:
H.Kruse, S. Grimme J.Chem.Phys., 136, (2012), 154101 
   

Your calculation utilizes the atom-pairwise dispersion correction
based on tight binding partial charges (D4)
Cite in your paper:
E.Caldeweyher, C.Bannwarth, S.Grimme, J.Chem.Phys., (2017), 147, 034112.
E.Caldeweyher, S.Ehlert, A.Hansen, H.Neugebauer, S.Grimme, J.Chem.Phys., (2018), in progress.
   

Your calculation utilizes the SMD solvation module
Please cite in your paper:
A.V. Marenich, C.J. Cramer, D.G. Truhlar J. Phys. Chem. B, 113, (2009), 6378 

================================================================================

----- Orbital basis set information -----
Your calculation utilizes the basis: def2-mTZVPP
   Stefan Grimme, Andreas Hansen, Sebastian Ehlert, and Jan-Michael Mewes 
   J. Chem. Phys. 154, 000000 (2021). DOI: 10.1063/5.0040021

----- AuxJ basis set information -----
Your calculation utilizes the basis: def2-mTZVPP/J
   Stefan Grimme, Andreas Hansen, Sebastian Ehlert, and Jan-Michael Mewes 
   J. Chem. Phys. 154, 000000 (2021). DOI: 10.1063/5.0040021

================================================================================
                                        WARNINGS
                       Please study these warnings very carefully!
================================================================================

Using LibXC functional ID 497 : Re-regularized SCAN exchange by Furness et al
[ 1]  J. W. Furness, A. D. Kaplan, J. Ning, J. P. Perdew, and J. Sun, J. Phys. Chem. Lett. 11, 8208 (2020)
[ 2]  J. W. Furness, A. D. Kaplan, J. Ning, J. P. Perdew, and J. Sun, J. Phys. Chem. Lett. 11, 9248 (2020)
Using LibXC functional ID 498 : Re-regularized SCAN correlation by Furness et al
[ 1]  J. W. Furness, A. D. Kaplan, J. Ning, J. P. Perdew, and J. Sun, J. Phys. Chem. Lett. 11, 8208 (2020)
[ 2]  J. W. Furness, A. D. Kaplan, J. Ning, J. P. Perdew, and J. Sun, J. Phys. Chem. Lett. 11, 9248 (2020)
Using LibXC functional ID 497 : Re-regularized SCAN exchange by Furness et al
[ 1]  J. W. Furness, A. D. Kaplan, J. Ning, J. P. Perdew, and J. Sun, J. Phys. Chem. Lett. 11, 8208 (2020)
[ 2]  J. W. Furness, A. D. Kaplan, J. Ning, J. P. Perdew, and J. Sun, J. Phys. Chem. Lett. 11, 9248 (2020)
Using LibXC functional ID 498 : Re-regularized SCAN correlation by Furness et al
[ 1]  J. W. Furness, A. D. Kaplan, J. Ning, J. P. Perdew, and J. Sun, J. Phys. Chem. Lett. 11, 8208 (2020)
[ 2]  J. W. Furness, A. D. Kaplan, J. Ning, J. P. Perdew, and J. Sun, J. Phys. Chem. Lett. 11, 9248 (2020)

INFO   : the flag for use of the SHARK integral package has been found!

================================================================================
                                       INPUT FILE
================================================================================
NAME = /lustre/hpc/kemi/ree/PhD/git/ReactivityQM/calculations/R02methylcation/reac01prodN01/conf11/gfn1/orca_calc.inp
|  1> # ORCA input file 
|  2> ! SP r2SCAN-3c CPCM 
|  3> 
|  4> %maxcore 1875.0 
|  5> %pal nprocs 4 end 
|  6> %cpcm smd true SMDsolvent "DMSO" end 
|  7> 
|  8> *xyz 0 1
|  9> C       4.152067   -1.172839    3.964690
| 10> O       4.245408   -0.652075    2.645106
| 11> C       3.074194   -0.505826    1.982476
| 12> O       2.009194   -0.807416    2.511777
| 13> C       3.196107    0.022613    0.633162
| 14> N       1.969667    0.140364    0.005108
| 15> C       1.876975    0.585944   -1.191541
| 16> C       0.511055    0.692091   -1.843612
| 17> C       0.177588    2.146327   -2.197165
| 18> C       0.419480   -0.216601   -3.075245
| 19> N      -0.419278    0.215016   -0.815067
| 20> C      -1.733199    0.132653   -0.948870
| 21> O      -2.406975    0.423906   -1.924580
| 22> C      -2.365727   -0.393895    0.305644
| 23> N      -1.816959   -0.748072    1.403473
| 24> N      -2.790471   -1.164719    2.270628
| 25> C      -3.927390   -1.062555    1.700362
| 26> C      -5.264818   -1.385399    2.220952
| 27> O      -3.748375   -0.562111    0.403219
| 28> C      -4.733993   -0.298212   -0.644634
| 29> N       2.982048    0.970116   -1.914411
| 30> C       4.265710    0.907083   -1.420718
| 31> O       5.202975    1.263575   -2.125750
| 32> C       4.410407    0.384296   -0.005198
| 33> O       5.549656    0.309076    0.484709
| 34> H       3.525498   -0.529715    4.590516
| 35> H       3.722118   -2.179215    3.952779
| 36> H       5.164113   -1.207731    4.366814
| 37> H       0.911697    2.529878   -2.903174
| 38> H       0.191286    2.760916   -1.298171
| 39> H      -0.809331    2.202889   -2.651996
| 40> H      -0.575556   -0.155752   -3.511221
| 41> H       0.622140   -1.248794   -2.792940
| 42> H       1.148322    0.100403   -3.818588
| 43> H       0.039556   -0.065871    0.058721
| 44> H      -5.159335   -1.760075    3.237704
| 45> H      -5.743764   -2.143903    1.601828
| 46> H      -5.898164   -0.497925    2.224174
| 47> H      -4.646403    0.751660   -0.916367
| 48> H      -5.706949   -0.526418   -0.222928
| 49> H      -4.495679   -0.943828   -1.487381
| 50> H       2.875102    1.313609   -2.854278
| 51> **                         ****END OF INPUT****
================================================================================

                       ****************************
                       * Single Point Calculation *
                       ****************************

---------------------------------
CARTESIAN COORDINATES (ANGSTROEM)
---------------------------------
  C      4.152067   -1.172839    3.964690
  O      4.245408   -0.652075    2.645106
  C      3.074194   -0.505826    1.982476
  O      2.009194   -0.807416    2.511777
  C      3.196107    0.022613    0.633162
  N      1.969667    0.140364    0.005108
  C      1.876975    0.585944   -1.191541
  C      0.511055    0.692091   -1.843612
  C      0.177588    2.146327   -2.197165
  C      0.419480   -0.216601   -3.075245
  N     -0.419278    0.215016   -0.815067
  C     -1.733199    0.132653   -0.948870
  O     -2.406975    0.423906   -1.924580
  C     -2.365727   -0.393895    0.305644
  N     -1.816959   -0.748072    1.403473
  N     -2.790471   -1.164719    2.270628
  C     -3.927390   -1.062555    1.700362
  C     -5.264818   -1.385399    2.220952
  O     -3.748375   -0.562111    0.403219
  C     -4.733993   -0.298212   -0.644634
  N      2.982048    0.970116   -1.914411
  C      4.265710    0.907083   -1.420718
  O      5.202975    1.263575   -2.125750
  C      4.410407    0.384296   -0.005198
  O      5.549656    0.309076    0.484709
  H      3.525498   -0.529715    4.590516
  H      3.722118   -2.179215    3.952779
  H      5.164113   -1.207731    4.366814
  H      0.911697    2.529878   -2.903174
  H      0.191286    2.760916   -1.298171
  H     -0.809331    2.202889   -2.651996
  H     -0.575556   -0.155752   -3.511221
  H      0.622140   -1.248794   -2.792940
  H      1.148322    0.100403   -3.818588
  H      0.039556   -0.065871    0.058721
  H     -5.159335   -1.760075    3.237704
  H     -5.743764   -2.143903    1.601828
  H     -5.898164   -0.497925    2.224174
  H     -4.646403    0.751660   -0.916367
  H     -5.706949   -0.526418   -0.222928
  H     -4.495679   -0.943828   -1.487381
  H      2.875102    1.313609   -2.854278

----------------------------
CARTESIAN COORDINATES (A.U.)
----------------------------
  NO LB      ZA    FRAG     MASS         X           Y           Z
   0 C     6.0000    0    12.011    7.846270   -2.216345    7.492178
   1 O     8.0000    0    15.999    8.022658   -1.232243    4.998526
   2 C     6.0000    0    12.011    5.809385   -0.955873    3.746337
   3 O     8.0000    0    15.999    3.796826   -1.525795    4.746571
   4 C     6.0000    0    12.011    6.039767    0.042732    1.196503
   5 N     7.0000    0    14.007    3.722131    0.265250    0.009653
   6 C     6.0000    0    12.011    3.546969    1.107274   -2.251686
   7 C     6.0000    0    12.011    0.965754    1.307862   -3.483922
   8 C     6.0000    0    12.011    0.335593    4.055970   -4.152040
   9 C     6.0000    0    12.011    0.792702   -0.409317   -5.811371
  10 N     7.0000    0    14.007   -0.792321    0.406321   -1.540253
  11 C     6.0000    0    12.011   -3.275271    0.250678   -1.793104
  12 O     8.0000    0    15.999   -4.548524    0.801066   -3.636929
  13 C     6.0000    0    12.011   -4.470576   -0.744354    0.577583
  14 N     7.0000    0    14.007   -3.433555   -1.413651    2.652180
  15 N     7.0000    0    14.007   -5.273226   -2.201000    4.290865
  16 C     6.0000    0    12.011   -7.421692   -2.007938    3.213219
  17 C     6.0000    0    12.011   -9.949064   -2.618025    4.196991
  18 O     8.0000    0    15.999   -7.083402   -1.062236    0.761973
  19 C     6.0000    0    12.011   -8.945950   -0.563539   -1.218182
  20 N     7.0000    0    14.007    5.635254    1.833254   -3.617712
  21 C     6.0000    0    12.011    8.061024    1.714138   -2.684768
  22 O     8.0000    0    15.999    9.832198    2.387811   -4.017085
  23 C     6.0000    0    12.011    8.334461    0.726214   -0.009823
  24 O     8.0000    0    15.999   10.487330    0.584069    0.915967
  25 H     1.0000    0     1.008    6.662226   -1.001016    8.674818
  26 H     1.0000    0     1.008    7.033784   -4.118120    7.469670
  27 H     1.0000    0     1.008    9.758759   -2.282281    8.252083
  28 H     1.0000    0     1.008    1.722858    4.780777   -5.486204
  29 H     1.0000    0     1.008    0.361478    5.217375   -2.453188
  30 H     1.0000    0     1.008   -1.529414    4.162857   -5.011546
  31 H     1.0000    0     1.008   -1.087643   -0.294329   -6.635246
  32 H     1.0000    0     1.008    1.175674   -2.359879   -5.277892
  33 H     1.0000    0     1.008    2.170014    0.189734   -7.216086
  34 H     1.0000    0     1.008    0.074750   -0.124478    0.110967
  35 H     1.0000    0     1.008   -9.749730   -3.326060    6.118374
  36 H     1.0000    0     1.008  -10.854141   -4.051390    3.027016
  37 H     1.0000    0     1.008  -11.145915   -0.940942    4.203080
  38 H     1.0000    0     1.008   -8.780429    1.420432   -1.731683
  39 H     1.0000    0     1.008  -10.784571   -0.994786   -0.421273
  40 H     1.0000    0     1.008   -8.495602   -1.783576   -2.810743
  41 H     1.0000    0     1.008    5.433155    2.482361   -5.393804

--------------------------------
INTERNAL COORDINATES (ANGSTROEM)
--------------------------------
 C      0   0   0     0.000000000000     0.00000000     0.00000000
 O      1   0   0     1.421692519159     0.00000000     0.00000000
 C      2   1   0     1.353591341837   115.92176657     0.00000000
 O      3   2   1     1.226923419249   120.88551947     0.22844518
 C      3   2   1     1.454221037836   114.89414874   180.26470687
 N      5   3   2     1.382921616910   112.20866616   179.57686527
 C      6   5   3     1.280274256738   121.22013778   180.14622384
 C      7   6   5     1.517300636344   119.42019612   179.71832397
 C      8   7   6     1.533297853515   111.17579490   118.20792031
 C      8   7   6     1.533305898436   110.94733774   242.68885578
 N      8   7   6     1.466637263791   104.29420182     0.40646768
 C     11   8   7     1.323282018626   125.39278331   180.01944767
 O     12  11   8     1.220988293263   127.87057051     0.25918979
 C     12  11   8     1.500383232139   110.84822946   180.18274028
 N     14  12  11     1.277425605816   129.40308209   359.78694853
 N     15  14  12     1.368677511607   108.86503719   180.03369911
 C     16  15  14     1.276019438023   109.03947214   359.95265464
 C     17  16  15     1.471039038102   129.37050238   180.00447467
 O     14  12  11     1.396256779817   121.21027393   179.71074277
 C     19  14  12     1.462559890649   126.55004648     1.43072564
 N      7   6   5     1.375251067192   122.02845828   359.97500199
 C     21   7   6     1.376769431525   123.22498021     0.11879419
 O     22  21   7     1.225814972707   119.56030440   179.77723897
 C      5   3   2     1.418746831570   125.58275158   359.75659587
 O     24   5   3     1.242398970158   126.29739609   359.87387674
 H      1   2   3     1.094465793624   110.67614939   300.99090414
 H      1   2   3     1.094436232906   110.64131341    61.62451087
 H      1   2   3     1.089567927738   107.05604534   181.29526127
 H      9   8   7     1.088336391730   109.70213367    61.00295712
 H      9   8   7     1.089081028281   110.00778040   300.91696423
 H      9   8   7     1.088154222050   110.05547677   180.68411277
 H     10   8   7     1.088059885610   110.07998035   178.04954368
 H     10   8   7     1.089123307011   110.01939237    57.79935344
 H     10   8   7     1.088237571778   109.63602389   297.71883511
 H     11   8   7     1.026124561283   113.73965959   359.94418444
 H     18  17  16     1.088711806572   108.53854329   359.64776016
 H     18  17  16     1.089968860247   110.56130515   239.54574007
 H     18  17  16     1.090297041029   110.52019264   119.73147286
 H     20  19  14     1.087999102836   107.38541022   300.69731799
 H     20  19  14     1.084692263643   106.73684715   180.59379356
 H     20  19  14     1.088042319058   107.47318699    60.41241677
 H     21   7   6     1.006367162448   120.05619174   179.81078217

---------------------------
INTERNAL COORDINATES (A.U.)
---------------------------
 C      0   0   0     0.000000000000     0.00000000     0.00000000
 O      1   0   0     2.686609507855     0.00000000     0.00000000
 C      2   1   0     2.557916933320   115.92176657     0.00000000
 O      3   2   1     2.318549249674   120.88551947     0.22844518
 C      3   2   1     2.748079499698   114.89414874   180.26470687
 N      5   3   2     2.613343120639   112.20866616   179.57686527
 C      6   5   3     2.419367721544   121.22013778   180.14622384
 C      7   6   5     2.867282665515   119.42019612   179.71832397
 C      8   7   6     2.897513024873   111.17579490   118.20792031
 C      8   7   6     2.897528227570   110.94733774   242.68885578
 N      8   7   6     2.771542766368   104.29420182     0.40646768
 C     11   8   7     2.500640613146   125.39278331   180.01944767
 O     12  11   8     2.307333486991   127.87057051     0.25918979
 C     12  11   8     2.835313404670   110.84822946   180.18274028
 N     14  12  11     2.413984551450   129.40308209   359.78694853
 N     15  14  12     2.586425662594   108.86503719   180.03369911
 C     16  15  14     2.411327279424   109.03947214   359.95265464
 C     17  16  15     2.779860914320   129.37050238   180.00447467
 O     14  12  11     2.638542926485   121.21027393   179.71074277
 C     19  14  12     2.763837647784   126.55004648     1.43072564
 N      7   6   5     2.598847882376   122.02845828   359.97500199
 C     21   7   6     2.601717175137   123.22498021     0.11879419
 O     22  21   7     2.316454589277   119.56030440   179.77723897
 C      5   3   2     2.681042965035   125.58275158   359.75659587
 O     24   5   3     2.347793802665   126.29739609   359.87387674
 H      1   2   3     2.068240612894   110.67614939   300.99090414
 H      1   2   3     2.068184751233   110.64131341    61.62451087
 H      1   2   3     2.058984987730   107.05604534   181.29526127
 H      9   8   7     2.056657721949   109.70213367    61.00295712
 H      9   8   7     2.058064881100   110.00778040   300.91696423
 H      9   8   7     2.056313471145   110.05547677   180.68411277
 H     10   8   7     2.056135201108   110.07998035   178.04954368
 H     10   8   7     2.058144776321   110.01939237    57.79935344
 H     10   8   7     2.056470979304   109.63602389   297.71883511
 H     11   8   7     1.939094400116   113.73965959   359.94418444
 H     18  17  16     2.057367153187   108.53854329   359.64776016
 H     18  17  16     2.059742640369   110.56130515   239.54574007
 H     18  17  16     2.060362812169   110.52019264   119.73147286
 H     20  19  14     2.056020338313   107.38541022   300.69731799
 H     20  19  14     2.049771317869   106.73684715   180.59379356
 H     20  19  14     2.056102005136   107.47318699    60.41241677
 H     21   7   6     1.901758327198   120.05619174   179.81078217

---------------------
BASIS SET INFORMATION
---------------------
There are 4 groups of distinct atoms

 Group   1 Type C   : 11s6p1d contracted to 5s3p1d pattern {62111/411/1}
 Group   2 Type O   : 11s6p2d contracted to 5s3p2d pattern {62111/411/11}
 Group   3 Type N   : 11s6p2d contracted to 5s3p2d pattern {62111/411/11}
 Group   4 Type H   : 4s1p contracted to 2s1p pattern {31/1}

Atom   0C    basis set group =>   1
Atom   1O    basis set group =>   2
Atom   2C    basis set group =>   1
Atom   3O    basis set group =>   2
Atom   4C    basis set group =>   1
Atom   5N    basis set group =>   3
Atom   6C    basis set group =>   1
Atom   7C    basis set group =>   1
Atom   8C    basis set group =>   1
Atom   9C    basis set group =>   1
Atom  10N    basis set group =>   3
Atom  11C    basis set group =>   1
Atom  12O    basis set group =>   2
Atom  13C    basis set group =>   1
Atom  14N    basis set group =>   3
Atom  15N    basis set group =>   3
Atom  16C    basis set group =>   1
Atom  17C    basis set group =>   1
Atom  18O    basis set group =>   2
Atom  19C    basis set group =>   1
Atom  20N    basis set group =>   3
Atom  21C    basis set group =>   1
Atom  22O    basis set group =>   2
Atom  23C    basis set group =>   1
Atom  24O    basis set group =>   2
Atom  25H    basis set group =>   4
Atom  26H    basis set group =>   4
Atom  27H    basis set group =>   4
Atom  28H    basis set group =>   4
Atom  29H    basis set group =>   4
Atom  30H    basis set group =>   4
Atom  31H    basis set group =>   4
Atom  32H    basis set group =>   4
Atom  33H    basis set group =>   4
Atom  34H    basis set group =>   4
Atom  35H    basis set group =>   4
Atom  36H    basis set group =>   4
Atom  37H    basis set group =>   4
Atom  38H    basis set group =>   4
Atom  39H    basis set group =>   4
Atom  40H    basis set group =>   4
Atom  41H    basis set group =>   4
---------------------------------
AUXILIARY/J BASIS SET INFORMATION
---------------------------------
There are 4 groups of distinct atoms

 Group   1 Type C   : 8s3p3d contracted to 6s3p3d pattern {311111/111/111}
 Group   2 Type O   : 8s3p3d contracted to 6s3p3d pattern {311111/111/111}
 Group   3 Type N   : 8s3p3d contracted to 6s3p3d pattern {311111/111/111}
 Group   4 Type H   : 5s2p1d contracted to 3s1p1d pattern {311/2/1}

Atom   0C    basis set group =>   1
Atom   1O    basis set group =>   2
Atom   2C    basis set group =>   1
Atom   3O    basis set group =>   2
Atom   4C    basis set group =>   1
Atom   5N    basis set group =>   3
Atom   6C    basis set group =>   1
Atom   7C    basis set group =>   1
Atom   8C    basis set group =>   1
Atom   9C    basis set group =>   1
Atom  10N    basis set group =>   3
Atom  11C    basis set group =>   1
Atom  12O    basis set group =>   2
Atom  13C    basis set group =>   1
Atom  14N    basis set group =>   3
Atom  15N    basis set group =>   3
Atom  16C    basis set group =>   1
Atom  17C    basis set group =>   1
Atom  18O    basis set group =>   2
Atom  19C    basis set group =>   1
Atom  20N    basis set group =>   3
Atom  21C    basis set group =>   1
Atom  22O    basis set group =>   2
Atom  23C    basis set group =>   1
Atom  24O    basis set group =>   2
Atom  25H    basis set group =>   4
Atom  26H    basis set group =>   4
Atom  27H    basis set group =>   4
Atom  28H    basis set group =>   4
Atom  29H    basis set group =>   4
Atom  30H    basis set group =>   4
Atom  31H    basis set group =>   4
Atom  32H    basis set group =>   4
Atom  33H    basis set group =>   4
Atom  34H    basis set group =>   4
Atom  35H    basis set group =>   4
Atom  36H    basis set group =>   4
Atom  37H    basis set group =>   4
Atom  38H    basis set group =>   4
Atom  39H    basis set group =>   4
Atom  40H    basis set group =>   4
Atom  41H    basis set group =>   4


           ************************************************************
           *        Program running with 4 parallel MPI-processes     *
           *              working on a common directory               *
           ************************************************************
------------------------------------------------------------------------------
                           ORCA GTO INTEGRAL CALCULATION
                           -- RI-GTO INTEGRALS CHOSEN --
------------------------------------------------------------------------------
------------------------------------------------------------------------------
                   ___                                                        
                  /   \      - P O W E R E D   B Y -                         
                 /     \                                                     
                 |  |  |   _    _      __       _____    __    __             
                 |  |  |  | |  | |    /  \     |  _  \  |  |  /  |          
                  \  \/   | |  | |   /    \    | | | |  |  | /  /          
                 / \  \   | |__| |  /  /\  \   | |_| |  |  |/  /          
                |  |  |   |  __  | /  /__\  \  |    /   |      \           
                |  |  |   | |  | | |   __   |  |    \   |  |\   \          
                \     /   | |  | | |  |  |  |  | |\  \  |  | \   \       
                 \___/    |_|  |_| |__|  |__|  |_| \__\ |__|  \__/        
                                                                              
                      - O R C A' S   B I G   F R I E N D -                    
                                      &                                       
                       - I N T E G R A L  F E E D E R -                       
                                                                              
 v1 FN, 2020, v2 2021                                                         
------------------------------------------------------------------------------


Reading SHARK input file /lustre/hpc/kemi/ree/PhD/git/ReactivityQM/calculations/R02methylcation/reac01prodN01/conf11/gfn1/orca_calc.SHARKINP.tmp ... ok
----------------------
SHARK INTEGRAL PACKAGE
----------------------

Number of atoms                             ...     42
Number of basis functions                   ...    615
Number of shells                            ...    287
Maximum angular momentum                    ...      2
Integral batch strategy                     ... SHARK/LIBINT Hybrid
RI-J (if used) integral strategy            ... SPLIT-RIJ (Revised 2003 algorithm where possible)
Printlevel                                  ...      1
Contraction scheme used                     ... SEGMENTED contraction
Coulomb Range Separation                    ... NOT USED
Exchange Range Separation                   ... NOT USED
Finite Nucleus Model                        ... NOT USED
Auxiliary Coulomb fitting basis             ... AVAILABLE
   # of basis functions in Aux-J            ...    937
   # of shells in Aux-J                     ...    385
   Maximum angular momentum in Aux-J        ...      2
Auxiliary J/K fitting basis                 ... NOT available
Auxiliary Correlation fitting basis         ... NOT available
Auxiliary 'external' fitting basis          ... NOT available
Integral threshold                          ...     1.000000e-10
Primitive cut-off                           ...     1.000000e-11
Primitive pair pre-selection threshold      ...     1.000000e-11

Calculating pre-screening integrals         ... done (  0.3 sec) Dimension = 287
Organizing shell pair data                  ... done (  0.2 sec)
Shell pair information
Total number of shell pairs                 ...     41328
Shell pairs after pre-screening             ...     25915
Total number of primitive shell pairs       ...    149932
Primitive shell pairs kept                  ...     58168
          la=0 lb=0:   7302 shell pairs
          la=1 lb=0:   9374 shell pairs
          la=1 lb=1:   3003 shell pairs
          la=2 lb=0:   3535 shell pairs
          la=2 lb=1:   2254 shell pairs
          la=2 lb=2:    447 shell pairs

Calculating one electron integrals          ... done (  0.1 sec)
Calculating RI/J V-Matrix + Cholesky decomp.... done (  0.1 sec)
Calculating Nuclear repulsion               ... done (  0.0 sec) ENN=   2259.862906537153 Eh

SHARK setup successfully completed in   0.9 seconds

Maximum memory used throughout the entire GTOINT-calculation: 38.5 MB


           ************************************************************
           *        Program running with 4 parallel MPI-processes     *
           *              working on a common directory               *
           ************************************************************
-------------------------------------------------------------------------------
                                 ORCA SCF
-------------------------------------------------------------------------------

------------
SCF SETTINGS
------------
Hamiltonian:
 Density Functional     Method          .... DFT(GTOs)
  Functional kind                       .... Exchange
  Functional name                       .... Re-regularized SCAN exchange by Furness et al
  Functional family                     .... MGGA
  Functional refs                              
    [ 0] J. W. Furness, A. D. Kaplan, J. Ning, J. P. Perdew, and J. Sun, J. Phys. Chem. Lett. 11, 8208 (2020)
    [ 1] J. W. Furness, A. D. Kaplan, J. Ning, J. P. Perdew, and J. Sun, J. Phys. Chem. Lett. 11, 9248 (2020)
  Functional external parameters         .... 8
 Parameter  0 :         c1 parameter
 Parameter  1 :         c2 parameter
 Parameter  2 :          d parameter
 Parameter  3 :         k1 parameter
 Parameter  4 :       taur parameter
 Parameter  5 :     alphar parameter
 Parameter  6 :        eta parameter
 Parameter  7 :        dp2 parameter
  Functional kind                       .... Correlation
  Functional name                       .... Re-regularized SCAN correlation by Furness et al
  Functional family                     .... MGGA
  Functional refs                              
    [ 0] J. W. Furness, A. D. Kaplan, J. Ning, J. P. Perdew, and J. Sun, J. Phys. Chem. Lett. 11, 8208 (2020)
    [ 1] J. W. Furness, A. D. Kaplan, J. Ning, J. P. Perdew, and J. Sun, J. Phys. Chem. Lett. 11, 9248 (2020)
  Functional external parameters         .... 0
 Gradients option       PostSCFGGA      .... off
   Density functional embedding theory  .... OFF
 RI-approximation to the Coulomb term is turned on
   Number of AuxJ basis functions       .... 937


General Settings:
 Integral files         IntName         .... /lustre/hpc/kemi/ree/PhD/git/ReactivityQM/calculations/R02methylcation/reac01prodN01/conf11/gfn1/orca_calc
 Hartree-Fock type      HFTyp           .... RHF
 Total Charge           Charge          ....    0
 Multiplicity           Mult            ....    1
 Number of Electrons    NEL             ....  184
 Basis Dimension        Dim             ....  615
 Nuclear Repulsion      ENuc            ....   2259.8629065372 Eh

Convergence Acceleration:
 DIIS                   CNVDIIS         .... on
   Start iteration      DIISMaxIt       ....    12
   Startup error        DIISStart       ....  0.200000
   # of expansion vecs  DIISMaxEq       ....     5
   Bias factor          DIISBfac        ....   1.050
   Max. coefficient     DIISMaxC        ....  10.000
 Trust-Rad. Augm. Hess. CNVTRAH         .... auto
   Auto Start mean grad. ratio tolernc. ....  1.125000
   Auto Start start iteration           ....    20
   Auto Start num. interpolation iter.  ....    10
   Max. Number of Micro iterations      ....    16
   Max. Number of Macro iterations      .... Maxiter - #DIIS iter
   Number of Davidson start vectors     ....     2
   Converg. threshold I  (grad. norm)   ....   5.000e-05
   Converg. threshold II (energy diff.) ....   1.000e-06
   Grad. Scal. Fac. for Micro threshold ....   0.100
   Minimum threshold for Micro iter.    ....   0.010
   NR start threshold (gradient norm)   ....   0.001
   Initial trust radius                 ....   0.400
   Minimum AH scaling param. (alpha)    ....   1.000
   Maximum AH scaling param. (alpha)    .... 1000.000
   Orbital update algorithm             .... Taylor
   White noise on init. David. guess    .... on
   Maximum white noise                  ....   0.010
   Quad. conv. algorithm                .... NR
   COSX micro iterations for RIJONX calc.... off
 SOSCF                  CNVSOSCF        .... on
   Start iteration      SOSCFMaxIt      ....   150
   Startup grad/error   SOSCFStart      ....  0.003300
 Level Shifting         CNVShift        .... on
   Level shift para.    LevelShift      ....    0.2500
   Turn off err/grad.   ShiftErr        ....    0.0010
 Zerner damping         CNVZerner       .... off
 Static damping         CNVDamp         .... on
   Fraction old density DampFac         ....    0.7000
   Max. Damping (<1)    DampMax         ....    0.9800
   Min. Damping (>=0)   DampMin         ....    0.0000
   Turn off err/grad.   DampErr         ....    0.1000
 Fernandez-Rico         CNVRico         .... off

SCF Procedure:
 Maximum # iterations   MaxIter         ....   125
 SCF integral mode      SCFMode         .... Direct
   Integral package                     .... SHARK and LIBINT hybrid scheme
 Reset frequency        DirectResetFreq ....    20
 Integral Threshold     Thresh          ....  1.000e-10 Eh
 Primitive CutOff       TCut            ....  1.000e-11 Eh

Convergence Tolerance:
 Convergence Check Mode ConvCheckMode   .... Total+1el-Energy
 Convergence forced     ConvForced      .... 0
 Energy Change          TolE            ....  1.000e-06 Eh
 1-El. energy change                    ....  1.000e-03 Eh
 Orbital Gradient       TolG            ....  5.000e-05
 Orbital Rotation angle TolX            ....  5.000e-05
 DIIS Error             TolErr          ....  1.000e-06


Diagonalization of the overlap matrix:
Smallest eigenvalue                        ... 1.731e-05
Time for diagonalization                   ...    0.103 sec
Threshold for overlap eigenvalues          ... 1.000e-08
Number of eigenvalues below threshold      ... 0
Time for construction of square roots      ...    0.074 sec
Total time needed                          ...    0.180 sec

Time for model grid setup =    0.943 sec

------------------------------
INITIAL GUESS: MODEL POTENTIAL
------------------------------
Loading Hartree-Fock densities                     ... done
Calculating cut-offs                               ... done
Initializing the effective Hamiltonian             ... done
Setting up the integral package (SHARK)            ... done
Starting the Coulomb interaction                   ... done (   1.2 sec)
Reading the grid                                   ... done
Mapping shells                                     ... done
Starting the XC term evaluation                    ... done (   0.8 sec)
  promolecular density results
     # of electrons  =    183.997289117
     EX              =   -158.344996434
     EC              =     -6.251806694
     EX+EC           =   -164.596803127
Transforming the Hamiltonian                       ... done (   0.1 sec)
Diagonalizing the Hamiltonian                      ... done (   0.1 sec)
Back transforming the eigenvectors                 ... done (   0.0 sec)
Now organizing SCF variables                       ... done
                      ------------------
                      INITIAL GUESS DONE (   3.2 sec)
                      ------------------
-------------------
DFT GRID GENERATION
-------------------

General Integration Accuracy     IntAcc      ... 4.388
Radial Grid Type                 RadialGrid  ... OptM3 with GC (2021)
Angular Grid (max. ang.)         AngularGrid ... 4 (Lebedev-302)
Angular grid pruning method      GridPruning ... 4 (adaptive)
Weight generation scheme         WeightScheme... Becke
Basis function cutoff            BFCut       ... 1.0000e-10
Integration weight cutoff        WCut        ... 1.0000e-14
Angular grids for H and He will be reduced by one unit
Partially contracted basis set               ... off
Rotationally invariant grid construction     ... off

Total number of grid points                  ...   205845
Total number of batches                      ...     3239
Average number of points per batch           ...       63
Average number of grid points per atom       ...     4901
Time for grid setup =    3.300 sec


--------------------
CPCM SOLVATION MODEL
--------------------
CPCM parameters:
  Epsilon                                         ...      46.8260
  Refrac                                          ...       1.4170
  Rsolv                                           ...       1.3000
  Surface type                                    ... GAUSSIAN VDW
  Epsilon function type                           ...         CPCM
Solvent:                                     ... DMSO
SMD-CDS solvent descriptors:
  Soln                                       ...    1.4170
  Soln25                                     ...    1.4773
  Sola                                       ...    0.0000
  Solb                                       ...    0.8800
  Solg                                       ...   61.7800
  Solc                                       ...    0.0000
  Solh                                       ...    0.0000
Radii:
 Radius for C  used is    3.4960 Bohr (=   1.8500 Ang.)
 Radius for O  used is    4.3350 Bohr (=   2.2940 Ang.)
 Radius for N  used is    3.5716 Bohr (=   1.8900 Ang.)
 Radius for H  used is    2.2677 Bohr (=   1.2000 Ang.)
Calculating surface                               ...        done! (  0.0s)
GEPOL surface points                              ...         2121
GEPOL Volume                                      ...    2813.3999
GEPOL Surface-area                                ...    1403.0441
Calculating surface distance matrix               ...        done! (  0.1s)
Performing Cholesky decomposition & store         ...        done! (  0.3s)
Overall time for CPCM initialization              ...                 0.4s
--------------
SCF ITERATIONS
--------------
ITER       Energy         Delta-E        Max-DP      RMS-DP      [F,P]     Damp
               ***  Starting incremental Fock matrix formation  ***
  0  -1267.7966674110   0.000000000000 0.90737989  0.00348494  0.3149970 0.7000
  1  -1268.1806658627  -0.383998451621 0.76002899  0.00272894  0.1061963 0.7000
                               ***Turning on DIIS***
  2  -1268.2942634053  -0.113597542645 0.70674321  0.00282604  0.0438523 0.0000
  3  -1268.5235554440  -0.229292038692 0.67423744  0.00240160  0.0483511 0.0000
  4  -1268.5549563228  -0.031400878824 0.14061502  0.00053455  0.0297712 0.0000
  5  -1268.5620252466  -0.007068923806 0.07138812  0.00024404  0.0034836 0.0000
  6  -1268.5622025928  -0.000177346157 0.01010471  0.00005079  0.0034815 0.0000
                      *** Initiating the SOSCF procedure ***
                           *** Shutting down DIIS ***
                      *** Re-Reading the Fockian *** 
                      *** Removing any level shift *** 
ITER      Energy       Delta-E        Grad      Rot      Max-DP    RMS-DP
  7  -1268.56225482  -0.0000522245  0.000268  0.000268  0.003218  0.000029
               *** Restarting incremental Fock matrix formation ***
  8  -1268.56225854  -0.0000037268  0.000292  0.001166  0.004008  0.000023
  9  -1268.56224452   0.0000140205  0.000756  0.000933  0.004911  0.000020
 10  -1268.56226137  -0.0000168488  0.000049  0.000343  0.002136  0.000009
 11  -1268.56226065   0.0000007238  0.000113  0.000326  0.001325  0.000005
 12  -1268.56226162  -0.0000009740  0.000036  0.000234  0.000418  0.000004
 13  -1268.56226140   0.0000002242  0.000064  0.000158  0.000313  0.000003
                 **** Energy Check signals convergence ****
              ***Rediagonalizing the Fockian in SOSCF/NRSCF***

               *****************************************************
               *                     SUCCESS                       *
               *           SCF CONVERGED AFTER  14 CYCLES          *
               *****************************************************


SMD CDS free energy correction energy :                 0.37915     Kcal/mol
Total Energy after SMD CDS correction =             -1268.561657502 Eh

----------------
TOTAL SCF ENERGY
----------------

Total Energy       :        -1268.56165750 Eh          -34519.31763 eV

Components:
Nuclear Repulsion  :         2259.86290654 Eh           61493.99598 eV
Electronic Energy  :        -3528.42456404 Eh          -96013.31361 eV
One Electron Energy:        -6223.99047503 Eh         -169363.39109 eV
Two Electron Energy:         2695.56591099 Eh           73350.07748 eV
CPCM Dielectric    :           -0.11495889 Eh              -3.12819 eV
SMD CDS (Gcds)     :            0.00060422 Eh               0.01644 eV

Virial components:
Potential Energy   :        -2532.23338419 Eh          -68905.57348 eV
Kinetic Energy     :         1263.67172669 Eh           34386.25585 eV
Virial Ratio       :            2.00386962


DFT components:
N(Alpha)           :       92.000016384391 electrons
N(Beta)            :       92.000016384391 electrons
N(Total)           :      184.000032768782 electrons
E(X)               :     -161.936068200509 Eh       
E(C)               :       -6.120242625851 Eh       
E(XC)              :     -168.056310826361 Eh       
DFET-embed. en.    :        0.000000000000 Eh       
CPCM Solvation Model Properties:
Surface-charge          :           -0.03142510
Charge-correction       :            0.00027857 Eh               0.00758 eV
Free-energy (cav+disp)  :            0.00060422 Eh               0.01644 eV

---------------
SCF CONVERGENCE
---------------

  Last Energy change         ...   -3.1995e-07  Tolerance :   1.0000e-06
  Last MAX-Density change    ...    8.6427e-04  Tolerance :   1.0000e-05
  Last RMS-Density change    ...    4.4509e-06  Tolerance :   1.0000e-06
  Last Orbital Gradient      ...    5.7949e-06  Tolerance :   5.0000e-05
  Last Orbital Rotation      ...    3.3859e-05  Tolerance :   5.0000e-05

             **** THE GBW FILE WAS UPDATED (/lustre/hpc/kemi/ree/PhD/git/ReactivityQM/calculations/R02methylcation/reac01prodN01/conf11/gfn1/orca_calc.gbw) ****
             **** DENSITY /lustre/hpc/kemi/ree/PhD/git/ReactivityQM/calculations/R02methylcation/reac01prodN01/conf11/gfn1/orca_calc.scfp WAS UPDATED ****
             **** ENERGY FILE WAS UPDATED (/lustre/hpc/kemi/ree/PhD/git/ReactivityQM/calculations/R02methylcation/reac01prodN01/conf11/gfn1/orca_calc.en.tmp) ****
             **** THE GBW FILE WAS UPDATED (/lustre/hpc/kemi/ree/PhD/git/ReactivityQM/calculations/R02methylcation/reac01prodN01/conf11/gfn1/orca_calc.gbw) ****
             **** DENSITY /lustre/hpc/kemi/ree/PhD/git/ReactivityQM/calculations/R02methylcation/reac01prodN01/conf11/gfn1/orca_calc.scfp WAS UPDATED ****
----------------
ORBITAL ENERGIES
----------------

  NO   OCC          E(Eh)            E(eV) 
   0   2.0000     -19.180904      -521.9389 
   1   2.0000     -18.971615      -516.2439 
   2   2.0000     -18.946631      -515.5640 
   3   2.0000     -18.910620      -514.5841 
   4   2.0000     -18.904339      -514.4132 
   5   2.0000     -18.880648      -513.7686 
   6   2.0000     -14.245897      -387.6506 
   7   2.0000     -14.238398      -387.4465 
   8   2.0000     -14.203993      -386.5103 
   9   2.0000     -14.202282      -386.4637 
  10   2.0000     -14.147618      -384.9762 
  11   2.0000     -10.198011      -277.5020 
  12   2.0000     -10.192746      -277.3587 
  13   2.0000     -10.174399      -276.8595 
  14   2.0000     -10.134730      -275.7800 
  15   2.0000     -10.127358      -275.5794 
  16   2.0000     -10.119107      -275.3549 
  17   2.0000     -10.101776      -274.8833 
  18   2.0000     -10.098410      -274.7917 
  19   2.0000     -10.076516      -274.1959 
  20   2.0000     -10.067427      -273.9486 
  21   2.0000     -10.063312      -273.8366 
  22   2.0000     -10.039574      -273.1907 
  23   2.0000     -10.022107      -272.7154 
  24   2.0000     -10.021971      -272.7117 
  25   2.0000      -1.230168       -33.4746 
  26   2.0000      -1.042768       -28.3752 
  27   2.0000      -1.040918       -28.3248 
  28   2.0000      -1.038218       -28.2514 
  29   2.0000      -1.002732       -27.2857 
  30   2.0000      -0.951359       -25.8878 
  31   2.0000      -0.944185       -25.6926 
  32   2.0000      -0.941732       -25.6258 
  33   2.0000      -0.917629       -24.9699 
  34   2.0000      -0.879973       -23.9453 
  35   2.0000      -0.853359       -23.2211 
  36   2.0000      -0.786513       -21.4021 
  37   2.0000      -0.777499       -21.1568 
  38   2.0000      -0.744678       -20.2637 
  39   2.0000      -0.715217       -19.4620 
  40   2.0000      -0.709746       -19.3132 
  41   2.0000      -0.671932       -18.2842 
  42   2.0000      -0.662083       -18.0162 
  43   2.0000      -0.649686       -17.6788 
  44   2.0000      -0.622216       -16.9314 
  45   2.0000      -0.612340       -16.6626 
  46   2.0000      -0.598174       -16.2771 
  47   2.0000      -0.571957       -15.5637 
  48   2.0000      -0.565961       -15.4006 
  49   2.0000      -0.547475       -14.8975 
  50   2.0000      -0.533835       -14.5264 
  51   2.0000      -0.521845       -14.2001 
  52   2.0000      -0.496534       -13.5114 
  53   2.0000      -0.476986       -12.9795 
  54   2.0000      -0.468261       -12.7420 
  55   2.0000      -0.457411       -12.4468 
  56   2.0000      -0.445099       -12.1118 
  57   2.0000      -0.443253       -12.0615 
  58   2.0000      -0.438530       -11.9330 
  59   2.0000      -0.430301       -11.7091 
  60   2.0000      -0.427105       -11.6221 
  61   2.0000      -0.421562       -11.4713 
  62   2.0000      -0.419840       -11.4244 
  63   2.0000      -0.411788       -11.2053 
  64   2.0000      -0.407486       -11.0883 
  65   2.0000      -0.405745       -11.0409 
  66   2.0000      -0.402059       -10.9406 
  67   2.0000      -0.386732       -10.5235 
  68   2.0000      -0.382391       -10.4054 
  69   2.0000      -0.372688       -10.1414 
  70   2.0000      -0.370245       -10.0749 
  71   2.0000      -0.363331        -9.8867 
  72   2.0000      -0.356576        -9.7029 
  73   2.0000      -0.354638        -9.6502 
  74   2.0000      -0.352372        -9.5885 
  75   2.0000      -0.351743        -9.5714 
  76   2.0000      -0.330320        -8.9885 
  77   2.0000      -0.328262        -8.9325 
  78   2.0000      -0.316731        -8.6187 
  79   2.0000      -0.309693        -8.4272 
  80   2.0000      -0.301783        -8.2119 
  81   2.0000      -0.301216        -8.1965 
  82   2.0000      -0.298465        -8.1216 
  83   2.0000      -0.261245        -7.1088 
  84   2.0000      -0.256737        -6.9862 
  85   2.0000      -0.252056        -6.8588 
  86   2.0000      -0.250827        -6.8254 
  87   2.0000      -0.244870        -6.6633 
  88   2.0000      -0.229885        -6.2555 
  89   2.0000      -0.213199        -5.8014 
  90   2.0000      -0.176440        -4.8012 
  91   2.0000      -0.160978        -4.3804 
  92   0.0000      -0.121960        -3.3187 
  93   0.0000      -0.055765        -1.5175 
  94   0.0000      -0.053763        -1.4630 
  95   0.0000      -0.018196        -0.4951 
  96   0.0000      -0.011278        -0.3069 
  97   0.0000       0.028642         0.7794 
  98   0.0000       0.034969         0.9516 
  99   0.0000       0.042544         1.1577 
 100   0.0000       0.055783         1.5179 
 101   0.0000       0.063864         1.7378 
 102   0.0000       0.079630         2.1669 
 103   0.0000       0.084585         2.3017 
 104   0.0000       0.090955         2.4750 
 105   0.0000       0.101701         2.7674 
 106   0.0000       0.111801         3.0423 
 107   0.0000       0.112733         3.0676 
 108   0.0000       0.118292         3.2189 
 109   0.0000       0.126176         3.4334 
 110   0.0000       0.132167         3.5965 
 111   0.0000       0.137344         3.7373 
 112   0.0000       0.142302         3.8722 
 113   0.0000       0.142799         3.8858 
 114   0.0000       0.145453         3.9580 
 115   0.0000       0.150238         4.0882 
 116   0.0000       0.151170         4.1135 
 117   0.0000       0.155844         4.2407 
 118   0.0000       0.161139         4.3848 
 119   0.0000       0.162139         4.4120 
 120   0.0000       0.164639         4.4800 
 121   0.0000       0.165185         4.4949 
 122   0.0000       0.170418         4.6373 
 123   0.0000       0.177631         4.8336 
 124   0.0000       0.184721         5.0265 
 125   0.0000       0.187290         5.0964 
 126   0.0000       0.188228         5.1219 
 127   0.0000       0.192683         5.2432 
 128   0.0000       0.199916         5.4400 
 129   0.0000       0.204262         5.5582 
 130   0.0000       0.206741         5.6257 
 131   0.0000       0.211474         5.7545 
 132   0.0000       0.215221         5.8565 
 133   0.0000       0.219133         5.9629 
 134   0.0000       0.221380         6.0241 
 135   0.0000       0.223897         6.0925 
 136   0.0000       0.226344         6.1591 
 137   0.0000       0.228868         6.2278 
 138   0.0000       0.235086         6.3970 
 139   0.0000       0.239629         6.5206 
 140   0.0000       0.239919         6.5285 
 141   0.0000       0.243528         6.6267 
 142   0.0000       0.253114         6.8876 
 143   0.0000       0.257386         7.0038 
 144   0.0000       0.261333         7.1112 
 145   0.0000       0.264374         7.1940 
 146   0.0000       0.268405         7.3037 
 147   0.0000       0.271271         7.3817 
 148   0.0000       0.280830         7.6418 
 149   0.0000       0.283001         7.7009 
 150   0.0000       0.283154         7.7050 
 151   0.0000       0.285707         7.7745 
 152   0.0000       0.292659         7.9637 
 153   0.0000       0.296675         8.0729 
 154   0.0000       0.302996         8.2450 
 155   0.0000       0.310671         8.4538 
 156   0.0000       0.313632         8.5344 
 157   0.0000       0.314575         8.5600 
 158   0.0000       0.324049         8.8178 
 159   0.0000       0.329393         8.9632 
 160   0.0000       0.335702         9.1349 
 161   0.0000       0.342312         9.3148 
 162   0.0000       0.344036         9.3617 
 163   0.0000       0.347851         9.4655 
 164   0.0000       0.349823         9.5192 
 165   0.0000       0.358856         9.7650 
 166   0.0000       0.364089         9.9074 
 167   0.0000       0.366828         9.9819 
 168   0.0000       0.375320        10.2130 
 169   0.0000       0.383956        10.4480 
 170   0.0000       0.387093        10.5333 
 171   0.0000       0.388422        10.5695 
 172   0.0000       0.389049        10.5866 
 173   0.0000       0.393874        10.7179 
 174   0.0000       0.400820        10.9069 
 175   0.0000       0.403859        10.9896 
 176   0.0000       0.407254        11.0819 
 177   0.0000       0.421900        11.4805 
 178   0.0000       0.425937        11.5903 
 179   0.0000       0.435058        11.8385 
 180   0.0000       0.438916        11.9435 
 181   0.0000       0.441728        12.0200 
 182   0.0000       0.444384        12.0923 
 183   0.0000       0.453260        12.3338 
 184   0.0000       0.455363        12.3911 
 185   0.0000       0.461417        12.5558 
 186   0.0000       0.465842        12.6762 
 187   0.0000       0.467597        12.7240 
 188   0.0000       0.481177        13.0935 
 189   0.0000       0.490268        13.3409 
 190   0.0000       0.493963        13.4414 
 191   0.0000       0.496371        13.5069 
 192   0.0000       0.496965        13.5231 
 193   0.0000       0.509828        13.8731 
 194   0.0000       0.516549        14.0560 
 195   0.0000       0.521831        14.1997 
 196   0.0000       0.529457        14.4073 
 197   0.0000       0.533378        14.5140 
 198   0.0000       0.537100        14.6152 
 199   0.0000       0.540134        14.6978 
 200   0.0000       0.543235        14.7822 
 201   0.0000       0.551986        15.0203 
 202   0.0000       0.555772        15.1233 
 203   0.0000       0.559652        15.2289 
 204   0.0000       0.563851        15.3432 
 205   0.0000       0.574589        15.6354 
 206   0.0000       0.578090        15.7306 
 207   0.0000       0.584029        15.8922 
 208   0.0000       0.585127        15.9221 
 209   0.0000       0.590548        16.0696 
 210   0.0000       0.597921        16.2703 
 211   0.0000       0.602790        16.4028 
 212   0.0000       0.608782        16.5658 
 213   0.0000       0.614261        16.7149 
 214   0.0000       0.622130        16.9290 
 215   0.0000       0.627591        17.0776 
 216   0.0000       0.630016        17.1436 
 217   0.0000       0.633320        17.2335 
 218   0.0000       0.636611        17.3231 
 219   0.0000       0.647471        17.6186 
 220   0.0000       0.654780        17.8175 
 221   0.0000       0.659348        17.9418 
 222   0.0000       0.665458        18.1080 
 223   0.0000       0.668955        18.2032 
 224   0.0000       0.681013        18.5313 
 225   0.0000       0.683811        18.6074 
 226   0.0000       0.695915        18.9368 
 227   0.0000       0.697242        18.9729 
 228   0.0000       0.703926        19.1548 
 229   0.0000       0.705169        19.1886 
 230   0.0000       0.710683        19.3387 
 231   0.0000       0.713362        19.4116 
 232   0.0000       0.716363        19.4932 
 233   0.0000       0.724265        19.7083 
 234   0.0000       0.729698        19.8561 
 235   0.0000       0.733207        19.9516 
 236   0.0000       0.738137        20.0857 
 237   0.0000       0.748806        20.3761 
 238   0.0000       0.749488        20.3946 
 239   0.0000       0.761194        20.7131 
 240   0.0000       0.763792        20.7838 
 241   0.0000       0.768463        20.9109 
 242   0.0000       0.771302        20.9882 
 243   0.0000       0.781549        21.2670 
 244   0.0000       0.787762        21.4361 
 245   0.0000       0.789479        21.4828 
 246   0.0000       0.791619        21.5411 
 247   0.0000       0.799047        21.7432 
 248   0.0000       0.810267        22.0485 
 249   0.0000       0.815946        22.2030 
 250   0.0000       0.821811        22.3626 
 251   0.0000       0.824242        22.4288 
 252   0.0000       0.837800        22.7977 
 253   0.0000       0.839407        22.8414 
 254   0.0000       0.847807        23.0700 
 255   0.0000       0.849631        23.1196 
 256   0.0000       0.855885        23.2898 
 257   0.0000       0.863441        23.4954 
 258   0.0000       0.873718        23.7751 
 259   0.0000       0.876190        23.8423 
 260   0.0000       0.878744        23.9119 
 261   0.0000       0.896930        24.4067 
 262   0.0000       0.909144        24.7391 
 263   0.0000       0.912451        24.8291 
 264   0.0000       0.920495        25.0479 
 265   0.0000       0.923305        25.1244 
 266   0.0000       0.926361        25.2076 
 267   0.0000       0.928524        25.2664 
 268   0.0000       0.953208        25.9381 
 269   0.0000       0.956883        26.0381 
 270   0.0000       0.961169        26.1547 
 271   0.0000       0.963440        26.2165 
 272   0.0000       0.971334        26.4313 
 273   0.0000       0.978256        26.6197 
 274   0.0000       0.988076        26.8869 
 275   0.0000       1.008466        27.4418 
 276   0.0000       1.010710        27.5028 
 277   0.0000       1.012534        27.5524 
 278   0.0000       1.015513        27.6335 
 279   0.0000       1.026396        27.9297 
 280   0.0000       1.040577        28.3156 
 281   0.0000       1.047745        28.5106 
 282   0.0000       1.053231        28.6599 
 283   0.0000       1.066481        29.0204 
 284   0.0000       1.070853        29.1394 
 285   0.0000       1.078635        29.3511 
 286   0.0000       1.085328        29.5333 
 287   0.0000       1.093443        29.7541 
 288   0.0000       1.107431        30.1347 
 289   0.0000       1.115868        30.3643 
 290   0.0000       1.122461        30.5437 
 291   0.0000       1.123486        30.5716 
 292   0.0000       1.137687        30.9580 
 293   0.0000       1.144100        31.1326 
 294   0.0000       1.150845        31.3161 
 295   0.0000       1.152151        31.3516 
 296   0.0000       1.154809        31.4240 
 297   0.0000       1.180599        32.1257 
 298   0.0000       1.189583        32.3702 
 299   0.0000       1.204780        32.7837 
 300   0.0000       1.205657        32.8076 
 301   0.0000       1.225743        33.3542 
 302   0.0000       1.237946        33.6862 
 303   0.0000       1.249537        34.0016 
 304   0.0000       1.255539        34.1649 
 305   0.0000       1.261081        34.3158 
 306   0.0000       1.275752        34.7150 
 307   0.0000       1.283461        34.9248 
 308   0.0000       1.303111        35.4594 
 309   0.0000       1.304847        35.5067 
 310   0.0000       1.308387        35.6030 
 311   0.0000       1.314355        35.7654 
 312   0.0000       1.324016        36.0283 
 313   0.0000       1.324613        36.0445 
 314   0.0000       1.327357        36.1192 
 315   0.0000       1.330207        36.1968 
 316   0.0000       1.350226        36.7415 
 317   0.0000       1.355780        36.8926 
 318   0.0000       1.359326        36.9892 
 319   0.0000       1.362011        37.0622 
 320   0.0000       1.373043        37.3624 
 321   0.0000       1.374490        37.4018 
 322   0.0000       1.381996        37.6060 
 323   0.0000       1.388590        37.7855 
 324   0.0000       1.402607        38.1669 
 325   0.0000       1.403965        38.2038 
 326   0.0000       1.427891        38.8549 
 327   0.0000       1.437177        39.1076 
 328   0.0000       1.445499        39.3340 
 329   0.0000       1.448125        39.4055 
 330   0.0000       1.456509        39.6336 
 331   0.0000       1.480946        40.2986 
 332   0.0000       1.486954        40.4621 
 333   0.0000       1.503656        40.9166 
 334   0.0000       1.511102        41.1192 
 335   0.0000       1.518840        41.3297 
 336   0.0000       1.522227        41.4219 
 337   0.0000       1.543160        41.9915 
 338   0.0000       1.545516        42.0556 
 339   0.0000       1.560626        42.4668 
 340   0.0000       1.575551        42.8729 
 341   0.0000       1.603053        43.6213 
 342   0.0000       1.620815        44.1046 
 343   0.0000       1.629236        44.3338 
 344   0.0000       1.654876        45.0315 
 345   0.0000       1.661519        45.2122 
 346   0.0000       1.679191        45.6931 
 347   0.0000       1.681563        45.7576 
 348   0.0000       1.682378        45.7798 
 349   0.0000       1.700020        46.2599 
 350   0.0000       1.713986        46.6399 
 351   0.0000       1.723086        46.8875 
 352   0.0000       1.725402        46.9506 
 353   0.0000       1.729232        47.0548 
 354   0.0000       1.743522        47.4436 
 355   0.0000       1.749013        47.5931 
 356   0.0000       1.759662        47.8828 
 357   0.0000       1.764534        48.0154 
 358   0.0000       1.771898        48.2158 
 359   0.0000       1.781242        48.4701 
 360   0.0000       1.787660        48.6447 
 361   0.0000       1.807699        49.1900 
 362   0.0000       1.827140        49.7190 
 363   0.0000       1.831258        49.8311 
 364   0.0000       1.833508        49.8923 
 365   0.0000       1.837155        49.9915 
 366   0.0000       1.843702        50.1697 
 367   0.0000       1.849945        50.3396 
 368   0.0000       1.864547        50.7369 
 369   0.0000       1.866720        50.7960 
 370   0.0000       1.871770        50.9334 
 371   0.0000       1.874293        51.0021 
 372   0.0000       1.879362        51.1400 
 373   0.0000       1.883773        51.2601 
 374   0.0000       1.891975        51.4833 
 375   0.0000       1.894714        51.5578 
 376   0.0000       1.898196        51.6525 
 377   0.0000       1.907896        51.9165 
 378   0.0000       1.918074        52.1934 
 379   0.0000       1.918972        52.2179 
 380   0.0000       1.935744        52.6743 
 381   0.0000       1.953766        53.1647 
 382   0.0000       1.961754        53.3820 
 383   0.0000       1.964207        53.4488 
 384   0.0000       2.000915        54.4477 
 385   0.0000       2.001251        54.4568 
 386   0.0000       2.018567        54.9280 
 387   0.0000       2.029069        55.2138 
 388   0.0000       2.034540        55.3627 
 389   0.0000       2.051847        55.8336 
 390   0.0000       2.053690        55.8837 
 391   0.0000       2.063728        56.1569 
 392   0.0000       2.075331        56.4726 
 393   0.0000       2.080999        56.6269 
 394   0.0000       2.094838        57.0034 
 395   0.0000       2.108828        57.3841 
 396   0.0000       2.114210        57.5306 
 397   0.0000       2.114802        57.5467 
 398   0.0000       2.123807        57.7917 
 399   0.0000       2.137258        58.1577 
 400   0.0000       2.142999        58.3140 
 401   0.0000       2.145741        58.3886 
 402   0.0000       2.146911        58.4204 
 403   0.0000       2.162284        58.8387 
 404   0.0000       2.179879        59.3175 
 405   0.0000       2.186815        59.5063 
 406   0.0000       2.200128        59.8685 
 407   0.0000       2.208683        60.1013 
 408   0.0000       2.215246        60.2799 
 409   0.0000       2.218466        60.3675 
 410   0.0000       2.247778        61.1652 
 411   0.0000       2.248045        61.1724 
 412   0.0000       2.252510        61.2939 
 413   0.0000       2.262447        61.5643 
 414   0.0000       2.282311        62.1048 
 415   0.0000       2.283203        62.1291 
 416   0.0000       2.294860        62.4463 
 417   0.0000       2.303888        62.6920 
 418   0.0000       2.309772        62.8521 
 419   0.0000       2.313291        62.9479 
 420   0.0000       2.318884        63.1000 
 421   0.0000       2.322442        63.1969 
 422   0.0000       2.340699        63.6937 
 423   0.0000       2.343182        63.7612 
 424   0.0000       2.354276        64.0631 
 425   0.0000       2.368582        64.4524 
 426   0.0000       2.373583        64.5885 
 427   0.0000       2.375534        64.6416 
 428   0.0000       2.379148        64.7399 
 429   0.0000       2.394617        65.1608 
 430   0.0000       2.399061        65.2818 
 431   0.0000       2.412591        65.6499 
 432   0.0000       2.415416        65.7268 
 433   0.0000       2.423257        65.9402 
 434   0.0000       2.432130        66.1816 
 435   0.0000       2.444480        66.5177 
 436   0.0000       2.445453        66.5442 
 437   0.0000       2.453503        66.7632 
 438   0.0000       2.471370        67.2494 
 439   0.0000       2.479954        67.4830 
 440   0.0000       2.482909        67.5634 
 441   0.0000       2.485372        67.6304 
 442   0.0000       2.490180        67.7612 
 443   0.0000       2.500753        68.0489 
 444   0.0000       2.507302        68.2272 
 445   0.0000       2.521226        68.6060 
 446   0.0000       2.526845        68.7590 
 447   0.0000       2.548984        69.3614 
 448   0.0000       2.557564        69.5949 
 449   0.0000       2.570713        69.9526 
 450   0.0000       2.581489        70.2459 
 451   0.0000       2.582220        70.2658 
 452   0.0000       2.603631        70.8484 
 453   0.0000       2.604836        70.8812 
 454   0.0000       2.607786        70.9615 
 455   0.0000       2.619450        71.2789 
 456   0.0000       2.628228        71.5177 
 457   0.0000       2.635986        71.7288 
 458   0.0000       2.641030        71.8661 
 459   0.0000       2.651729        72.1572 
 460   0.0000       2.656598        72.2897 
 461   0.0000       2.657819        72.3229 
 462   0.0000       2.670535        72.6690 
 463   0.0000       2.687748        73.1373 
 464   0.0000       2.689657        73.1893 
 465   0.0000       2.702342        73.5345 
 466   0.0000       2.707696        73.6802 
 467   0.0000       2.718153        73.9647 
 468   0.0000       2.719238        73.9942 
 469   0.0000       2.727928        74.2307 
 470   0.0000       2.733425        74.3803 
 471   0.0000       2.742365        74.6236 
 472   0.0000       2.744200        74.6735 
 473   0.0000       2.748285        74.7846 
 474   0.0000       2.755066        74.9691 
 475   0.0000       2.762828        75.1804 
 476   0.0000       2.766194        75.2720 
 477   0.0000       2.771676        75.4211 
 478   0.0000       2.786049        75.8122 
 479   0.0000       2.796196        76.0884 
 480   0.0000       2.797691        76.1290 
 481   0.0000       2.800114        76.1950 
 482   0.0000       2.811766        76.5121 
 483   0.0000       2.816866        76.6508 
 484   0.0000       2.817713        76.6739 
 485   0.0000       2.818679        76.7002 
 486   0.0000       2.824571        76.8605 
 487   0.0000       2.826731        76.9193 
 488   0.0000       2.829427        76.9926 
 489   0.0000       2.833454        77.1022 
 490   0.0000       2.855142        77.6924 
 491   0.0000       2.857614        77.7596 
 492   0.0000       2.864801        77.9552 
 493   0.0000       2.880736        78.3888 
 494   0.0000       2.887531        78.5737 
 495   0.0000       2.900153        78.9172 
 496   0.0000       2.909472        79.1708 
 497   0.0000       2.932193        79.7890 
 498   0.0000       2.932966        79.8101 
 499   0.0000       2.939620        79.9911 
 500   0.0000       2.942020        80.0564 
 501   0.0000       2.944383        80.1207 
 502   0.0000       2.962379        80.6104 
 503   0.0000       2.962854        80.6234 
 504   0.0000       2.976612        80.9977 
 505   0.0000       2.988135        81.3113 
 506   0.0000       2.996338        81.5345 
 507   0.0000       2.997522        81.5667 
 508   0.0000       3.004674        81.7613 
 509   0.0000       3.007337        81.8338 
 510   0.0000       3.022574        82.2484 
 511   0.0000       3.023669        82.2782 
 512   0.0000       3.024752        82.3077 
 513   0.0000       3.028682        82.4146 
 514   0.0000       3.049012        82.9678 
 515   0.0000       3.055734        83.1508 
 516   0.0000       3.057390        83.1958 
 517   0.0000       3.065417        83.4142 
 518   0.0000       3.071597        83.5824 
 519   0.0000       3.078572        83.7722 
 520   0.0000       3.085065        83.9489 
 521   0.0000       3.099344        84.3374 
 522   0.0000       3.100562        84.3706 
 523   0.0000       3.101464        84.3951 
 524   0.0000       3.125485        85.0488 
 525   0.0000       3.128114        85.1203 
 526   0.0000       3.133466        85.2660 
 527   0.0000       3.143099        85.5281 
 528   0.0000       3.161471        86.0280 
 529   0.0000       3.166263        86.1584 
 530   0.0000       3.205447        87.2247 
 531   0.0000       3.224085        87.7318 
 532   0.0000       3.239293        88.1457 
 533   0.0000       3.253080        88.5208 
 534   0.0000       3.282514        89.3218 
 535   0.0000       3.294989        89.6612 
 536   0.0000       3.310050        90.0710 
 537   0.0000       3.311517        90.1110 
 538   0.0000       3.314427        90.1901 
 539   0.0000       3.316681        90.2515 
 540   0.0000       3.330965        90.6402 
 541   0.0000       3.343898        90.9921 
 542   0.0000       3.359490        91.4164 
 543   0.0000       3.366133        91.5971 
 544   0.0000       3.367601        91.6371 
 545   0.0000       3.384182        92.0883 
 546   0.0000       3.407299        92.7173 
 547   0.0000       3.417131        92.9849 
 548   0.0000       3.425157        93.2033 
 549   0.0000       3.480523        94.7099 
 550   0.0000       3.492127        95.0256 
 551   0.0000       3.495124        95.1072 
 552   0.0000       3.504747        95.3690 
 553   0.0000       3.521257        95.8183 
 554   0.0000       3.521955        95.8373 
 555   0.0000       3.536236        96.2259 
 556   0.0000       3.553291        96.6900 
 557   0.0000       3.558512        96.8320 
 558   0.0000       3.563300        96.9623 
 559   0.0000       3.586647        97.5976 
 560   0.0000       3.595170        97.8296 
 561   0.0000       3.599594        97.9499 
 562   0.0000       3.611105        98.2632 
 563   0.0000       3.612737        98.3076 
 564   0.0000       3.622020        98.5602 
 565   0.0000       3.626733        98.6884 
 566   0.0000       3.654556        99.4455 
 567   0.0000       3.696652       100.5910 
 568   0.0000       3.734995       101.6344 
 569   0.0000       3.777088       102.7798 
 570   0.0000       3.790466       103.1438 
 571   0.0000       3.835186       104.3607 
 572   0.0000       3.917182       106.5919 
 573   0.0000       3.946061       107.3778 
 574   0.0000       3.974648       108.1557 
 575   0.0000       3.989389       108.5568 
 576   0.0000       4.024186       109.5037 
 577   0.0000       4.056408       110.3805 
 578   0.0000       4.076448       110.9258 
 579   0.0000       4.085843       111.1814 
 580   0.0000       4.152988       113.0086 
 581   0.0000       4.227886       115.0466 
 582   0.0000       4.293705       116.8376 
 583   0.0000       4.326050       117.7178 
 584   0.0000       4.380427       119.1975 
 585   0.0000       4.423696       120.3749 
 586   0.0000       4.486468       122.0830 
 587   0.0000       4.493981       122.2874 
 588   0.0000       4.568657       124.3195 
 589   0.0000       4.586797       124.8131 
 590   0.0000      21.962573       597.6320 
 591   0.0000      21.991770       598.4265 
 592   0.0000      22.023590       599.2923 
 593   0.0000      22.073800       600.6586 
 594   0.0000      22.083535       600.9235 
 595   0.0000      22.094979       601.2350 
 596   0.0000      22.120273       601.9232 
 597   0.0000      22.161419       603.0429 
 598   0.0000      22.261801       605.7744 
 599   0.0000      22.293671       606.6416 
 600   0.0000      22.342044       607.9579 
 601   0.0000      22.392244       609.3239 
 602   0.0000      22.426364       610.2524 
 603   0.0000      22.512433       612.5944 
 604   0.0000      31.948565       869.3646 
 605   0.0000      32.021755       871.3562 
 606   0.0000      32.050628       872.1419 
 607   0.0000      32.180554       875.6774 
 608   0.0000      32.296425       878.8304 
 609   0.0000      43.671945      1188.3740 
 610   0.0000      43.772181      1191.1016 
 611   0.0000      43.783658      1191.4139 
 612   0.0000      43.799178      1191.8362 
 613   0.0000      43.873165      1193.8495 
 614   0.0000      43.902276      1194.6417 

                    ********************************
                    * MULLIKEN POPULATION ANALYSIS *
                    ********************************

-----------------------
MULLIKEN ATOMIC CHARGES
-----------------------
   0 C :   -0.329426
   1 O :   -0.153318
   2 C :    0.193523
   3 O :   -0.448012
   4 C :   -0.091292
   5 N :   -0.211243
   6 C :    0.416709
   7 C :   -0.264205
   8 C :   -0.596959
   9 C :   -0.597345
  10 N :    0.084306
  11 C :   -0.053874
  12 O :   -0.486619
  13 C :    0.380535
  14 N :   -0.045476
  15 N :   -0.264124
  16 C :    0.489636
  17 C :   -0.673460
  18 O :    0.109876
  19 C :   -0.239307
  20 N :   -0.041234
  21 C :    0.043186
  22 O :   -0.392560
  23 C :   -0.087047
  24 O :   -0.371156
  25 H :    0.163465
  26 H :    0.163425
  27 H :    0.164591
  28 H :    0.185091
  29 H :    0.187167
  30 H :    0.197054
  31 H :    0.197099
  32 H :    0.186940
  33 H :    0.185643
  34 H :    0.326774
  35 H :    0.226312
  36 H :    0.229452
  37 H :    0.230380
  38 H :    0.229411
  39 H :    0.222200
  40 H :    0.229883
  41 H :    0.303998
Sum of atomic charges:   -0.0000000

--------------------------------
MULLIKEN REDUCED ORBITAL CHARGES
--------------------------------
  0 C s       :     3.325734  s :     3.325734
      pz      :     0.760181  p :     2.957513
      px      :     1.136741
      py      :     1.060591
      dz2     :     0.014128  d :     0.046180
      dxz     :     0.009650
      dyz     :     0.011585
      dx2y2   :     0.006460
      dxy     :     0.004357
  1 O s       :     3.689961  s :     3.689961
      pz      :     1.267696  p :     4.427732
      px      :     1.460570
      py      :     1.699466
      dz2     :     0.003498  d :     0.035625
      dxz     :     0.013075
      dyz     :     0.003841
      dx2y2   :     0.009098
      dxy     :     0.006114
  2 C s       :     3.137745  s :     3.137745
      pz      :     0.900075  p :     2.544486
      px      :     0.817922
      py      :     0.826489
      dz2     :     0.026531  d :     0.124246
      dxz     :     0.036596
      dyz     :     0.012419
      dx2y2   :     0.023567
      dxy     :     0.025133
  3 O s       :     3.824078  s :     3.824078
      pz      :     1.656772  p :     4.600266
      px      :     1.430205
      py      :     1.513288
      dz2     :     0.001863  d :     0.023668
      dxz     :     0.007622
      dyz     :     0.002885
      dx2y2   :     0.004843
      dxy     :     0.006456
  4 C s       :     3.239903  s :     3.239903
      pz      :     0.864565  p :     2.794092
      px      :     0.814230
      py      :     1.115297
      dz2     :     0.014367  d :     0.057297
      dxz     :     0.016690
      dyz     :     0.006274
      dx2y2   :     0.010818
      dxy     :     0.009148
  5 N s       :     3.408618  s :     3.408618
      pz      :     1.166878  p :     3.723444
      px      :     1.283549
      py      :     1.273016
      dz2     :     0.028604  d :     0.079181
      dxz     :    -0.003528
      dyz     :     0.018558
      dx2y2   :     0.019491
      dxy     :     0.016056
  6 C s       :     2.957376  s :     2.957376
      pz      :     0.852452  p :     2.542938
      px      :     0.796672
      py      :     0.893814
      dz2     :     0.018503  d :     0.082976
      dxz     :     0.029066
      dyz     :     0.013643
      dx2y2   :     0.010556
      dxy     :     0.011207
  7 C s       :     3.280889  s :     3.280889
      pz      :     0.971027  p :     2.913811
      px      :     1.004759
      py      :     0.938025
      dz2     :     0.010726  d :     0.069505
      dxz     :     0.017561
      dyz     :     0.015314
      dx2y2   :     0.015041
      dxy     :     0.010863
  8 C s       :     3.417833  s :     3.417833
      pz      :     1.111781  p :     3.151987
      px      :     1.122879
      py      :     0.917327
      dz2     :     0.003217  d :     0.027140
      dxz     :     0.005549
      dyz     :     0.007148
      dx2y2   :     0.007828
      dxy     :     0.003398
  9 C s       :     3.418224  s :     3.418224
      pz      :     0.983947  p :     3.151970
      px      :     1.131577
      py      :     1.036446
      dz2     :     0.004357  d :     0.027151
      dxz     :     0.007064
      dyz     :     0.006624
      dx2y2   :     0.007395
      dxy     :     0.001711
 10 N s       :     3.277694  s :     3.277694
      pz      :     1.151383  p :     3.561149
      px      :     0.911244
      py      :     1.498523
      dz2     :     0.015402  d :     0.076851
      dxz     :     0.021227
      dyz     :     0.012966
      dx2y2   :     0.016496
      dxy     :     0.010760
 11 C s       :     3.289054  s :     3.289054
[...]
LOEWDIN REDUCED ORBITAL CHARGES
-------------------------------
  0 C s       :     2.904476  s :     2.904476
      pz      :     0.856477  p :     3.041783
      px      :     1.113603
      py      :     1.071703
      dz2     :     0.032285  d :     0.108431
      dxz     :     0.023712
      dyz     :     0.026103
      dx2y2   :     0.015582
      dxy     :     0.010749
  1 O s       :     3.473173  s :     3.473173
      pz      :     1.402948  p :     4.651198
      px      :     1.558786
      py      :     1.689464
      dz2     :     0.121958  d :     0.476504
      dxz     :     0.142962
      dyz     :     0.091603
      dx2y2   :     0.064561
      dxy     :     0.055421
  2 C s       :     2.722804  s :     2.722804
      pz      :     0.925193  p :     2.625747
      px      :     0.923539
      py      :     0.777015
      dz2     :     0.053338  d :     0.263578
      dxz     :     0.080671
      dyz     :     0.022856
      dx2y2   :     0.057269
      dxy     :     0.049444
  3 O s       :     3.546968  s :     3.546968
      pz      :     1.663228  p :     4.705991
      px      :     1.533308
      py      :     1.509455
      dz2     :     0.042310  d :     0.228966
      dxz     :     0.067467
      dyz     :     0.022592
      dx2y2   :     0.053215
      dxy     :     0.043382
  4 C s       :     2.773448  s :     2.773448
      pz      :     0.963944  p :     2.979413
      px      :     0.976565
      py      :     1.038904
      dz2     :     0.030112  d :     0.120629
      dxz     :     0.035851
      dyz     :     0.011658
      dx2y2   :     0.024857
      dxy     :     0.018151
  5 N s       :     3.180960  s :     3.180960
      pz      :     1.249146  p :     3.861291
      px      :     1.376676
      py      :     1.235469
      dz2     :     0.140684  d :     0.570722
      dxz     :     0.141442
      dyz     :     0.100156
      dx2y2   :     0.087214
      dxy     :     0.101226
  6 C s       :     2.703666  s :     2.703666
      pz      :     0.986304  p :     2.792407
      px      :     0.926746
      py      :     0.879357
      dz2     :     0.040322  d :     0.177024
      dxz     :     0.065099
      dyz     :     0.028479
      dx2y2   :     0.021467
      dxy     :     0.021657
  7 C s       :     2.784987  s :     2.784987
      pz      :     0.988443  p :     2.971730
      px      :     0.934280
      py      :     1.049007
      dz2     :     0.021592  d :     0.135064
      dxz     :     0.033991
      dyz     :     0.030739
      dx2y2   :     0.030063
      dxy     :     0.018679
  8 C s       :     2.959133  s :     2.959133
      pz      :     1.146774  p :     3.324899
      px      :     1.149339
      py      :     1.028786
      dz2     :     0.007207  d :     0.061335
      dxz     :     0.013467
      dyz     :     0.015851
      dx2y2   :     0.017581
      dxy     :     0.007228
  9 C s       :     2.959136  s :     2.959136
      pz      :     1.058389  p :     3.324763
      px      :     1.154281
      py      :     1.112093
      dz2     :     0.009087  d :     0.061354
      dxz     :     0.016455
      dyz     :     0.014589
      dx2y2   :     0.017542
      dxy     :     0.003682
 10 N s       :     3.092547  s :     3.092547
      pz      :     1.269423  p :     3.911629
      px      :     1.180575
      py      :     1.461630
      dz2     :     0.107193  d :     0.563350
      dxz     :     0.167128
      dyz     :     0.067285
      dx2y2   :     0.124527
      dxy     :     0.097217
 11 C s       :     2.700371  s :     2.700371
      pz      :     0.907576  p :     2.654809
      px      :     0.954463
      py      :     0.792770
      dz2     :     0.067814  d :     0.260230
      dxz     :     0.071074
      dyz     :     0.032480
      dx2y2   :     0.044859
      dxy     :     0.044002
 12 O s       :     3.544698  s :     3.544698
      pz      :     1.542408  p :     4.692319
      px      :     1.647615
      py      :     1.502295
      dz2     :     0.063217  d :     0.237942
      dxz     :     0.066446
      dyz     :     0.042374
      dx2y2   :     0.033123
      dxy     :     0.032782
 13 C s       :     2.725882  s :     2.725882
      pz      :     0.995641  p :     2.618776
      px      :     0.770216
      py      :     0.852919
      dz2     :     0.046129  d :     0.168184
      dxz     :     0.040183
      dyz     :     0.019824
      dx2y2   :     0.038241
      dxy     :     0.023806
 14 N s       :     3.169861  s :     3.169861
      pz      :     1.114438  p :     3.572864
      px      :     1.384019
      py      :     1.074407
      dz2     :     0.152674  d :     0.539517
      dxz     :     0.140710
      dyz     :     0.112236
      dx2y2   :     0.073485
      dxy     :     0.060412
 15 N s       :     3.169895  s :     3.169895
      pz      :     1.357773  p :     3.601364
      px      :     1.106158
      py      :     1.137433
      dz2     :     0.101928  d :     0.517248
      dxz     :     0.137438
      dyz     :     0.048275
      dx2y2   :     0.120842
      dxy     :     0.108765
 16 C s       :     2.738382  s :     2.738382
      pz      :     0.781638  p :     2.641964
      px      :     1.066369
      py      :     0.793958
      dz2     :     0.055434  d :     0.177375
      dxz     :     0.042765
      dyz     :     0.027694
      dx2y2   :     0.027001
      dxy     :     0.024481
 17 C s       :     2.944040  s :     2.944040
      pz      :     1.141547  p :     3.297324
      px      :     1.007475
      py      :     1.148302
      dz2     :     0.011283  d :     0.058249
      dxz     :     0.011050
      dyz     :     0.008852
      dx2y2   :     0.011309
      dxy     :     0.015755
 18 O s       :     3.337701  s :     3.337701
      pz      :     1.413086  p :     4.478010
      px      :     1.376102
      py      :     1.688822
      dz2     :     0.178663  d :     0.730237
      dxz     :     0.191873
      dyz     :     0.119222
      dx2y2   :     0.129802
      dxy     :     0.110677
 19 C s       :     2.904555  s :     2.904555
      pz      :     0.890083  p :     2.927364
      px      :     0.913618
      py      :     1.123663
      dz2     :     0.013061  d :     0.088907
      dxz     :     0.031071
      dyz     :     0.017320
      dx2y2   :     0.020327
      dxy     :     0.007129
 20 N s       :     3.090246  s :     3.090246
      pz      :     1.246844  p :     3.896396
      px      :     1.192373
      py      :     1.457179
      dz2     :     0.099914  d :     0.491982
      dxz     :     0.131478
      dyz     :     0.044034
      dx2y2   :     0.107045
      dxy     :     0.109511
 21 C s       :     2.739837  s :     2.739837
      pz      :     0.958147  p :     2.668015
      px      :     0.927601
      py      :     0.782268
      dz2     :     0.057973  d :     0.233644
      dxz     :     0.058585
      dyz     :     0.021597
      dx2y2   :     0.053224
      dxy     :     0.042266
 22 O s       :     3.548426  s :     3.548426
      pz      :     1.634393  p :     4.705079
      px      :     1.582052
      py      :     1.488634
      dz2     :     0.043354  d :     0.217297
      dxz     :     0.061057
      dyz     :     0.023884
      dx2y2   :     0.047424
      dxy     :     0.041579
 23 C s       :     2.781443  s :     2.781443
      pz      :     0.940713  p :     2.787544
      px      :     0.990696
      py      :     0.856136
      dz2     :     0.046026  d :     0.201953
      dxz     :     0.060687
      dyz     :     0.011958
      dx2y2   :     0.038741
      dxy     :     0.044542
 24 O s       :     3.559801  s :     3.559801
      pz      :     1.693226  p :     4.756205
      px      :     1.529746
      py      :     1.533232
      dz2     :     0.043780  d :     0.247083
      dxz     :     0.074848
      dyz     :     0.017694
      dx2y2   :     0.056387
      dxy     :     0.054375
 25 H s       :     0.784812  s :     0.784812
      pz      :     0.011569  p :     0.041042
      px      :     0.014952
      py      :     0.014521
 26 H s       :     0.785430  s :     0.785430
      pz      :     0.005428  p :     0.040934
      px      :     0.011181
      py      :     0.024324
 27 H s       :     0.782213  s :     0.782213
      pz      :     0.007143  p :     0.040036
      px      :     0.025462
      py      :     0.007431
 28 H s       :     0.783332  s :     0.783332
      pz      :     0.016875  p :     0.044734
      px      :     0.017403
      py      :     0.010456
 29 H s       :     0.781194  s :     0.781194
      pz      :     0.021773  p :     0.043921
      px      :     0.008196
      py      :     0.013952
 30 H s       :     0.776217  s :     0.776217
      pz      :     0.011660  p :     0.045592
      px      :     0.026242
      py      :     0.007690
 31 H s       :     0.775880  s :     0.775880
      pz      :     0.011134  p :     0.045648
      px      :     0.026729
      py      :     0.007784
 32 H s       :     0.781320  s :     0.781320
      pz      :     0.008656  p :     0.043930
      px      :     0.008891
      py      :     0.026383
 33 H s       :     0.783366  s :     0.783366
      pz      :     0.017893  p :     0.044742
      px      :     0.017375
      py      :     0.009474
 34 H s       :     0.579240  s :     0.579240
      pz      :     0.047809  p :     0.096876
      px      :     0.027756
      py      :     0.021311
 35 H s       :     0.745574  s :     0.745574
      pz      :     0.028274  p :     0.044974
      px      :     0.006240
      py      :     0.010460
 36 H s       :     0.748482  s :     0.748482
      pz      :     0.014720  p :     0.045535
      px      :     0.011401
      py      :     0.019415
 37 H s       :     0.748204  s :     0.748204
      pz      :     0.007844  p :     0.045505
      px      :     0.014766
      py      :     0.022895
 38 H s       :     0.733770  s :     0.733770
      pz      :     0.007003  p :     0.043880
      px      :     0.005853
      py      :     0.031024
 39 H s       :     0.737389  s :     0.737389
      pz      :     0.008891  p :     0.044584
      px      :     0.026584
      py      :     0.009109
 40 H s       :     0.735103  s :     0.735103
      pz      :     0.021078  p :     0.043659
      px      :     0.006789
      py      :     0.015792
 41 H s       :     0.613805  s :     0.613805
      pz      :     0.051748  p :     0.086951
      px      :     0.010606
      py      :     0.024596


                      *****************************
                      * MAYER POPULATION ANALYSIS *
                      *****************************

  NA   - Mulliken gross atomic population
  ZA   - Total nuclear charge
  QA   - Mulliken gross atomic charge
  VA   - Mayer's total valence
  BVA  - Mayer's bonded valence
  FA   - Mayer's free valence

  ATOM       NA         ZA         QA         VA         BVA        FA
  0 C      6.3294     6.0000    -0.3294     3.7959     3.7959    -0.0000
  1 O      8.1533     8.0000    -0.1533     1.9690     1.9690     0.0000
  2 C      5.8065     6.0000     0.1935     4.1460     4.1460    -0.0000
  3 O      8.4480     8.0000    -0.4480     1.9818     1.9818    -0.0000
  4 C      6.0913     6.0000    -0.0913     3.0429     3.0429    -0.0000
  5 N      7.2112     7.0000    -0.2112     3.0491     3.0491    -0.0000
  6 C      5.5833     6.0000     0.4167     3.4027     3.4027     0.0000
  7 C      6.2642     6.0000    -0.2642     3.6965     3.6965     0.0000
  8 C      6.5970     6.0000    -0.5970     3.7586     3.7586     0.0000
  9 C      6.5973     6.0000    -0.5973     3.7595     3.7595     0.0000
 10 N      6.9157     7.0000     0.0843     3.0294     3.0294    -0.0000
 11 C      6.0539     6.0000    -0.0539     3.9699     3.9699     0.0000
 12 O      8.4866     8.0000    -0.4866     1.9622     1.9622     0.0000
 13 C      5.6195     6.0000     0.3805     3.7773     3.7773    -0.0000
 14 N      7.0455     7.0000    -0.0455     3.0077     3.0077     0.0000
 15 N      7.2641     7.0000    -0.2641     3.0362     3.0362     0.0000
 16 C      5.5104     6.0000     0.4896     3.4591     3.4591     0.0000
 17 C      6.6735     6.0000    -0.6735     3.7731     3.7731     0.0000
 18 O      7.8901     8.0000     0.1099     2.9309     2.9309     0.0000
 19 C      6.2393     6.0000    -0.2393     3.6555     3.6555     0.0000
 20 N      7.0412     7.0000    -0.0412     3.1492     3.1492    -0.0000
 21 C      5.9568     6.0000     0.0432     4.0869     4.0869    -0.0000
 22 O      8.3926     8.0000    -0.3926     2.1012     2.1012    -0.0000
 23 C      6.0870     6.0000    -0.0870     3.8547     3.8547    -0.0000
 24 O      8.3712     8.0000    -0.3712     2.0033     2.0033    -0.0000
 25 H      0.8365     1.0000     0.1635     0.9526     0.9526    -0.0000
 26 H      0.8366     1.0000     0.1634     0.9521     0.9521     0.0000
 27 H      0.8354     1.0000     0.1646     0.9540     0.9540     0.0000
 28 H      0.8149     1.0000     0.1851     0.9529     0.9529    -0.0000
 29 H      0.8128     1.0000     0.1872     0.9506     0.9506     0.0000
 30 H      0.8029     1.0000     0.1971     0.9504     0.9504     0.0000
 31 H      0.8029     1.0000     0.1971     0.9502     0.9502     0.0000
 32 H      0.8131     1.0000     0.1869     0.9507     0.9507     0.0000
 33 H      0.8144     1.0000     0.1856     0.9528     0.9528    -0.0000
 34 H      0.6732     1.0000     0.3268     0.9106     0.9106    -0.0000
 35 H      0.7737     1.0000     0.2263     0.9390     0.9390     0.0000
 36 H      0.7705     1.0000     0.2295     0.9317     0.9317     0.0000
 37 H      0.7696     1.0000     0.2304     0.9313     0.9313     0.0000
 38 H      0.7706     1.0000     0.2294     0.9306     0.9306     0.0000
 39 H      0.7778     1.0000     0.2222     0.9374     0.9374     0.0000
 40 H      0.7701     1.0000     0.2299     0.9301     0.9301     0.0000
 41 H      0.6960     1.0000     0.3040     0.9022     0.9022    -0.0000

  Mayer bond orders larger than 0.100000
B(  0-C ,  1-O ) :   0.8466 B(  0-C , 25-H ) :   0.9623 B(  0-C , 26-H ) :   0.9616 
B(  0-C , 27-H ) :   0.9690 B(  1-O ,  2-C ) :   1.1284 B(  2-C ,  3-O ) :   1.8514 
B(  2-C ,  4-C ) :   1.1499 B(  4-C ,  5-N ) :   0.9824 B(  4-C , 23-C ) :   0.9525 
B(  5-N ,  6-C ) :   1.7168 B(  6-C ,  7-C ) :   0.7253 B(  6-C , 10-N ) :  -0.1317 
B(  6-C , 20-N ) :   1.0586 B(  7-C ,  8-C ) :   0.9354 B(  7-C ,  9-C ) :   0.9356 
B(  7-C , 10-N ) :   0.9292 B(  8-C , 28-H ) :   0.9566 B(  8-C , 29-H ) :   0.9671 
B(  8-C , 30-H ) :   0.9599 B(  9-C , 31-H ) :   0.9596 B(  9-C , 32-H ) :   0.9668 
B(  9-C , 33-H ) :   0.9569 B( 10-N , 11-C ) :   1.2630 B( 10-N , 12-O ) :   0.1206 
B( 10-N , 34-H ) :   0.8132 B( 11-C , 12-O ) :   1.7058 B( 11-C , 13-C ) :   0.8818 
B( 13-C , 14-N ) :   1.7478 B( 13-C , 18-O ) :   0.9909 B( 14-N , 15-N ) :   1.0443 
B( 15-N , 16-C ) :   1.6766 B( 16-C , 17-C ) :   0.8386 B( 16-C , 18-O ) :   0.9004 
B( 17-C , 35-H ) :   0.9439 B( 17-C , 36-H ) :   0.9294 B( 17-C , 37-H ) :   0.9292 
B( 18-O , 19-C ) :   0.7955 B( 19-C , 38-H ) :   0.9144 B( 19-C , 39-H ) :   0.9166 
B( 19-C , 40-H ) :   0.9146 B( 20-N , 21-C ) :   0.9931 B( 20-N , 41-H ) :   0.8836 
B( 21-C , 22-O ) :   2.0849 B( 21-C , 23-C ) :   0.8831 B( 23-C , 24-O ) :   1.9554 


-------
TIMINGS
-------

Total SCF time: 0 days 0 hours 2 min 24 sec 

Total time                  ....     144.840 sec
Sum of individual times     ....     142.471 sec  ( 98.4%)

Fock matrix formation       ....     131.871 sec  ( 91.0%)
  Split-RI-J                ....      20.053 sec  ( 15.2% of F)
  XC integration            ....      68.126 sec  ( 51.7% of F)
    Basis function eval.    ....      11.292 sec  ( 16.6% of XC)
    Density eval.           ....      27.918 sec  ( 41.0% of XC)
    XC-Functional eval.     ....       6.258 sec  (  9.2% of XC)
    XC-Potential eval.      ....      20.017 sec  ( 29.4% of XC)
Diagonalization             ....       1.826 sec  (  1.3%)
Density matrix formation    ....       0.117 sec  (  0.1%)
Population analysis         ....       0.199 sec  (  0.1%)
Initial guess               ....       2.254 sec  (  1.6%)
Orbital Transformation      ....       0.000 sec  (  0.0%)
Orbital Orthonormalization  ....       0.000 sec  (  0.0%)
DIIS solution               ....       0.866 sec  (  0.6%)
SOSCF solution              ....       1.095 sec  (  0.8%)
Grid generation             ....       4.243 sec  (  2.9%)

Maximum memory used throughout the entire SCF-calculation: 141.9 MB


-------------------------------------------------------------------------------
                          DFT DISPERSION CORRECTION                            
                                                                               
                                 DFTD4 V2.5                                    
-------------------------------------------------------------------------------
The R2SCAN3C composite method is recognized
Using three-body term ABC
Active option DFTDOPT                   ...         5   

Starting D4
-------------------------   ----------------
Dispersion correction           -0.018825695
-------------------------   ----------------

------------------   -----------------
gCP correction             0.040513884
------------------   -----------------

-------------------------   --------------------
FINAL SINGLE POINT ENERGY     -1268.539969313541
-------------------------   --------------------


                            ***************************************
                            *     ORCA property calculations      *
                            ***************************************

                                    ---------------------
                                    Active property flags
                                    ---------------------
   (+) Dipole Moment


------------------------------------------------------------------------------
                       ORCA ELECTRIC PROPERTIES CALCULATION
------------------------------------------------------------------------------

Dipole Moment Calculation                       ... on
Quadrupole Moment Calculation                   ... off
Polarizability Calculation                      ... off
GBWName                                         ... /lustre/hpc/kemi/ree/PhD/git/ReactivityQM/calculations/R02methylcation/reac01prodN01/conf11/gfn1/orca_calc.gbw
Electron density                                ... /lustre/hpc/kemi/ree/PhD/git/ReactivityQM/calculations/R02methylcation/reac01prodN01/conf11/gfn1/orca_calc.scfp
The origin for moment calculation is the CENTER OF MASS  = ( 1.110004, -0.065694  0.196475)

-------------
DIPOLE MOMENT
-------------
                                X             Y             Z
Electronic contribution:      8.12510      -0.18332       2.95412
Nuclear contribution   :    -23.19466      -0.94607      -3.91019
                        -----------------------------------------
Total Dipole Moment    :    -15.06956      -1.12940      -0.95607
                        -----------------------------------------
Magnitude (a.u.)       :     15.14204
Magnitude (Debye)      :     38.48800



--------------------
Rotational spectrum 
--------------------
 
Rotational constants in cm-1:     0.011425     0.004231     0.003156 
Rotational constants in MHz :   342.525796   126.848779    94.623341 

 Dipole components along the rotational axes: 
x,y,z [a.u.] :   -15.062641     1.548353    -0.028179 
x,y,z [Debye]:   -38.286190     3.935600    -0.071624 

 

Timings for individual modules:

Sum of individual times         ...      146.307 sec (=   2.438 min)
GTO integral calculation        ...        1.194 sec (=   0.020 min)   0.8 %
SCF iterations                  ...      145.113 sec (=   2.419 min)  99.2 %
                             ****ORCA TERMINATED NORMALLY****
TOTAL RUN TIME: 0 days 0 hours 2 minutes 27 seconds 257 msec
