38
 energy: -79.623622274573 gnorm: 0.000602463115 xtb: 6.5.1 (579679a)
C            2.67214464749687        4.35552665357481       -0.83670255724464
O            2.94333190181968        3.07682775790608       -0.27965002724176
C            1.90817440535430        2.20034667663656       -0.29069884251245
O            0.81751883801235        2.52712374190726       -0.74466821397909
C            2.21445535999244        0.88621434938108        0.25366892955787
N            1.13626651269110        0.02294901521787        0.18424165743838
C            1.23262662609542       -1.18860652930735        0.58597678990229
C            0.04956791370813       -2.13129929607464        0.46385868753754
C           -0.30362829374295       -2.75509563414294        1.82067884064497
C            0.36220049755485       -3.21843053400741       -0.57546178249805
N           -1.06427580282036       -1.30507934403179        0.00145392968461
C           -2.28779220844463       -1.76569631863192       -0.28084625652675
O           -2.65296750553072       -2.93136258396714       -0.19462699070481
C           -3.22016869383349       -0.69336576626971       -0.72870884257095
N           -4.44118299428187       -0.83288719006488       -1.14598319508940
N           -4.90239252975509        0.41726271823678       -1.43934636258807
C           -3.93445843479947        1.24146093191479       -1.18045722740571
C           -3.94111864583541        2.71442815929899       -1.31961624933801
O           -2.84307199945381        0.60322728189723       -0.73029685540627
N            2.40783709953471       -1.69045117265021        1.10304075952052
C            3.55193420811430       -0.94431086491347        1.24905918802047
O            4.55611988951942       -1.46313852088992        1.72938804657398
C            3.47119526568106        0.49291634434788        0.78145678581936
O            4.48387061367053        1.20835147683549        0.88757608028227
H            3.59552076209562        4.93103171924797       -0.78307142344303
H            2.35334907906108        4.26255647782781       -1.87969683963009
H            1.88419494295530        4.86452887983985       -0.27272575899049
H           -1.17432985712391       -3.40049051640032        1.71781658920332
H           -0.52233637984202       -1.97329233952019        2.54647602618244
H            0.53013614219861       -3.35247749958354        2.18345008841644
H            0.56188698049611       -2.76097057394937       -1.54364429320491
H            1.23952062084475       -3.78063880231838       -0.26177601637076
H           -0.47797367674098       -3.90398774324574       -0.66978555312659
H           -0.84876904480208       -0.31642622994509       -0.11541201764555
H           -3.12908363913802        3.03435680556620       -1.97225177524393
H           -4.89241919578443        3.03634199440560       -1.73514477380354
H           -3.79468116277277        3.18082678498054       -0.34530131598024
H            2.45879775779174       -2.64826930913556        1.40776777177704
