      -----------------------------------------------------------      
     |                   =====================                   |     
     |                           x T B                           |     
     |                   =====================                   |     
     |                         S. Grimme                         |     
     |          Mulliken Center for Theoretical Chemistry        |     
     |                    University of Bonn                     |     
      -----------------------------------------------------------      

   * xtb version 6.5.1 (579679a) compiled by 'ehlert@majestix' on 2022-07-11

   xtb is free software: you can redistribute it and/or modify it under
   the terms of the GNU Lesser General Public License as published by
   the Free Software Foundation, either version 3 of the License, or
   (at your option) any later version.
   
   xtb is distributed in the hope that it will be useful,
   but WITHOUT ANY WARRANTY; without even the implied warranty of
   MERCHANTABILITY or FITNESS FOR A PARTICULAR PURPOSE.  See the
   GNU Lesser General Public License for more details.
   
   Cite this work as:
   * C. Bannwarth, E. Caldeweyher, S. Ehlert, A. Hansen, P. Pracht,
     J. Seibert, S. Spicher, S. Grimme, WIREs Comput. Mol. Sci., 2020, 11,
     e01493. DOI: 10.1002/wcms.1493
   
   for GFN2-xTB:
   * C. Bannwarth, S. Ehlert and S. Grimme., J. Chem. Theory Comput., 2019,
     15, 1652-1671. DOI: 10.1021/acs.jctc.8b01176
   for GFN1-xTB:
   * S. Grimme, C. Bannwarth, P. Shushkov, J. Chem. Theory Comput., 2017,
     13, 1989-2009. DOI: 10.1021/acs.jctc.7b00118
   for GFN0-xTB:
   * P. Pracht, E. Caldeweyher, S. Ehlert, S. Grimme, ChemRxiv, 2019, preprint.
     DOI: 10.26434/chemrxiv.8326202.v1
   for GFN-FF:
   * S. Spicher and S. Grimme, Angew. Chem. Int. Ed., 2020, 59, 15665-15673.
     DOI: 10.1002/anie.202004239
   
   for ALPB and GBSA implicit solvation:
   * S. Ehlert, M. Stahn, S. Spicher, S. Grimme, J. Chem. Theory Comput.,
     2021, 17, 4250-4261. DOI: 10.1021/acs.jctc.1c00471
   
   for DFT-D4:
   * E. Caldeweyher, C. Bannwarth and S. Grimme, J. Chem. Phys., 2017,
     147, 034112. DOI: 10.1063/1.4993215
   * E. Caldeweyher, S. Ehlert, A. Hansen, H. Neugebauer, S. Spicher,
     C. Bannwarth and S. Grimme, J. Chem. Phys., 2019, 150, 154122.
     DOI: 10.1063/1.5090222
   * E. Caldeweyher, J.-M. Mewes, S. Ehlert and S. Grimme, Phys. Chem. Chem. Phys.
     2020, 22, 8499-8512. DOI: 10.1039/D0CP00502A
   
   for sTDA-xTB:
   * S. Grimme and C. Bannwarth, J. Chem. Phys., 2016, 145, 054103.
     DOI: 10.1063/1.4959605
   
   in the mass-spec context:
   * V. Asgeirsson, C. Bauer and S. Grimme, Chem. Sci., 2017, 8, 4879.
     DOI: 10.1039/c7sc00601b
   * J. Koopman and S. Grimme, ACS Omega 2019, 4, 12, 15120-15133.
     DOI: 10.1021/acsomega.9b02011
   
   for metadynamics refer to:
   * S. Grimme, J. Chem. Theory Comput., 2019, 155, 2847-2862
     DOI: 10.1021/acs.jctc.9b00143
   
   for SPH calculations refer to:
   * S. Spicher and S. Grimme, J. Chem. Theory Comput., 2021, 17, 1701-1714
     DOI: 10.1021/acs.jctc.0c01306
   
   with help from (in alphabetical order)
   P. Atkinson, C. Bannwarth, F. Bohle, G. Brandenburg, E. Caldeweyher
   M. Checinski, S. Dohm, S. Ehlert, S. Ehrlich, I. Gerasimov, C. Hölzer
   A. Katbashev, J. Koopman, C. Lavigne, S. Lehtola, F. März, M. Müller,
   F. Musil, H. Neugebauer, J. Pisarek, C. Plett, P. Pracht, F. Pultar,
   J. Seibert, P. Shushkov, S. Spicher, M. Stahn, M. Steiner, T. Strunk,
   J. Stückrath, T. Rose, and J. Unsleber
   
 * started run on 2023/06/20 at 15:26:55.673     

           -------------------------------------------------
          |                Calculation Setup                |
           -------------------------------------------------

          program call               : /lustre/hpc/kemi/ree/PhD/git/ReactivityQM/dep/xtb-6.5.1/bin/xtb --gfn 1 /lustre/hpc/kemi/ree/PhD/git/ReactivityQM/calculations/RaltegravirCLI/reac02prodN08/conf16/RaltegravirCLI_reac02prodN08_conf16_gfn1.xyz --opt --vfukui --chrg 1 --uhf 0 --alpb DMSO
          hostname                   : node308
          coordinate file            : /lustre/hpc/kemi/ree/PhD/git/ReactivityQM/calculations/RaltegravirCLI/reac02prodN08/conf16/RaltegravirCLI_reac02prodN08_conf16_gfn1.xyz
          omp threads                :                     1

   ID    Z sym.   atoms
    1    6 C      1, 3-6, 9, 10, 13-18, 20-22, 24
    2    7 N      2, 7, 8, 12
    3    8 O      11, 23, 25
    4    9 F      19
    5    1 H      26-47

           -------------------------------------------------
          |                 G F N 1 - x T B                 |
           -------------------------------------------------

        Reference                      10.1021/acs.jctc.7b00118
      * Hamiltonian:
        H0-scaling (s, p, d)           1.850000    2.250000    2.000000
        zeta-weighting                 0.000000
      * Dispersion:
        s8                             2.400000
        a1                             0.630000
        a2                             5.000000
        s9                             0.000000
      * Repulsion:
        kExp                           1.500000
        rExp                           1.000000
      * Coulomb:
        alpha                          2.000000
        third order                    atomic
        anisotropic                    false
      * Halogen bond correction:
        rad-scale                      1.300000
        damping                        0.440000

      * Solvation model:               ALPB
        Solvent                        DMSO
        Parameter file                 internal GFN1-xTB/ALPB
        Dielectric constant                4.6680E+01
        Reference state                gsolv [1 M gas/solution]
        Free energy shift                  7.6243E-03 Eh       4.7843E+00 kcal/mol
        Temperature                        2.9815E+02 K
        Density                            1.1000E+00 kg/L
        Solvent mass                       7.8130E+01 g/mol
        Interaction kernel             P16
        Born radius scaling (c1)           1.7672E+00
        Born radii integrator          GBOBC
        Born offset                        0.0000E+00 a0       0.0000E+00 AA
        H-bond correction              true
        Ion screening                  false
        Surface tension                    1.0000E-05 Eh       1.5569E+01 dyn/cm
        Grid points                               230 per atom

          ...................................................
          :                      SETUP                      :
          :.................................................:
          :  # basis functions                 144          :
          :  # atomic orbitals                 144          :
          :  # shells                           94          :
          :  # electrons                       134          :
          :  # halogen bonds                     0          :
          :  max. iterations                   250          :
          :  Hamiltonian                  GFN1-xTB          :
          :  restarted?                      false          :
          :  GBSA solvation                   true          :
          :  PC potential                    false          :
          :  electronic temp.          300.0000000     K    :
          :  accuracy                    1.0000000          :
          :  -> integral cutoff          0.2500000E+02      :
          :  -> integral neglect         0.1000000E-07      :
          :  -> SCF convergence          0.1000000E-05 Eh   :
          :  -> wf. convergence          0.2000000E-04 e    :
          :  Broyden damping             0.4000000          :
          ...................................................

 iter      E             dE          RMSdq      gap      omega  full diag
   1    -80.0959566 -0.800960E+02  0.849E+00    1.55       0.0  T
   2    -80.3413344 -0.245378E+00  0.507E+00    0.22       1.0  T
   3    -79.7802128  0.561122E+00  0.261E+00    0.16       1.0  T
   4    -80.2807670 -0.500554E+00  0.137E+00    1.85       1.0  T
   5    -80.3250413 -0.442743E-01  0.816E-01    1.31       1.0  T
   6    -80.3380428 -0.130015E-01  0.544E-01    1.00       1.0  T
   7    -80.3453528 -0.731000E-02  0.347E-01    0.71       1.0  T
   8    -80.3477174 -0.236454E-02  0.249E-01    0.55       1.0  T
   9    -79.7315936  0.616124E+00  0.256E+00    0.30       1.0  T
  10    -80.3464518 -0.614858E+00  0.304E-01    0.64       1.0  T
  11    -80.3475720 -0.112021E-02  0.255E-01    0.55       1.0  T
  12    -80.3480271 -0.455033E-03  0.232E-01    0.52       1.0  T
  13    -80.3483239 -0.296859E-03  0.216E-01    0.49       1.0  T
  14    -80.3486899 -0.365969E-03  0.196E-01    0.45       1.0  T
  15    -80.3493556 -0.665669E-03  0.157E-01    0.33       1.0  T
  16    -80.3498532 -0.497586E-03  0.129E-01    0.27       1.0  T
  17    -80.3502725 -0.419366E-03  0.100E-01    0.13       1.0  T
  18    -80.3493412  0.931300E-03  0.155E-01    0.33       1.0  T
  19    -80.3512332 -0.189202E-02  0.959E-03    0.15       1.5  T
  20    -80.3511725  0.607858E-04  0.269E-02    0.15       1.0  T
  21    -80.3510977  0.747141E-04  0.398E-02    0.18       1.0  T
  22    -80.3507627  0.335066E-03  0.709E-02    0.13       1.0  T
  23    -80.3507760 -0.133298E-04  0.717E-02    0.20       1.0  T
  24    -80.3506985  0.774901E-04  0.755E-02    0.13       1.0  T
  25    -80.3508337 -0.135177E-03  0.670E-02    0.20       1.0  T
  26    -80.3509897 -0.156053E-03  0.516E-02    0.14       1.0  T
  27    -80.3510790 -0.893003E-04  0.421E-02    0.18       1.0  T
  28    -80.3511536 -0.745270E-04  0.307E-02    0.15       1.0  T
  29    -80.3511972 -0.436033E-04  0.221E-02    0.17       1.0  T
  30    -80.3512219 -0.247238E-04  0.149E-02    0.15       1.0  T
  31    -80.3512349 -0.129723E-04  0.916E-03    0.16       1.6  T
  32    -80.3512402 -0.529997E-05  0.521E-03    0.16       2.8  T
  33    -80.3512424 -0.227392E-05  0.174E-03    0.16       8.4  T
  34    -80.3512427 -0.265581E-06  0.422E-04    0.16      34.5  T
  35    -80.3512427 -0.144282E-07  0.160E-04    0.16      91.4  T
  36    -80.3512427 -0.241111E-08  0.416E-07    0.16   35078.6  T

   *** convergence criteria satisfied after 36 iterations ***

         #    Occupation            Energy/Eh            Energy/eV
      -------------------------------------------------------------
         1        2.0000           -0.9302606             -25.3137
       ...           ...                  ...                  ...
        61        2.0000           -0.4860256             -13.2254
        62        2.0000           -0.4766397             -12.9700
        63        2.0000           -0.4668839             -12.7046
        64        2.0000           -0.4650076             -12.6535
        65        2.0000           -0.4490581             -12.2195
        66        2.0000           -0.4327544             -11.7758
        67        1.9103           -0.4244449             -11.5497 (HOMO)
        68        0.0897           -0.4186328             -11.3916 (LUMO)
        69                         -0.3319272              -9.0322
        70                         -0.3245262              -8.8308
        71                         -0.2905239              -7.9056
        72                         -0.2451384              -6.6706
       ...                                ...                  ...
       144                          0.6965879              18.9551
      -------------------------------------------------------------
                  HL-Gap            0.0058121 Eh            0.1582 eV
             Fermi-level           -0.4215387 Eh          -11.4707 eV

 SCC (total)                   0 d,  0 h,  0 min,  0.364 sec
 SCC setup                      ...        0 min,  0.002 sec (  0.658%)
 Dispersion                     ...        0 min,  0.000 sec (  0.134%)
 classical contributions        ...        0 min,  0.000 sec (  0.043%)
 integral evaluation            ...        0 min,  0.066 sec ( 18.136%)
 iterations                     ...        0 min,  0.196 sec ( 53.821%)
 molecular gradient             ...        0 min,  0.098 sec ( 26.907%)
 printout                       ...        0 min,  0.001 sec (  0.285%)

         :::::::::::::::::::::::::::::::::::::::::::::::::::::
         ::                     SUMMARY                     ::
         :::::::::::::::::::::::::::::::::::::::::::::::::::::
         :: total energy             -79.474362270093 Eh    ::
         :: total w/o Gsasa/hb       -79.448324383330 Eh    ::
         :: gradient norm              0.100354585682 Eh/a0 ::
         :: HOMO-LUMO gap              0.158156132541 eV    ::
         ::.................................................::
         :: SCC energy               -80.351242729528 Eh    ::
         :: -> electrostatic           0.331609609413 Eh    ::
         :: -> Gsolv                  -0.112379915624 Eh    ::
         ::    -> Gelec               -0.086342028860 Eh    ::
         ::    -> Gsasa               -0.024057171040 Eh    ::
         ::    -> Ghb                 -0.009604994728 Eh    ::
         ::    -> Gshift               0.007624279005 Eh    ::
         :: repulsion energy           0.907902915979 Eh    ::
         :: dispersion energy         -0.031022456544 Eh    ::
         :: halogen bond corr.         0.000000000000 Eh    ::
         :: add. restraining           0.000000000000 Eh    ::
         :: total charge               1.000000000000 e     ::
         :::::::::::::::::::::::::::::::::::::::::::::::::::::

      ----------------------------------------------------------- 
     |                   =====================                   |
     |                        A N C O P T                        |
     |                   =====================                   |
     |               Approximate Normal Coordinate               |
     |                Rational Function Optimizer                |
      ----------------------------------------------------------- 

          ...................................................
          :                      SETUP                      :
          :.................................................:
          :   optimization level            normal          :
          :   max. optcycles                   200          :
          :   ANC micro-cycles                  20          :
          :   degrees of freedom               135          :
          :.................................................:
          :   RF solver                   davidson          :
          :   write xtbopt.log                true          :
          :   linear?                        false          :
          :   energy convergence         0.5000000E-05 Eh   :
          :   grad. convergence          0.1000000E-02 Eh/α :
          :   maximium RF displ.         1.0000000          :
          :   Hlow (freq-cutoff)         0.1000000E-01      :
          :   Hmax (freq-cutoff)         5.0000000          :
          :   S6 in model hess.         20.0000000          :
          ...................................................

generating ANC from model Hessian ...
Using Lindh-Hessian (1995)
 Shifting diagonal of input Hessian by   9.775955267513530E-003
 Lowest  eigenvalues of input Hessian
    0.000000    0.000000    0.000000    0.000000    0.000000    0.000000
    0.010000    0.010050    0.010202    0.010879    0.011422    0.011696
    0.013015    0.013380    0.014568    0.015747    0.016514    0.017605
 Highest eigenvalues
    1.961073    2.016807    2.108647    2.150232    2.334465    2.380759
 

........................................................................
.............................. CYCLE    1 ..............................
........................................................................
   1    -80.3512427 -0.803512E+02  0.290E-06    0.16       0.0  T
   2    -80.3512427  0.239311E-10  0.163E-05    0.16     896.0  T
   3    -80.3512427 -0.247553E-10  0.971E-08    0.16  100000.0  T
     SCC iter.                  ...        0 min,  0.012 sec
     gradient                   ...        0 min,  0.094 sec
 * total energy  :   -79.4743623 Eh     change       -0.1421085E-13 Eh
   gradient norm :     0.1003546 Eh/α   predicted     0.0000000E+00 (-100.00%)
   displ. norm   :     0.2622593 α      lambda       -0.1236182E-01
   maximum displ.:     0.0825078 α      in ANC's #35, #34, #79, ...

........................................................................
.............................. CYCLE    2 ..............................
........................................................................
   1    -80.3557846 -0.803558E+02  0.105E-01    0.24       0.0  T
   2    -80.2272701  0.128514E+00  0.116E+00    0.01       1.0  T
   3    -80.3560925 -0.128822E+00  0.799E-02    0.23       1.0  T
   4    -80.3563258 -0.233310E-03  0.589E-02    0.21       1.0  T
   5    -80.3565497 -0.223888E-03  0.313E-02    0.19       1.0  T
   6    -80.3566391 -0.893939E-04  0.329E-03    0.17       4.4  T
   7    -80.3566399 -0.798283E-06  0.950E-04    0.17      15.3  T
   8    -80.3566399 -0.229731E-07  0.585E-04    0.17      25.0  T
   9    -80.3566400 -0.213106E-07  0.287E-04    0.17      50.9  T
  10    -80.3566400 -0.712051E-08  0.907E-05    0.17     160.7  T
  11    -80.3566400 -0.848118E-09  0.119E-05    0.17    1222.7  T
     SCC iter.                  ...        0 min,  0.041 sec
     gradient                   ...        0 min,  0.100 sec
 * total energy  :   -79.4831643 Eh     change       -0.8802059E-02 Eh
   gradient norm :     0.0456669 Eh/α   predicted    -0.6609396E-02 ( -24.91%)
   displ. norm   :     0.2366575 α      lambda       -0.4569618E-02
   maximum displ.:     0.0736187 α      in ANC's #6, #34, #4, ...

........................................................................
.............................. CYCLE    3 ..............................
........................................................................
   1    -80.3632967 -0.803633E+02  0.839E-02    0.27       0.0  T
   2    -80.3461745  0.171221E-01  0.431E-01    0.08       1.0  T
   3    -80.3635852 -0.174107E-01  0.550E-02    0.24       1.0  T
   4    -80.3637657 -0.180471E-03  0.307E-02    0.21       1.0  T
   5    -80.3638573 -0.916207E-04  0.497E-03    0.19       2.9  T
   6    -80.3638240  0.332924E-04  0.193E-02    0.18       1.0  T
   7    -80.3638513 -0.272500E-04  0.829E-03    0.18       1.8  T
   8    -80.3638566 -0.533541E-05  0.316E-03    0.19       4.6  T
   9    -80.3638574 -0.753601E-06  0.132E-03    0.19      11.0  T
  10    -80.3638575 -0.160654E-06  0.124E-04    0.19     117.2  T
  11    -80.3638575 -0.984002E-09  0.658E-05    0.19     221.8  T
     SCC iter.                  ...        0 min,  0.041 sec
     gradient                   ...        0 min,  0.100 sec
 * total energy  :   -79.4856854 Eh     change       -0.2521028E-02 Eh
   gradient norm :     0.0122280 Eh/α   predicted    -0.2413275E-02 (  -4.27%)
   displ. norm   :     0.1595024 α      lambda       -0.4715809E-03
   maximum displ.:     0.0840941 α      in ANC's #6, #4, #11, ...

........................................................................
.............................. CYCLE    4 ..............................
........................................................................
   1    -80.3650823 -0.803651E+02  0.249E-02    0.22       0.0  T
   2    -80.3643303  0.752089E-03  0.946E-02    0.15       1.0  T
   3    -80.3651426 -0.812291E-03  0.542E-03    0.20       2.7  T
   4    -80.3651449 -0.232498E-05  0.329E-03    0.19       4.4  T
   5    -80.3651433  0.153163E-05  0.512E-03    0.19       2.8  T
   6    -80.3651444 -0.102447E-05  0.311E-03    0.19       4.7  T
   7    -80.3651451 -0.769125E-06  0.823E-04    0.19      17.7  T
   8    -80.3651452 -0.569112E-07  0.797E-05    0.19     183.1  T
   9    -80.3651452 -0.239154E-09  0.252E-05    0.19     578.5  T
     SCC iter.                  ...        0 min,  0.034 sec
     gradient                   ...        0 min,  0.100 sec
 * total energy  :   -79.4860600 Eh     change       -0.3746891E-03 Eh
   gradient norm :     0.0081577 Eh/α   predicted    -0.2417995E-03 ( -35.47%)
   displ. norm   :     0.3234145 α      lambda       -0.6423588E-03
   maximum displ.:     0.1721820 α      in ANC's #6, #4, #11, ...

........................................................................
.............................. CYCLE    5 ..............................
........................................................................
   1    -80.3659061 -0.803659E+02  0.295E-02    0.25       0.0  T
   2    -80.3654917  0.414406E-03  0.777E-02    0.16       1.0  T
   3    -80.3659972 -0.505464E-03  0.753E-03    0.21       1.9  T
   4    -80.3659993 -0.209714E-05  0.748E-03    0.20       1.9  T
   5    -80.3659965  0.274486E-05  0.845E-03    0.20       1.7  T
   6    -80.3660000 -0.349048E-05  0.371E-03    0.21       3.9  T
   7    -80.3660012 -0.111769E-05  0.633E-04    0.21      23.0  T
   8    -80.3660012 -0.309260E-07  0.906E-05    0.21     160.9  T
   9    -80.3660012 -0.133369E-09  0.329E-05    0.21     443.7  T
     SCC iter.                  ...        0 min,  0.034 sec
     gradient                   ...        0 min,  0.099 sec
 * total energy  :   -79.4864881 Eh     change       -0.4280884E-03 Eh
   gradient norm :     0.0065036 Eh/α   predicted    -0.3547798E-03 ( -17.12%)
   displ. norm   :     0.2499270 α      lambda       -0.2630094E-03
   maximum displ.:     0.1293105 α      in ANC's #6, #4, #2, ...

........................................................................
.............................. CYCLE    6 ..............................
........................................................................
   1    -80.3663266 -0.803663E+02  0.141E-02    0.23       0.0  T
   2    -80.3662918  0.347697E-04  0.262E-02    0.20       1.0  T
   3    -80.3663458 -0.539312E-04  0.300E-03    0.22       4.9  T
   4    -80.3663458 -0.300246E-07  0.322E-03    0.21       4.5  T
   5    -80.3663459 -0.122566E-06  0.223E-03    0.21       6.5  T
   6    -80.3663461 -0.227638E-06  0.688E-04    0.21      21.2  T
   7    -80.3663462 -0.336739E-07  0.637E-05    0.22     229.1  T
   8    -80.3663462 -0.215294E-10  0.369E-05    0.22     394.9  T
     SCC iter.                  ...        0 min,  0.025 sec
     gradient                   ...        0 min,  0.100 sec
 * total energy  :   -79.4866895 Eh     change       -0.2013489E-03 Eh
   gradient norm :     0.0069043 Eh/α   predicted    -0.1397196E-03 ( -30.61%)
   displ. norm   :     0.3099367 α      lambda       -0.2809172E-03
   maximum displ.:     0.1466747 α      in ANC's #6, #2, #4, ...

........................................................................
.............................. CYCLE    7 ..............................
........................................................................
   1    -80.3668455 -0.803668E+02  0.108E-02    0.23       0.0  T
   2    -80.3668418  0.374491E-05  0.116E-02    0.21       1.3  T
   3    -80.3668512 -0.947370E-05  0.417E-03    0.22       3.5  T
   4    -80.3668525 -0.129107E-05  0.124E-03    0.22      11.8  T
   5    -80.3668525 -0.835161E-08  0.580E-04    0.22      25.1  T
   6    -80.3668526 -0.609803E-08  0.250E-04    0.22      58.3  T
   7    -80.3668526 -0.327496E-08  0.372E-05    0.22     391.8  T
   8    -80.3668526 -0.330687E-10  0.151E-05    0.22     966.2  T
     SCC iter.                  ...        0 min,  0.032 sec
     gradient                   ...        0 min,  0.100 sec
 * total energy  :   -79.4868973 Eh     change       -0.2078612E-03 Eh
   gradient norm :     0.0056631 Eh/α   predicted    -0.1539513E-03 ( -25.94%)
   displ. norm   :     0.2785940 α      lambda       -0.1980476E-03
   maximum displ.:     0.1198214 α      in ANC's #2, #6, #1, ...

........................................................................
.............................. CYCLE    8 ..............................
........................................................................
   1    -80.3674795 -0.803675E+02  0.706E-03    0.22       0.0  T
   2    -80.3674807 -0.120285E-05  0.459E-03    0.22       3.2  T
   3    -80.3674807 -0.124128E-07  0.308E-03    0.22       4.7  T
   4    -80.3674813 -0.609884E-06  0.217E-03    0.22       6.7  T
   5    -80.3674815 -0.209761E-06  0.575E-04    0.22      25.4  T
   6    -80.3674815 -0.925031E-08  0.936E-05    0.22     155.8  T
   7    -80.3674815 -0.202348E-09  0.341E-05    0.22     427.3  T
     SCC iter.                  ...        0 min,  0.028 sec
     gradient                   ...        0 min,  0.101 sec
 * total energy  :   -79.4870382 Eh     change       -0.1408345E-03 Eh
   gradient norm :     0.0043248 Eh/α   predicted    -0.1067097E-03 ( -24.23%)
   displ. norm   :     0.2045988 α      lambda       -0.1108513E-03
   maximum displ.:     0.0996861 α      in ANC's #2, #1, #3, ...

........................................................................
.............................. CYCLE    9 ..............................
........................................................................
   1    -80.3682031 -0.803682E+02  0.674E-03    0.21       0.0  T
   2    -80.3681975  0.550483E-05  0.121E-02    0.23       1.2  T
   3    -80.3682073 -0.975376E-05  0.325E-03    0.22       4.5  T
   4    -80.3682074 -0.107774E-06  0.214E-03    0.22       6.8  T
   5    -80.3682076 -0.166887E-06  0.514E-04    0.22      28.4  T
   6    -80.3682076 -0.473098E-08  0.141E-04    0.22     103.6  T
   7    -80.3682076 -0.105101E-08  0.262E-05    0.22     556.9  T
     SCC iter.                  ...        0 min,  0.028 sec
     gradient                   ...        0 min,  0.101 sec
 * total energy  :   -79.4871188 Eh     change       -0.8057936E-04 Eh
   gradient norm :     0.0034145 Eh/α   predicted    -0.5774888E-04 ( -28.33%)
   displ. norm   :     0.1709446 α      lambda       -0.8179151E-04
   maximum displ.:     0.0908782 α      in ANC's #2, #1, #3, ...

........................................................................
.............................. CYCLE   10 ..............................
........................................................................
   1    -80.3689486 -0.803689E+02  0.729E-03    0.20       0.0  T
   2    -80.3689376  0.109790E-04  0.153E-02    0.23       1.0  T
   3    -80.3689540 -0.163109E-04  0.397E-03    0.21       3.7  T
   4    -80.3689545 -0.511301E-06  0.202E-03    0.21       7.2  T
   5    -80.3689546 -0.150986E-06  0.336E-04    0.21      43.4  T
   6    -80.3689546 -0.109715E-08  0.142E-04    0.21     102.5  T
   7    -80.3689546 -0.109196E-08  0.206E-05    0.21     707.1  T
     SCC iter.                  ...        0 min,  0.028 sec
     gradient                   ...        0 min,  0.101 sec
 * total energy  :   -79.4871820 Eh     change       -0.6320682E-04 Eh
   gradient norm :     0.0027666 Eh/α   predicted    -0.4209472E-04 ( -33.40%)
   displ. norm   :     0.2042795 α      lambda       -0.8743935E-04
   maximum displ.:     0.1111323 α      in ANC's #2, #1, #3, ...

........................................................................
.............................. CYCLE   11 ..............................
........................................................................
   1    -80.3694167 -0.803694E+02  0.752E-03    0.20       0.0  T
   2    -80.3694039  0.128054E-04  0.158E-02    0.22       1.0  T
   3    -80.3694221 -0.182205E-04  0.347E-03    0.21       4.2  T
   4    -80.3694225 -0.406170E-06  0.165E-03    0.21       8.8  T
   5    -80.3694226 -0.983837E-07  0.281E-04    0.21      51.9  T
   6    -80.3694226 -0.946443E-09  0.111E-04    0.21     131.8  T
   7    -80.3694226 -0.637343E-09  0.191E-05    0.21     763.2  T
     SCC iter.                  ...        0 min,  0.028 sec
     gradient                   ...        0 min,  0.100 sec
 * total energy  :   -79.4872502 Eh     change       -0.6824950E-04 Eh
   gradient norm :     0.0032550 Eh/α   predicted    -0.4555125E-04 ( -33.26%)
   displ. norm   :     0.2487611 α      lambda       -0.9430123E-04
   maximum displ.:     0.1355558 α      in ANC's #2, #1, #3, ...

........................................................................
.............................. CYCLE   12 ..............................
........................................................................
   1    -80.3694427 -0.803694E+02  0.609E-03    0.21       0.0  T
   2    -80.3694386  0.411436E-05  0.980E-03    0.22       1.5  T
   3    -80.3694456 -0.704894E-05  0.137E-03    0.21      10.6  T
   4    -80.3694456  0.509621E-07  0.145E-03    0.21      10.1  T
   5    -80.3694457 -0.931102E-07  0.415E-04    0.21      35.1  T
   6    -80.3694457 -0.332071E-08  0.729E-05    0.21     200.1  T
   7    -80.3694457 -0.863309E-10  0.325E-05    0.21     448.3  T
     SCC iter.                  ...        0 min,  0.028 sec
     gradient                   ...        0 min,  0.101 sec
 * total energy  :   -79.4873252 Eh     change       -0.7503262E-04 Eh
   gradient norm :     0.0044855 Eh/α   predicted    -0.5008781E-04 ( -33.25%)
   displ. norm   :     0.3057122 α      lambda       -0.1117541E-03
   maximum displ.:     0.1674097 α      in ANC's #2, #1, #3, ...

........................................................................
.............................. CYCLE   13 ..............................
........................................................................
   1    -80.3690288 -0.803690E+02  0.711E-03    0.21       0.0  T
   2    -80.3690314 -0.259174E-05  0.386E-03    0.21       3.8  T
   3    -80.3690318 -0.313839E-06  0.257E-03    0.21       5.7  T
   4    -80.3690320 -0.291592E-06  0.181E-03    0.21       8.1  T
   5    -80.3690322 -0.185431E-06  0.490E-04    0.21      29.7  T
   6    -80.3690322 -0.177820E-08  0.148E-04    0.21      98.5  T
   7    -80.3690322 -0.980123E-09  0.342E-05    0.21     426.8  T
     SCC iter.                  ...        0 min,  0.028 sec
     gradient                   ...        0 min,  0.101 sec
 * total energy  :   -79.4874146 Eh     change       -0.8931438E-04 Eh
   gradient norm :     0.0051704 Eh/α   predicted    -0.6109988E-04 ( -31.59%)
   displ. norm   :     0.3412114 α      lambda       -0.1258212E-03
   maximum displ.:     0.1905946 α      in ANC's #2, #1, #3, ...

........................................................................
.............................. CYCLE   14 ..............................
........................................................................
   1    -80.3684983 -0.803685E+02  0.111E-02    0.23       0.0  T
   2    -80.3684945  0.373996E-05  0.137E-02    0.21       1.1  T
   3    -80.3685075 -0.129174E-04  0.362E-03    0.22       4.0  T
   4    -80.3685081 -0.677117E-06  0.250E-03    0.22       5.8  T
   5    -80.3685083 -0.143937E-06  0.126E-03    0.22      11.6  T
   6    -80.3685083 -0.620046E-07  0.356E-04    0.22      41.0  T
   7    -80.3685084 -0.740845E-08  0.519E-05    0.22     281.2  T
   8    -80.3685084 -0.502212E-10  0.213E-05    0.22     683.8  T
     SCC iter.                  ...        0 min,  0.032 sec
     gradient                   ...        0 min,  0.101 sec
 * total energy  :   -79.4875102 Eh     change       -0.9568338E-04 Eh
   gradient norm :     0.0046433 Eh/α   predicted    -0.7023818E-04 ( -26.59%)
   displ. norm   :     0.2870513 α      lambda       -0.1034137E-03
   maximum displ.:     0.1672593 α      in ANC's #2, #1, #3, ...

........................................................................
.............................. CYCLE   15 ..............................
........................................................................
   1    -80.3687026 -0.803687E+02  0.118E-02    0.24       0.0  T
   2    -80.3686990  0.352992E-05  0.147E-02    0.21       1.0  T
   3    -80.3687136 -0.146040E-04  0.290E-03    0.23       5.0  T
   4    -80.3687138 -0.154839E-06  0.271E-03    0.22       5.4  T
   5    -80.3687139 -0.155009E-06  0.132E-03    0.22      11.0  T
   6    -80.3687140 -0.764729E-07  0.362E-04    0.23      40.2  T
   7    -80.3687140 -0.744912E-08  0.560E-05    0.23     260.5  T
   8    -80.3687140 -0.681837E-10  0.206E-05    0.23     708.6  T
     SCC iter.                  ...        0 min,  0.031 sec
     gradient                   ...        0 min,  0.101 sec
 * total energy  :   -79.4875851 Eh     change       -0.7486293E-04 Eh
   gradient norm :     0.0031142 Eh/α   predicted    -0.5597185E-04 ( -25.23%)
   displ. norm   :     0.2090424 α      lambda       -0.6375474E-04
   maximum displ.:     0.1284195 α      in ANC's #2, #1, #3, ...

........................................................................
.............................. CYCLE   16 ..............................
........................................................................
   1    -80.3692337 -0.803692E+02  0.821E-03    0.24       0.0  T
   2    -80.3692349 -0.114487E-05  0.728E-03    0.22       2.0  T
   3    -80.3692379 -0.304002E-05  0.224E-03    0.23       6.5  T
   4    -80.3692382 -0.244901E-06  0.157E-03    0.23       9.3  T
   5    -80.3692382 -0.560114E-07  0.633E-04    0.23      23.0  T
   6    -80.3692382 -0.138405E-07  0.181E-04    0.23      80.4  T
   7    -80.3692382 -0.151491E-08  0.343E-05    0.23     425.8  T
     SCC iter.                  ...        0 min,  0.028 sec
     gradient                   ...        0 min,  0.102 sec
 * total energy  :   -79.4876323 Eh     change       -0.4719624E-04 Eh
   gradient norm :     0.0023219 Eh/α   predicted    -0.3327381E-04 ( -29.50%)
   displ. norm   :     0.1848299 α      lambda       -0.4765208E-04
   maximum displ.:     0.1168950 α      in ANC's #2, #1, #3, ...

........................................................................
.............................. CYCLE   17 ..............................
........................................................................
   1    -80.3697265 -0.803697E+02  0.572E-03    0.24       0.0  T
   2    -80.3697278 -0.125446E-05  0.238E-03    0.23       6.1  T
   3    -80.3697279 -0.997329E-07  0.152E-03    0.23       9.6  T
   4    -80.3697280 -0.101015E-06  0.958E-04    0.23      15.2  T
   5    -80.3697280 -0.335221E-07  0.256E-04    0.23      56.9  T
   6    -80.3697280 -0.947338E-09  0.886E-05    0.23     164.7  T
   7    -80.3697280 -0.302592E-09  0.227E-05    0.23     643.4  T
     SCC iter.                  ...        0 min,  0.028 sec
     gradient                   ...        0 min,  0.101 sec
 * total energy  :   -79.4876684 Eh     change       -0.3605999E-04 Eh
   gradient norm :     0.0023363 Eh/α   predicted    -0.2464031E-04 ( -31.67%)
   displ. norm   :     0.1636102 α      lambda       -0.3809019E-04
   maximum displ.:     0.1055397 α      in ANC's #2, #1, #3, ...

........................................................................
.............................. CYCLE   18 ..............................
........................................................................
   1    -80.3700663 -0.803701E+02  0.404E-03    0.23       0.0  T
   2    -80.3700667 -0.374322E-06  0.246E-03    0.24       5.9  T
   3    -80.3700669 -0.198685E-06  0.132E-03    0.23      11.1  T
   4    -80.3700670 -0.964341E-07  0.637E-04    0.23      22.9  T
   5    -80.3700670 -0.101320E-07  0.146E-04    0.23      99.6  T
   6    -80.3700670 -0.514518E-09  0.513E-05    0.23     284.3  T
     SCC iter.                  ...        0 min,  0.024 sec
     gradient                   ...        0 min,  0.100 sec
 * total energy  :   -79.4876973 Eh     change       -0.2892820E-04 Eh
   gradient norm :     0.0022278 Eh/α   predicted    -0.1955590E-04 ( -32.40%)
   displ. norm   :     0.1370969 α      lambda       -0.3002941E-04
   maximum displ.:     0.0898640 α      in ANC's #2, #1, #3, ...

........................................................................
.............................. CYCLE   19 ..............................
........................................................................
   1    -80.3702927 -0.803703E+02  0.312E-03    0.23       0.0  T
   2    -80.3702925  0.171609E-06  0.378E-03    0.24       3.9  T
   3    -80.3702934 -0.868132E-06  0.838E-04    0.23      17.4  T
   4    -80.3702934  0.713310E-08  0.619E-04    0.23      23.6  T
   5    -80.3702934 -0.961690E-08  0.982E-05    0.23     148.6  T
   6    -80.3702934 -0.299622E-09  0.375E-05    0.23     389.5  T
     SCC iter.                  ...        0 min,  0.024 sec
     gradient                   ...        0 min,  0.101 sec
 * total energy  :   -79.4877209 Eh     change       -0.2361195E-04 Eh
   gradient norm :     0.0018512 Eh/α   predicted    -0.1529908E-04 ( -35.21%)
   displ. norm   :     0.2122411 α      lambda       -0.2772766E-04
   maximum displ.:     0.1397000 α      in ANC's #2, #1, #8, ...

........................................................................
.............................. CYCLE   20 ..............................
........................................................................
   1    -80.3698611 -0.803699E+02  0.486E-03    0.22       0.0  T
   2    -80.3698600  0.111031E-05  0.709E-03    0.24       2.1  T
   3    -80.3698632 -0.323139E-05  0.157E-03    0.23       9.3  T
   4    -80.3698633 -0.161966E-07  0.985E-04    0.23      14.8  T
   5    -80.3698633 -0.263812E-07  0.156E-04    0.23      93.7  T
   6    -80.3698633 -0.635708E-09  0.525E-05    0.23     277.8  T
     SCC iter.                  ...        0 min,  0.024 sec
     gradient                   ...        0 min,  0.101 sec
 * total energy  :   -79.4877485 Eh     change       -0.2755919E-04 Eh
   gradient norm :     0.0017188 Eh/α   predicted    -0.1414567E-04 ( -48.67%)
   displ. norm   :     0.1197506 α      lambda       -0.1611345E-04
   maximum displ.:     0.0778118 α      in ANC's #2, #1, #6, ...
 * RMSD in coord.:     0.5208105 α      energy gain  -0.1338619E-01 Eh

generating ANC from model Hessian ...
Using Lindh-Hessian (1995)
 Shifting diagonal of input Hessian by   9.807793048104307E-003
 Lowest  eigenvalues of input Hessian
    0.000000    0.000000    0.000000    0.000000    0.000000    0.000000
    0.010000    0.010098    0.010211    0.010752    0.011417    0.011789
    0.012691    0.013294    0.014594    0.016000    0.016393    0.017585
 Highest eigenvalues
    1.976039    2.061863    2.120622    2.173256    2.360860    2.383167
 

........................................................................
.............................. CYCLE   21 ..............................
........................................................................
   1    -80.3706696 -0.803707E+02  0.233E-03    0.23       0.0  T
   2    -80.3706695  0.848770E-07  0.305E-03    0.23       4.8  T
   3    -80.3706701 -0.616220E-06  0.657E-04    0.23      22.2  T
   4    -80.3706701  0.295880E-08  0.538E-04    0.23      27.1  T
   5    -80.3706701 -0.902267E-08  0.154E-04    0.23      94.6  T
   6    -80.3706701 -0.351264E-09  0.281E-05    0.23     519.4  T
     SCC iter.                  ...        0 min,  0.024 sec
     gradient                   ...        0 min,  0.101 sec
 * total energy  :   -79.4877665 Eh     change       -0.1807824E-04 Eh
   gradient norm :     0.0019710 Eh/α   predicted     0.0000000E+00 (-100.00%)
   displ. norm   :     0.0335007 α      lambda       -0.1210725E-04
   maximum displ.:     0.0175153 α      in ANC's #2, #10, #1, ...

........................................................................
.............................. CYCLE   22 ..............................
........................................................................
   1    -80.3697939 -0.803698E+02  0.224E-03    0.23       0.0  T
   2    -80.3697940 -0.125188E-06  0.178E-03    0.23       8.2  T
   3    -80.3697942 -0.146725E-06  0.744E-04    0.23      19.6  T
   4    -80.3697942 -0.113785E-07  0.546E-04    0.23      26.7  T
   5    -80.3697942 -0.996801E-08  0.108E-04    0.23     135.6  T
   6    -80.3697942 -0.149498E-09  0.299E-05    0.23     487.2  T
     SCC iter.                  ...        0 min,  0.024 sec
     gradient                   ...        0 min,  0.101 sec
 * total energy  :   -79.4877807 Eh     change       -0.1415885E-04 Eh
   gradient norm :     0.0008181 Eh/α   predicted    -0.6277501E-05 ( -55.66%)
   displ. norm   :     0.0809458 α      lambda       -0.1653580E-04
   maximum displ.:     0.0445507 α      in ANC's #2, #1, #10, ...

........................................................................
.............................. CYCLE   23 ..............................
........................................................................
   1    -80.3693786 -0.803694E+02  0.306E-03    0.23       0.0  T
   2    -80.3693787 -0.135386E-06  0.310E-03    0.23       4.7  T
   3    -80.3693793 -0.528970E-06  0.819E-04    0.23      17.8  T
   4    -80.3693793  0.322242E-08  0.783E-04    0.23      18.6  T
   5    -80.3693793 -0.176411E-07  0.204E-04    0.23      71.5  T
   6    -80.3693793 -0.103411E-08  0.433E-05    0.23     336.7  T
   7    -80.3693793 -0.857909E-10  0.977E-06    0.23    1492.4  T
     SCC iter.                  ...        0 min,  0.028 sec
     gradient                   ...        0 min,  0.101 sec
 * total energy  :   -79.4877985 Eh     change       -0.1775102E-04 Eh
   gradient norm :     0.0013098 Eh/α   predicted    -0.8292575E-05 ( -53.28%)
   displ. norm   :     0.0965547 α      lambda       -0.1251806E-04
   maximum displ.:     0.0561136 α      in ANC's #2, #1, #10, ...

........................................................................
.............................. CYCLE   24 ..............................
........................................................................
   1    -80.3694142 -0.803694E+02  0.211E-03    0.24       0.0  T
   2    -80.3694142  0.494224E-08  0.221E-03    0.23       6.6  T
   3    -80.3694144 -0.266146E-06  0.600E-04    0.23      24.3  T
   4    -80.3694144  0.272146E-08  0.488E-04    0.23      29.9  T
   5    -80.3694144 -0.618944E-08  0.880E-05    0.23     165.7  T
   6    -80.3694144 -0.258112E-09  0.265E-05    0.23     550.1  T
     SCC iter.                  ...        0 min,  0.024 sec
     gradient                   ...        0 min,  0.101 sec
 * total energy  :   -79.4878133 Eh     change       -0.1483249E-04 Eh
   gradient norm :     0.0016426 Eh/α   predicted    -0.6296052E-05 ( -57.55%)
   displ. norm   :     0.1307946 α      lambda       -0.1539507E-04
   maximum displ.:     0.0776402 α      in ANC's #2, #1, #5, ...

........................................................................
.............................. CYCLE   25 ..............................
........................................................................
   1    -80.3696338 -0.803696E+02  0.173E-03    0.23       0.0  T
   2    -80.3696339 -0.500283E-07  0.940E-04    0.23      15.5  T
   3    -80.3696339 -0.992202E-08  0.623E-04    0.23      23.4  T
   4    -80.3696339 -0.135328E-07  0.343E-04    0.23      42.6  T
   5    -80.3696339 -0.430690E-08  0.763E-05    0.23     191.3  T
   6    -80.3696339 -0.175646E-09  0.192E-05    0.23     758.7  T
     SCC iter.                  ...        0 min,  0.024 sec
     gradient                   ...        0 min,  0.101 sec
 * total energy  :   -79.4878326 Eh     change       -0.1931542E-04 Eh
   gradient norm :     0.0015098 Eh/α   predicted    -0.7756370E-05 ( -59.84%)
   displ. norm   :     0.1872925 α      lambda       -0.2168608E-04
   maximum displ.:     0.1130705 α      in ANC's #2, #1, #5, ...

........................................................................
.............................. CYCLE   26 ..............................
........................................................................
   1    -80.3699228 -0.803699E+02  0.235E-03    0.23       0.0  T
   2    -80.3699229 -0.151006E-06  0.149E-03    0.23       9.8  T
   3    -80.3699230 -0.759595E-07  0.801E-04    0.23      18.2  T
   4    -80.3699230 -0.160403E-07  0.513E-04    0.23      28.4  T
   5    -80.3699230 -0.102441E-07  0.122E-04    0.23     119.1  T
   6    -80.3699230 -0.189686E-09  0.294E-05    0.23     496.9  T
     SCC iter.                  ...        0 min,  0.024 sec
     gradient                   ...        0 min,  0.101 sec
 * total energy  :   -79.4878595 Eh     change       -0.2694433E-04 Eh
   gradient norm :     0.0012852 Eh/α   predicted    -0.1101465E-04 ( -59.12%)
   displ. norm   :     0.2236766 α      lambda       -0.2568494E-04
   maximum displ.:     0.1377794 α      in ANC's #2, #1, #5, ...

........................................................................
.............................. CYCLE   27 ..............................
........................................................................
   1    -80.3700835 -0.803701E+02  0.298E-03    0.23       0.0  T
   2    -80.3700836 -0.140967E-06  0.306E-03    0.23       4.8  T
   3    -80.3700842 -0.555827E-06  0.848E-04    0.23      17.2  T
   4    -80.3700841  0.241479E-08  0.701E-04    0.23      20.8  T
   5    -80.3700842 -0.152426E-07  0.188E-04    0.23      77.7  T
   6    -80.3700842 -0.464652E-09  0.473E-05    0.23     308.1  T
     SCC iter.                  ...        0 min,  0.023 sec
     gradient                   ...        0 min,  0.100 sec
 * total energy  :   -79.4878919 Eh     change       -0.3237339E-04 Eh
   gradient norm :     0.0013095 Eh/α   predicted    -0.1313238E-04 ( -59.43%)
   displ. norm   :     0.2644397 α      lambda       -0.2966760E-04
   maximum displ.:     0.1664899 α      in ANC's #2, #1, #5, ...

........................................................................
.............................. CYCLE   28 ..............................
........................................................................
   1    -80.3701080 -0.803701E+02  0.348E-03    0.23       0.0  T
   2    -80.3701082 -0.194160E-06  0.358E-03    0.23       4.1  T
   3    -80.3701090 -0.800663E-06  0.930E-04    0.23      15.7  T
   4    -80.3701090 -0.446640E-08  0.764E-04    0.23      19.1  T
   5    -80.3701090 -0.177767E-07  0.256E-04    0.23      57.0  T
   6    -80.3701090 -0.116174E-08  0.585E-05    0.23     249.4  T
   7    -80.3701090 -0.109779E-09  0.198E-05    0.23     736.3  T
     SCC iter.                  ...        0 min,  0.026 sec
     gradient                   ...        0 min,  0.101 sec
 * total energy  :   -79.4879307 Eh     change       -0.3876926E-04 Eh
   gradient norm :     0.0014528 Eh/α   predicted    -0.1531533E-04 ( -60.50%)
   displ. norm   :     0.3282760 α      lambda       -0.3512175E-04
   maximum displ.:     0.2099677 α      in ANC's #2, #1, #5, ...

........................................................................
.............................. CYCLE   29 ..............................
........................................................................
   1    -80.3696316 -0.803696E+02  0.364E-03    0.23       0.0  T
   2    -80.3696320 -0.419321E-06  0.290E-03    0.23       5.0  T
   3    -80.3696325 -0.455603E-06  0.116E-03    0.23      12.6  T
   4    -80.3696325 -0.496211E-07  0.753E-04    0.23      19.4  T
   5    -80.3696326 -0.196781E-07  0.240E-04    0.23      60.8  T
   6    -80.3696326 -0.784482E-09  0.584E-05    0.23     249.9  T
   7    -80.3696326 -0.925979E-10  0.221E-05    0.23     661.2  T
     SCC iter.                  ...        0 min,  0.026 sec
     gradient                   ...        0 min,  0.092 sec
 * total energy  :   -79.4879738 Eh     change       -0.4310546E-04 Eh
   gradient norm :     0.0015563 Eh/α   predicted    -0.1840234E-04 ( -57.31%)
   displ. norm   :     0.2656947 α      lambda       -0.2801443E-04
   maximum displ.:     0.1758306 α      in ANC's #2, #1, #5, ...

........................................................................
.............................. CYCLE   30 ..............................
........................................................................
   1    -80.3700452 -0.803700E+02  0.229E-03    0.23       0.0  T
   2    -80.3700454 -0.234645E-06  0.124E-03    0.23      11.8  T
   3    -80.3700454 -0.309086E-07  0.638E-04    0.23      22.9  T
   4    -80.3700454 -0.179631E-08  0.251E-04    0.23      58.2  T
   5    -80.3700454 -0.119627E-09  0.104E-04    0.23     140.4  T
   6    -80.3700454 -0.443464E-09  0.546E-05    0.23     267.1  T
     SCC iter.                  ...        0 min,  0.023 sec
     gradient                   ...        0 min,  0.098 sec
 * total energy  :   -79.4880035 Eh     change       -0.2966204E-04 Eh
   gradient norm :     0.0014161 Eh/α   predicted    -0.1444817E-04 ( -51.29%)
   displ. norm   :     0.1735483 α      lambda       -0.1416677E-04
   maximum displ.:     0.1168080 α      in ANC's #2, #1, #5, ...

........................................................................
.............................. CYCLE   31 ..............................
........................................................................
   1    -80.3696577 -0.803697E+02  0.198E-03    0.23       0.0  T
   2    -80.3696577  0.198424E-07  0.193E-03    0.23       7.6  T
   3    -80.3696579 -0.166334E-06  0.715E-04    0.23      20.4  T
   4    -80.3696579 -0.317590E-08  0.476E-04    0.23      30.6  T
   5    -80.3696579 -0.789025E-08  0.754E-05    0.23     193.3  T
   6    -80.3696579 -0.800782E-10  0.297E-05    0.23     491.8  T
     SCC iter.                  ...        0 min,  0.023 sec
     gradient                   ...        0 min,  0.098 sec
 * total energy  :   -79.4880182 Eh     change       -0.1479464E-04 Eh
   gradient norm :     0.0010660 Eh/α   predicted    -0.7182705E-05 ( -51.45%)
   displ. norm   :     0.1005813 α      lambda       -0.1348163E-04
   maximum displ.:     0.0687012 α      in ANC's #2, #1, #15, ...

........................................................................
.............................. CYCLE   32 ..............................
........................................................................
   1    -80.3706863 -0.803707E+02  0.260E-03    0.23       0.0  T
   2    -80.3706861  0.118914E-06  0.305E-03    0.23       4.8  T
   3    -80.3706867 -0.583033E-06  0.790E-04    0.23      18.5  T
   4    -80.3706867  0.388243E-08  0.564E-04    0.23      25.8  T
   5    -80.3706867 -0.855943E-08  0.158E-04    0.23      92.6  T
   6    -80.3706867 -0.786116E-09  0.419E-05    0.23     348.2  T
     SCC iter.                  ...        0 min,  0.023 sec
     gradient                   ...        0 min,  0.095 sec
 * total energy  :   -79.4880325 Eh     change       -0.1423745E-04 Eh
   gradient norm :     0.0011599 Eh/α   predicted    -0.6772900E-05 ( -52.43%)
   displ. norm   :     0.1216733 α      lambda       -0.1386185E-04
   maximum displ.:     0.0821665 α      in ANC's #2, #1, #15, ...

........................................................................
.............................. CYCLE   33 ..............................
........................................................................
   1    -80.3705014 -0.803705E+02  0.228E-03    0.23       0.0  T
   2    -80.3705015 -0.140068E-06  0.211E-03    0.23       6.9  T
   3    -80.3705018 -0.249301E-06  0.678E-04    0.23      21.5  T
   4    -80.3705018 -0.729689E-08  0.532E-04    0.23      27.4  T
   5    -80.3705018 -0.813363E-08  0.176E-04    0.23      82.8  T
   6    -80.3705018 -0.690903E-09  0.425E-05    0.23     343.0  T
     SCC iter.                  ...        0 min,  0.024 sec
     gradient                   ...        0 min,  0.094 sec
 * total energy  :   -79.4880489 Eh     change       -0.1640889E-04 Eh
   gradient norm :     0.0012317 Eh/α   predicted    -0.6979780E-05 ( -57.46%)
   displ. norm   :     0.1425058 α      lambda       -0.1645129E-04
   maximum displ.:     0.0849624 α      in ANC's #2, #1, #15, ...

........................................................................
.............................. CYCLE   34 ..............................
........................................................................
   1    -80.3704422 -0.803704E+02  0.354E-03    0.24       0.0  T
   2    -80.3704427 -0.558547E-06  0.227E-03    0.23       6.4  T
   3    -80.3704430 -0.247945E-06  0.105E-03    0.23      13.9  T
   4    -80.3704430 -0.555899E-07  0.600E-04    0.23      24.3  T
   5    -80.3704430 -0.105143E-07  0.224E-04    0.23      65.1  T
   6    -80.3704430 -0.670497E-09  0.628E-05    0.23     232.2  T
   7    -80.3704430 -0.148503E-09  0.170E-05    0.23     858.6  T
     SCC iter.                  ...        0 min,  0.028 sec
     gradient                   ...        0 min,  0.098 sec
 * total energy  :   -79.4880680 Eh     change       -0.1907984E-04 Eh
   gradient norm :     0.0012480 Eh/α   predicted    -0.8300806E-05 ( -56.49%)
   displ. norm   :     0.1680992 α      lambda       -0.1569374E-04
   maximum displ.:     0.0914037 α      in ANC's #2, #1, #5, ...

........................................................................
.............................. CYCLE   35 ..............................
........................................................................
   1    -80.3702754 -0.803703E+02  0.401E-03    0.24       0.0  T
   2    -80.3702762 -0.784568E-06  0.164E-03    0.23       8.9  T
   3    -80.3702763 -0.104722E-06  0.772E-04    0.24      18.9  T
   4    -80.3702763 -0.465131E-08  0.534E-04    0.23      27.3  T
   5    -80.3702763 -0.107803E-07  0.228E-04    0.24      64.1  T
   6    -80.3702763 -0.159982E-08  0.623E-05    0.24     234.1  T
   7    -80.3702763 -0.147594E-09  0.192E-05    0.24     761.6  T
     SCC iter.                  ...        0 min,  0.028 sec
     gradient                   ...        0 min,  0.098 sec
 * total energy  :   -79.4880837 Eh     change       -0.1572208E-04 Eh
   gradient norm :     0.0010612 Eh/α   predicted    -0.7946250E-05 ( -49.46%)
   displ. norm   :     0.0972296 α      lambda       -0.6933179E-05
   maximum displ.:     0.0502079 α      in ANC's #2, #1, #5, ...

........................................................................
.............................. CYCLE   36 ..............................
........................................................................
   1    -80.3702893 -0.803703E+02  0.247E-03    0.24       0.0  T
   2    -80.3702896 -0.219580E-06  0.100E-03    0.24      14.6  T
   3    -80.3702896 -0.216910E-07  0.546E-04    0.24      26.7  T
   4    -80.3702896 -0.333134E-08  0.375E-04    0.24      38.9  T
   5    -80.3702896 -0.466595E-08  0.129E-04    0.24     113.3  T
   6    -80.3702896 -0.795694E-09  0.383E-05    0.24     380.4  T
     SCC iter.                  ...        0 min,  0.024 sec
     gradient                   ...        0 min,  0.100 sec
 * total energy  :   -79.4880909 Eh     change       -0.7161907E-05 Eh
   gradient norm :     0.0006665 Eh/α   predicted    -0.3482702E-05 ( -51.37%)
   displ. norm   :     0.0677455 α      lambda       -0.4351268E-05
   maximum displ.:     0.0352565 α      in ANC's #2, #5, #1, ...

........................................................................
.............................. CYCLE   37 ..............................
........................................................................
   1    -80.3704572 -0.803705E+02  0.168E-03    0.24       0.0  T
   2    -80.3704573 -0.778346E-07  0.784E-04    0.24      18.6  T
   3    -80.3704573 -0.515936E-08  0.484E-04    0.24      30.1  T
   4    -80.3704573 -0.614679E-08  0.330E-04    0.24      44.2  T
   5    -80.3704573 -0.388853E-08  0.631E-05    0.24     231.3  T
   6    -80.3704573 -0.120210E-09  0.207E-05    0.24     703.7  T
     SCC iter.                  ...        0 min,  0.023 sec
     gradient                   ...        0 min,  0.095 sec
 * total energy  :   -79.4880950 Eh     change       -0.4166576E-05 Eh
   gradient norm :     0.0004166 Eh/α   predicted    -0.2182419E-05 ( -47.62%)
   displ. norm   :     0.0361245 α      lambda       -0.2202320E-05
   maximum displ.:     0.0192282 α      in ANC's #2, #8, #5, ...

   *** GEOMETRY OPTIMIZATION CONVERGED AFTER 37 ITERATIONS ***

------------------------------------------------------------------------
 total energy gain   :        -0.0137328 Eh       -8.6174 kcal/mol
 total RMSD          :         0.7459425 a0        0.3947 Å
 total power (kW/mol):        -0.9744687 (step)   -5.6206 (real)
------------------------------------------------------------------------

 ANCopt (total)                0 d,  0 h,  0 min,  6.415 sec
 optimizer setup                ...        0 min,  0.001 sec (  0.015%)
 model hessian                  ...        0 min,  0.088 sec (  1.376%)
 ANC generation                 ...        0 min,  0.006 sec (  0.094%)
 coordinate transformation      ...        0 min,  0.001 sec (  0.022%)
 single point calculation       ...        0 min,  6.299 sec ( 98.198%)
 optimization log               ...        0 min,  0.010 sec (  0.150%)
 hessian update                 ...        0 min,  0.001 sec (  0.019%)
 rational function              ...        0 min,  0.004 sec (  0.070%)

================
 final structure:
================
47
 xtb: 6.5.1 (579679a)
C           -4.79032677528284       -1.21426369617440        0.69159270856292
N           -3.37548614111378       -1.34495108154991        0.32248546554848
C           -2.56108287545949       -0.26454526012987        0.12859524980341
C           -3.04620442564406        1.17250383472509        0.26233514855882
C           -3.75858004703507        1.59010023051314       -1.03300134825005
C           -1.83057638829534        2.08861954403266        0.48442975897113
N           -3.95860451169311        1.30148500102602        1.39116031240344
N           -1.31598416688568       -0.40360851429399       -0.21808010178599
C           -0.76864453034639       -1.64492074062854       -0.36362427295649
C            0.65174895160934       -1.70065664156053       -0.73748322965415
O            1.28546764403078       -2.74205404472689       -0.85651117501149
N            1.21127639087630       -0.47293014756308       -0.96175540615962
C            2.56630871211630       -0.32900150580533       -1.32939706718396
C            3.51073595860677       -0.03411335196518       -0.03694257693523
C            3.27992413296725       -1.19787173049860        0.95048765331256
C            4.88201432880271       -0.03360109254404       -0.56320100400823
C            5.62848658334331        1.10426476170413       -0.66085841961880
C            5.08853033392470        2.30482183566122       -0.18294462770284
F            5.80871775858420        3.39194784188198       -0.27354133169003
C            3.81915515293923        2.39147988268338        0.40277080832039
C            3.06795287182890        1.25769050637569        0.50295797164751
C           -1.50736198065082       -2.77968217393828       -0.14311695244315
O           -1.02343422216116       -4.01798679180118       -0.24715403799362
C           -2.91518040788657       -2.66040284697367        0.23373020809339
O           -3.65392301143280       -3.60808710996659        0.45266442397196
H           -5.30633499443288       -2.12986922939851        0.40139601213534
H           -4.87284871770133       -1.07078421265022        1.76792121592154
H           -5.23365090738934       -0.36669715612691        0.18150937147448
H           -4.67568020644692        1.02281249671632       -1.18271590047683
H           -4.00834276655200        2.64875930114276       -0.98192949405878
H           -3.09953051456090        1.42524371889153       -1.88413355442975
H           -1.25884468387536        1.75089750229279        1.34680791786601
H           -1.18057500615011        2.07824844185403       -0.38838305587661
H           -2.17201874740094        3.10695796990872        0.66142374804967
H           -3.43341756731827        1.22001064502032        2.25161800400293
H           -4.37338362333493        2.22306473003391        1.37232370267965
H            0.63441209141831        0.34192892147602       -0.80307790418770
H            2.92324206075132       -1.26405243190648       -1.76532580431354
H            2.69058547156942        0.50416122430670       -2.01783025958807
H            3.45969194054171       -2.14915525825367        0.45301613485753
H            2.25517528068002       -1.16743048069824        1.31354185537322
H            3.96214724262715       -1.09081171768149        1.79154355422273
H            5.28282447298711       -0.97947713616733       -0.90981234516313
H            6.62938985327040        1.09788266199270       -1.07523725617983
H            3.46779877402690        3.34461032170272        0.77766179268710
H            2.08600234646510        1.29275699652210        0.95983702756122
H           -0.07157013491581       -3.99329101745554       -0.48575192035819
 
 Bond Distances (Angstroems)
 ---------------------------
C1-N2=1.4680         C1-H26=1.0903        C1-H27=1.0890        C1-H28=1.0840        N2-C1=1.4680         N2-C3=1.3668         
N2-C24=1.3965        C3-N2=1.3668         C3-C4=1.5226         C3-N8=1.2999         C4-C3=1.5226         C4-C5=1.5362         
C4-C6=1.5383         C4-N7=1.4572         C5-C4=1.5362         C5-H29=1.0887        C5-H30=1.0889        C5-H31=1.0890        
C6-C4=1.5383         C6-H32=1.0884        C6-H33=1.0883        C6-H34=1.0885        N7-C4=1.4572         N7-H35=1.0114        
N7-H36=1.0108        N8-C3=1.2999         N8-C9=1.3644         C9-N8=1.3644         C9-C10=1.4698        C9-C22=1.3719        
C10-C9=1.4698        C10-O11=1.2249       C10-N12=1.3677       O11-C10=1.2249       N12-C10=1.3677       N12-C13=1.4114       
N12-H37=1.0109       C13-N12=1.4114       C13-C14=1.6277       C13-H38=1.0917       C13-H39=1.0879       C14-C13=1.6277       
C14-C15=1.5436       C14-C16=1.4688       C14-C21=1.4684       C15-C14=1.5436       C15-H40=1.0885       C15-H41=1.0876       
C15-H42=1.0882       C16-C14=1.4688       C16-C17=1.3644       C16-H43=1.0842       C17-C16=1.3644       C17-C18=1.4005       
C17-H44=1.0833       C18-C17=1.4005       C18-F19=1.3072       C18-C20=1.4007       F19-C18=1.3072       C20-C18=1.4007       
C20-C21=1.3638       C20-H45=1.0828       C21-C14=1.4684       C21-C20=1.3638       C21-H46=1.0836       C22-C9=1.3719        
C22-O23=1.3336       C22-C24=1.4623       O23-C22=1.3336       O23-H47=0.9816       C24-N2=1.3965        C24-C22=1.4623       
C24-O25=1.2214       O25-C24=1.2214       H26-C1=1.0903        H27-C1=1.0890        H28-C1=1.0840        H29-C5=1.0887        
H30-C5=1.0889        H31-C5=1.0890        H32-C6=1.0884        H33-C6=1.0883        H34-C6=1.0885        H35-N7=1.0114        
H36-N7=1.0108        H37-N12=1.0109       H38-C13=1.0917       H39-C13=1.0879       H40-C15=1.0885       H41-C15=1.0876       
H42-C15=1.0882       H43-C16=1.0842       H44-C17=1.0833       H45-C20=1.0828       H46-C21=1.0836       H47-O23=0.9816       
 C  H  Rav=1.0874 sigma=0.0025  Rmin=1.0828  Rmax=1.0917    18
 C  C  Rav=1.4671 sigma=0.0773  Rmin=1.3638  Rmax=1.6277    14
 N  H  Rav=1.0110 sigma=0.0002  Rmin=1.0108  Rmax=1.0114     3
 N  C  Rav=1.3915 sigma=0.0511  Rmin=1.2999  Rmax=1.4680     8
 O  H  Rav=0.9816 sigma=0.0000  Rmin=0.9816  Rmax=0.9816     1
 O  C  Rav=1.2599 sigma=0.0521  Rmin=1.2214  Rmax=1.3336     3
 F  C  Rav=1.3072 sigma=0.0000  Rmin=1.3072  Rmax=1.3072     1
 
 selected bond angles (degree)
 --------------------
H26-C1-N2=108.33               H27-C1-N2=109.47               H27-C1-H26=109.75              H28-C1-N2=110.21               
H28-C1-H26=109.74              H28-C1-H27=109.33              C3-N2-C1=122.65                C24-N2-C1=114.68               
C24-N2-C3=122.63               C4-C3-N2=122.94                N8-C3-N2=121.60                N8-C3-C4=115.44                
C5-C4-C3=109.28                C6-C4-C3=108.84                C6-C4-C5=109.05                N7-C4-C3=110.55                
N7-C4-C5=109.80                N7-C4-C6=109.28                H29-C5-C4=111.40               H30-C5-C4=109.34               
H30-C5-H29=108.65              H31-C5-C4=109.71               H31-C5-H29=108.87              H31-C5-H30=108.82              
H32-C6-C4=110.16               H33-C6-C4=110.52               H33-C6-H32=108.59              H34-C6-C4=109.43               
H34-C6-H32=109.04              H34-C6-H33=109.07              H35-N7-C4=109.07               H36-N7-C4=108.86               
H36-N7-H35=107.60              C9-N8-C3=120.66                C10-C9-N8=116.70               C22-C9-N8=121.29               
C22-C9-C10=122.00              O11-C10-C9=123.84              N12-C10-C9=113.77              N12-C10-O11=122.38             
 
 selected dihedral angles (degree)
 ---------------------------------
C3-N2-C1-H26=157.49           C3-N2-C1-H27=277.14           C3-N2-C1-H28= 37.42           C24-N2-C1-H26=335.23          
C24-N2-C1-H27= 94.87          C24-N2-C1-H28=215.16          C4-C3-N2-C1=359.34            C4-C3-N2-C24=181.78           
N8-C3-N2-C1=181.08            N8-C3-N2-C24=  3.52           C5-C4-C3-N2=278.81            C5-C4-C3-N8= 97.18            
C6-C4-C3-N2=159.82            C6-C4-C3-N8=338.19            N7-C4-C3-N2= 39.78            N7-C4-C3-N8=218.14            
H29-C5-C4-C3= 66.10           H29-C5-C4-C6=184.97           H29-C5-C4-N7=304.68           H30-C5-C4-C3=186.21           
H30-C5-C4-C6=305.07           H30-C5-C4-N7= 64.79           H31-C5-C4-C3=305.48           H31-C5-C4-C6= 64.34           
H31-C5-C4-N7=184.06           H32-C6-C4-C3=304.40           H32-C6-C4-C5=185.26           H32-C6-C4-N7= 65.23           
H33-C6-C4-C3= 64.40           H33-C6-C4-C5=305.26           H33-C6-C4-N7=185.23           H34-C6-C4-C3=184.53           
H34-C6-C4-C5= 65.39           H34-C6-C4-N7=305.35           H35-N7-C4-C3= 71.45           H35-N7-C4-C5=192.11           
H35-N7-C4-C6=311.68           H36-N7-C4-C3=188.60           H36-N7-C4-C5=309.25           H36-N7-C4-C6= 68.82           
C9-N8-C3-N2=358.12            C9-N8-C3-C4=179.73            C10-C9-N8-C3=180.93           C22-C9-N8-C3=359.63           
O11-C10-C9-N8=177.33          O11-C10-C9-C22=358.64         N12-C10-C9-N8=356.52          N12-C10-C9-C22=177.83         
           -------------------------------------------------
          |                Final Singlepoint                |
           -------------------------------------------------

          ...................................................
          :                      SETUP                      :
          :.................................................:
          :  # basis functions                 144          :
          :  # atomic orbitals                 144          :
          :  # shells                           94          :
          :  # electrons                       134          :
          :  # halogen bonds                     0          :
          :  max. iterations                   250          :
          :  Hamiltonian                  GFN1-xTB          :
          :  restarted?                      false          :
          :  GBSA solvation                   true          :
          :  PC potential                    false          :
          :  electronic temp.          300.0000000     K    :
          :  accuracy                    1.0000000          :
          :  -> integral cutoff          0.2500000E+02      :
          :  -> integral neglect         0.1000000E-07      :
          :  -> SCF convergence          0.1000000E-05 Eh   :
          :  -> wf. convergence          0.2000000E-04 e    :
          :  Broyden damping             0.4000000          :
          ...................................................

 iter      E             dE          RMSdq      gap      omega  full diag
   1    -80.3704573 -0.803705E+02  0.637E-06    0.24       0.0  T
   2    -80.3704573 -0.710543E-13  0.390E-06    0.24    3741.4  T
   3    -80.3704573 -0.852651E-13  0.301E-06    0.24    4848.5  T

   *** convergence criteria satisfied after 3 iterations ***

         #    Occupation            Energy/Eh            Energy/eV
      -------------------------------------------------------------
         1        2.0000           -0.9371537             -25.5013
       ...           ...                  ...                  ...
        61        2.0000           -0.4904991             -13.3472
        62        2.0000           -0.4788941             -13.0314
        63        2.0000           -0.4714486             -12.8288
        64        2.0000           -0.4634094             -12.6100
        65        2.0000           -0.4487836             -12.2120
        66        2.0000           -0.4308682             -11.7245
        67        1.9793           -0.4204521             -11.4411 (HOMO)
        68        0.0207           -0.4117915             -11.2054 (LUMO)
        69                         -0.3297801              -8.9738
        70                         -0.3290425              -8.9537
        71                         -0.2874522              -7.8220
        72                         -0.2498862              -6.7997
       ...                                ...                  ...
       144                          0.7085619              19.2809
      -------------------------------------------------------------
                  HL-Gap            0.0086606 Eh            0.2357 eV
             Fermi-level           -0.4161218 Eh          -11.3232 eV

 SCC (total)                   0 d,  0 h,  0 min,  0.148 sec
 SCC setup                      ...        0 min,  0.002 sec (  1.453%)
 Dispersion                     ...        0 min,  0.000 sec (  0.283%)
 classical contributions        ...        0 min,  0.000 sec (  0.094%)
 integral evaluation            ...        0 min,  0.039 sec ( 26.191%)
 iterations                     ...        0 min,  0.012 sec (  8.280%)
 molecular gradient             ...        0 min,  0.094 sec ( 63.100%)
 printout                       ...        0 min,  0.001 sec (  0.576%)

         :::::::::::::::::::::::::::::::::::::::::::::::::::::
         ::                     SUMMARY                     ::
         :::::::::::::::::::::::::::::::::::::::::::::::::::::
         :: total energy             -79.488095025031 Eh    ::
         :: total w/o Gsasa/hb       -79.462554959721 Eh    ::
         :: gradient norm              0.000416771711 Eh/a0 ::
         :: HOMO-LUMO gap              0.235665720899 eV    ::
         ::.................................................::
         :: SCC energy               -80.370457330266 Eh    ::
         :: -> electrostatic           0.332719716519 Eh    ::
         :: -> Gsolv                  -0.114280701424 Eh    ::
         ::    -> Gelec               -0.088740636115 Eh    ::
         ::    -> Gsasa               -0.023709811841 Eh    ::
         ::    -> Ghb                 -0.009454532473 Eh    ::
         ::    -> Gshift               0.007624279005 Eh    ::
         :: repulsion energy           0.913930658495 Eh    ::
         :: dispersion energy         -0.031568353260 Eh    ::
         :: halogen bond corr.         0.000000000000 Eh    ::
         :: add. restraining           0.000000000000 Eh    ::
         :: total charge               1.000000000000 e     ::
         :::::::::::::::::::::::::::::::::::::::::::::::::::::

           -------------------------------------------------
          |                Property Printout                |
           -------------------------------------------------

    * Orbital Energies and Occupations

         #    Occupation            Energy/Eh            Energy/eV
      -------------------------------------------------------------
         1        2.0000           -0.9371537             -25.5013
       ...           ...                  ...                  ...
        55        2.0000           -0.5206052             -14.1664
        56        2.0000           -0.5168269             -14.0636
        57        2.0000           -0.5141221             -13.9900
        58        2.0000           -0.5072456             -13.8029
        59        2.0000           -0.5016391             -13.6503
        60        2.0000           -0.4942858             -13.4502
        61        2.0000           -0.4904991             -13.3472
        62        2.0000           -0.4788941             -13.0314
        63        2.0000           -0.4714486             -12.8288
        64        2.0000           -0.4634094             -12.6100
        65        2.0000           -0.4487836             -12.2120
        66        2.0000           -0.4308682             -11.7245
        67        1.9793           -0.4204521             -11.4411 (HOMO)
        68        0.0207           -0.4117915             -11.2054 (LUMO)
        69                         -0.3297801              -8.9738
        70                         -0.3290425              -8.9537
        71                         -0.2874522              -7.8220
        72                         -0.2498862              -6.7997
        73                         -0.2425126              -6.5991
        74                         -0.1632010              -4.4409
        75                         -0.1580405              -4.3005
        76                         -0.1455393              -3.9603
        77                         -0.1428744              -3.8878
        78                         -0.1361878              -3.7059
       ...                                ...                  ...
       144                          0.7085619              19.2809
      -------------------------------------------------------------
                  HL-Gap            0.0086606 Eh            0.2357 eV
             Fermi-level           -0.4161218 Eh          -11.3232 eV

  Mulliken/CM5 charges         n(s)   n(p)   n(d)
     1C     0.05322 -0.03377   0.993  2.954  0.000
     2N    -0.20611 -0.45217   1.456  3.750  0.000
     3C     0.28180  0.43315   1.027  2.691  0.000
     4C     0.14645  0.18126   1.065  2.789  0.000
     5C    -0.10653 -0.24823   1.021  3.085  0.000
     6C    -0.11160 -0.25168   1.024  3.088  0.000
     7N    -0.51082 -0.97182   1.476  4.035  0.000
     8N    -0.39813 -0.59498   1.527  3.871  0.000
     9C     0.06123  0.14043   1.042  2.897  0.000
    10C     0.47078  0.57239   0.993  2.536  0.000
    11O    -0.57410 -0.63688   1.728  4.846  0.000
    12N    -0.30584 -0.67418   1.426  3.880  0.000
    13C     0.12231  0.08342   1.028  2.850  0.000
    14C     0.00970 -0.00917   1.095  2.895  0.000
    15C    -0.07797 -0.22272   1.026  3.052  0.000
    16C     0.03911 -0.01659   1.108  2.853  0.000
    17C    -0.04100 -0.09218   1.064  2.977  0.000
    18C     0.32749  0.34042   1.074  2.599  0.000
    19F    -0.18461 -0.21076   1.812  5.373  0.000
    20C    -0.04097 -0.09215   1.064  2.977  0.000
    21C     0.04217 -0.01195   1.106  2.852  0.000
    22C     0.24036  0.27476   1.027  2.733  0.000
    23O    -0.50058 -0.69028   1.694  4.806  0.000
    24C     0.44443  0.54650   0.986  2.570  0.000
    25O    -0.57282 -0.61683   1.726  4.847  0.000
    26H     0.07158  0.14175   0.928  0.000  0.000
    27H     0.05964  0.12597   0.940  0.000  0.000
    28H     0.05232  0.12195   0.948  0.000  0.000
    29H     0.04573  0.10239   0.954  0.000  0.000
    30H     0.05499  0.11014   0.945  0.000  0.000
    31H     0.04452  0.09958   0.955  0.000  0.000
    32H     0.04100  0.09930   0.959  0.000  0.000
    33H     0.03846  0.09712   0.962  0.000  0.000
    34H     0.05064  0.10635   0.949  0.000  0.000
    35H     0.22656  0.41790   0.773  0.000  0.000
    36H     0.23300  0.42361   0.767  0.000  0.000
    37H     0.26211  0.46801   0.738  0.000  0.000
    38H     0.09643  0.16958   0.904  0.000  0.000
    39H     0.07713  0.14473   0.923  0.000  0.000
    40H     0.07583  0.13313   0.924  0.000  0.000
    41H     0.06674  0.12644   0.933  0.000  0.000
    42H     0.06829  0.12164   0.932  0.000  0.000
    43H     0.10117  0.15841   0.899  0.000  0.000
    44H     0.11113  0.16821   0.889  0.000  0.000
    45H     0.11182  0.16898   0.888  0.000  0.000
    46H     0.09466  0.15453   0.905  0.000  0.000
    47H     0.40830  0.59432   0.592  0.000  0.000

Wiberg/Mayer (AO) data.
largest (>0.10) Wiberg bond orders for each atom

 ---------------------------------------------------------------------------
     #   Z sym  total        # sym  WBO       # sym  WBO       # sym  WBO
 ---------------------------------------------------------------------------
     1   6 C    3.918 --    28 H    0.977    26 H    0.976    27 H    0.975
                             2 N    0.926
     2   7 N    3.513 --     3 C    1.193    24 C    1.111     1 C    0.926
                            25 O    0.135
     3   6 C    3.915 --     8 N    1.541     2 N    1.193     4 C    0.976
     4   6 C    3.964 --     6 C    0.986     7 N    0.986     5 C    0.980
                             3 C    0.976
     5   6 C    3.992 --    31 H    0.985    30 H    0.982     4 C    0.980
                            29 H    0.979
     6   6 C    3.990 --     4 C    0.986    32 H    0.985    34 H    0.984
                            33 H    0.982
     7   7 N    2.969 --     4 C    0.986    35 H    0.939    36 H    0.935
     8   7 N    3.046 --     3 C    1.541     9 C    1.189
     9   6 C    3.958 --    22 C    1.461     8 N    1.189    10 C    1.042
    10   6 C    3.890 --    11 O    1.573    12 N    1.173     9 C    1.042
    11   8 O    1.932 --    10 C    1.573    12 N    0.130
    12   7 N    3.387 --    10 C    1.173    13 C    1.040    37 H    0.881
                            11 O    0.130
    13   6 C    3.929 --    12 N    1.040    39 H    0.975    38 H    0.963
                            14 C    0.770
    14   6 C    3.980 --    21 C    1.102    16 C    1.101    15 C    0.932
                            13 C    0.770
    15   6 C    3.967 --    42 H    0.982    41 H    0.980    40 H    0.979
                            14 C    0.932
    16   6 C    3.934 --    17 C    1.594    14 C    1.101    43 H    0.964
    17   6 C    3.983 --    16 C    1.594    18 C    1.297    44 H    0.957
    18   6 C    3.816 --    17 C    1.297    20 C    1.296    19 F    1.025
    19   9 F    1.177 --    18 C    1.025
    20   6 C    3.983 --    21 C    1.596    18 C    1.296    45 H    0.957
    21   6 C    3.938 --    20 C    1.596    14 C    1.102    46 H    0.964
    22   6 C    3.907 --     9 C    1.461    23 O    1.125    24 C    1.066
    23   8 O    2.090 --    22 C    1.125    47 H    0.784
    24   6 C    3.913 --    25 O    1.587     2 N    1.111    22 C    1.066
    25   8 O    1.900 --    24 C    1.587     2 N    0.135
    26   1 H    1.008 --     1 C    0.976
    27   1 H    1.014 --     1 C    0.975
    28   1 H    1.022 --     1 C    0.977
    29   1 H    1.004 --     5 C    0.979
    30   1 H    0.998 --     5 C    0.982
    31   1 H    1.003 --     5 C    0.985
    32   1 H    1.007 --     6 C    0.985
    33   1 H    1.012 --     6 C    0.982
    34   1 H    1.002 --     6 C    0.984
    35   1 H    0.953 --     7 N    0.939
    36   1 H    0.950 --     7 N    0.935
    37   1 H    0.952 --    12 N    0.881
    38   1 H    1.000 --    13 C    0.963
    39   1 H    0.997 --    13 C    0.975
    40   1 H    1.002 --    15 C    0.979
    41   1 H    0.998 --    15 C    0.980
    42   1 H    0.997 --    15 C    0.982
    43   1 H    0.989 --    16 C    0.964
    44   1 H    0.986 --    17 C    0.957
    45   1 H    0.985 --    20 C    0.957
    46   1 H    0.993 --    21 C    0.964
    47   1 H    0.851 --    23 O    0.784
 ---------------------------------------------------------------------------

Topologies differ in total number of bonds
Writing topology from bond orders to xtbtopo.mol

 dipole moment from electron density (au)
     X       Y       Z   
   5.6414   4.9588  -0.1201  total (Debye):   19.094

           -------------------------------------------------
          |                Geometry Summary                 |
           -------------------------------------------------

      molecular mass/u    :      349.3806376
   center of mass at/Å    :        0.2331969      -0.3028641      -0.0660483
  moments of inertia/u·Å² :        0.1297606E+04   0.4520395E+04   0.5531269E+04
rotational constants/cm⁻¹ :        0.1299133E-01   0.3729238E-02   0.3047697E-02

 * 43 selected distances

     #   Z          #   Z                                           value/Å
     1   6 C        2   7 N                                       1.4680238
     2   7 N        3   6 C                                       1.3667930
     4   6 C        5   6 C                                       1.5361520
     4   6 C        6   6 C                                       1.5382932 (max)
     4   6 C        7   7 N                                       1.4571742
     3   6 C        8   7 N                                       1.2999206
     8   7 N        9   6 C                                       1.3644120
    10   6 C       11   8 O                                       1.2248575
    10   6 C       12   7 N                                       1.3677286
    12   7 N       13   6 C                                       1.4113783
    14   6 C       16   6 C                                       1.4687930
    16   6 C       17   6 C                                       1.3643668
    17   6 C       18   6 C                                       1.4004614
    18   6 C       19   9 F                                       1.3071805
    18   6 C       20   6 C                                       1.4006734
    14   6 C       21   6 C                                       1.4684369
    20   6 C       21   6 C                                       1.3637526
     9   6 C       22   6 C                                       1.3718640
    22   6 C       23   8 O                                       1.3335698
     2   7 N       24   6 C                                       1.3964858
    24   6 C       25   8 O                                       1.2213839
     1   6 C       26   1 H                                       1.0903267
     1   6 C       27   1 H                                       1.0889809
     1   6 C       28   1 H                                       1.0840159
     5   6 C       29   1 H                                       1.0887161
     5   6 C       30   1 H                                       1.0889210
     5   6 C       31   1 H                                       1.0890134
     6   6 C       32   1 H                                       1.0884069
     6   6 C       33   1 H                                       1.0883068
     6   6 C       34   1 H                                       1.0885417
     7   7 N       35   1 H                                       1.0113590
     7   7 N       36   1 H                                       1.0107947
    12   7 N       37   1 H                                       1.0109137
    13   6 C       38   1 H                                       1.0916757
    13   6 C       39   1 H                                       1.0879087
    15   6 C       40   1 H                                       1.0884553
    15   6 C       41   1 H                                       1.0875870
    15   6 C       42   1 H                                       1.0882396
    16   6 C       43   1 H                                       1.0841909
    17   6 C       44   1 H                                       1.0833089
    20   6 C       45   1 H                                       1.0827984
    21   6 C       46   1 H                                       1.0836029
    23   8 O       47   1 H                                       0.9816233 (min)

 * 7 distinct bonds (by element types)

   Z      Z             #   av. dist./Å        max./Å        min./Å
   1 H    6 C          18     1.0873887     1.0916757     1.0827984
   6 C    6 C           9     1.4347548     1.5382932     1.3637526
   1 H    7 N           3     1.0110225     1.0113590     1.0107947
   6 C    7 N           8     1.3914895     1.4680238     1.2999206
   1 H    8 O           1     0.9816233     0.9816233     0.9816233
   6 C    8 O           3     1.2599371     1.3335698     1.2213839
   6 C    9 F           1     1.3071805     1.3071805     1.3071805


optimized geometry written to: xtbopt.xyz


           -------------------------------------------------
          | TOTAL ENERGY              -79.488095025031 Eh   |
          | GRADIENT NORM               0.000416771711 Eh/α |
          | HOMO-LUMO GAP               0.235665720899 eV   |
           -------------------------------------------------

------------------------------------------------------------------------
 * finished run on 2023/06/20 at 15:27:02.700     
------------------------------------------------------------------------
 total:
 * wall-time:     0 d,  0 h,  0 min,  7.027 sec
 *  cpu-time:     0 d,  0 h,  0 min,  6.892 sec
 * ratio c/w:     0.981 speedup
 SCF:
 * wall-time:     0 d,  0 h,  0 min,  0.365 sec
 *  cpu-time:     0 d,  0 h,  0 min,  0.281 sec
 * ratio c/w:     0.771 speedup
 ANC optimizer:
 * wall-time:     0 d,  0 h,  0 min,  6.570 sec
 *  cpu-time:     0 d,  0 h,  0 min,  6.559 sec
 * ratio c/w:     0.998 speedup

