46
 energy: -86.296896974161 gnorm: 0.000535238022 xtb: 6.5.1 (579679a)
C           -6.64621381203971       -2.62660535201004        0.20193537264809
O           -5.71969297673934       -1.54232075775890        0.32367887604542
C           -4.53120686169002       -1.70925255696476       -0.24899817385947
O           -4.21686195253092       -2.70983391997132       -0.85206067572445
C           -3.62125981521728       -0.53834432664897       -0.07097130898288
N           -2.38578970194840       -0.70913616649093       -0.63481346224194
C           -1.47224797194139        0.20076407441193       -0.56966792004307
C           -0.16147465328098       -0.12337655099067       -1.27307480252247
C           -0.15819106035748       -1.59771018283868       -1.69792146648264
C            0.01639454990842        0.77491522737591       -2.50413007808992
N            0.93595742756929        0.06620794366444       -0.30260543750603
C            2.22995916126793       -0.00574214334540       -0.63589552441648
O            2.70203501939429       -0.14242555100139       -1.74711301499437
C            3.10129239540643        0.13431599319139        0.57223147677278
N            2.76853403418689        0.28902868810752        1.79744824557703
N            3.90291527020440        0.37726174630429        2.55485007054959
C            4.92280645441241        0.27692899306656        1.79034765175402
C            6.35217671151569        0.30755839226726        2.13491071722002
O            4.49138560229634        0.11198538992494        0.46816050306845
C            5.27500975201250       -0.05063869148727       -0.75985406922094
N           -1.68939278995187        1.40153130621455        0.05964559788991
C           -0.73407399124641        2.50669951293023        0.14876148029487
C           -2.90652016025896        1.68031238411071        0.65789377433432
O           -3.12672254520638        2.74849019851001        1.21737952451580
C           -3.91022751047904        0.62767170564019        0.58116028861790
O           -5.07672938468537        0.90762576301746        1.16847593971884
H           -7.55040680782755       -2.32320006241370        0.72608416851967
H           -6.86285106929326       -2.81855002301640       -0.85167161586177
H           -6.22813955593756       -3.52864484469872        0.65514496672683
H           -0.96245101441072       -1.77451138029927       -2.41013641413855
H           -0.30644275550489       -2.23789224005586       -0.83017478837685
H            0.79474647909390       -1.83808200710456       -2.16426504717091
H            0.82882610816420        0.40405934862165       -3.12523955822198
H            0.23806324797289        1.80025290646344       -2.22049890125931
H           -0.90519454125644        0.75952162451566       -3.08516490007262
H            0.70257547202020        0.05583525819513        0.67874916277437
H            6.86042102030739        1.10479303790147        1.59185224351549
H            6.82657679785888       -0.63955599346478        1.87452668060447
H            6.44674449552838        0.47821541464270        3.20625239464345
H            5.03536091842474        0.78777411534997       -1.41031142009670
H            4.98162002835685       -0.99818433870668       -1.20662565556803
H            6.31925705797318       -0.04903256615831       -0.46442724789844
H           -0.76067053691391        2.89130312205644        1.16841766959098
H           -1.04280991656710        3.29568930311536       -0.53734655219915
H            0.26730711865468        2.17365837564484       -0.08941283170041
H           -5.02439473724892        1.80063683017799        1.55832006126677
