      -----------------------------------------------------------      
     |                   =====================                   |     
     |                           x T B                           |     
     |                   =====================                   |     
     |                         S. Grimme                         |     
     |          Mulliken Center for Theoretical Chemistry        |     
     |                    University of Bonn                     |     
      -----------------------------------------------------------      

   * xtb version 6.5.1 (579679a) compiled by 'ehlert@majestix' on 2022-07-11

   xtb is free software: you can redistribute it and/or modify it under
   the terms of the GNU Lesser General Public License as published by
   the Free Software Foundation, either version 3 of the License, or
   (at your option) any later version.
   
   xtb is distributed in the hope that it will be useful,
   but WITHOUT ANY WARRANTY; without even the implied warranty of
   MERCHANTABILITY or FITNESS FOR A PARTICULAR PURPOSE.  See the
   GNU Lesser General Public License for more details.
   
   Cite this work as:
   * C. Bannwarth, E. Caldeweyher, S. Ehlert, A. Hansen, P. Pracht,
     J. Seibert, S. Spicher, S. Grimme, WIREs Comput. Mol. Sci., 2020, 11,
     e01493. DOI: 10.1002/wcms.1493
   
   for GFN2-xTB:
   * C. Bannwarth, S. Ehlert and S. Grimme., J. Chem. Theory Comput., 2019,
     15, 1652-1671. DOI: 10.1021/acs.jctc.8b01176
   for GFN1-xTB:
   * S. Grimme, C. Bannwarth, P. Shushkov, J. Chem. Theory Comput., 2017,
     13, 1989-2009. DOI: 10.1021/acs.jctc.7b00118
   for GFN0-xTB:
   * P. Pracht, E. Caldeweyher, S. Ehlert, S. Grimme, ChemRxiv, 2019, preprint.
     DOI: 10.26434/chemrxiv.8326202.v1
   for GFN-FF:
   * S. Spicher and S. Grimme, Angew. Chem. Int. Ed., 2020, 59, 15665-15673.
     DOI: 10.1002/anie.202004239
   
   for ALPB and GBSA implicit solvation:
   * S. Ehlert, M. Stahn, S. Spicher, S. Grimme, J. Chem. Theory Comput.,
     2021, 17, 4250-4261. DOI: 10.1021/acs.jctc.1c00471
   
   for DFT-D4:
   * E. Caldeweyher, C. Bannwarth and S. Grimme, J. Chem. Phys., 2017,
     147, 034112. DOI: 10.1063/1.4993215
   * E. Caldeweyher, S. Ehlert, A. Hansen, H. Neugebauer, S. Spicher,
     C. Bannwarth and S. Grimme, J. Chem. Phys., 2019, 150, 154122.
     DOI: 10.1063/1.5090222
   * E. Caldeweyher, J.-M. Mewes, S. Ehlert and S. Grimme, Phys. Chem. Chem. Phys.
     2020, 22, 8499-8512. DOI: 10.1039/D0CP00502A
   
   for sTDA-xTB:
   * S. Grimme and C. Bannwarth, J. Chem. Phys., 2016, 145, 054103.
     DOI: 10.1063/1.4959605
   
   in the mass-spec context:
   * V. Asgeirsson, C. Bauer and S. Grimme, Chem. Sci., 2017, 8, 4879.
     DOI: 10.1039/c7sc00601b
   * J. Koopman and S. Grimme, ACS Omega 2019, 4, 12, 15120-15133.
     DOI: 10.1021/acsomega.9b02011
   
   for metadynamics refer to:
   * S. Grimme, J. Chem. Theory Comput., 2019, 155, 2847-2862
     DOI: 10.1021/acs.jctc.9b00143
   
   for SPH calculations refer to:
   * S. Spicher and S. Grimme, J. Chem. Theory Comput., 2021, 17, 1701-1714
     DOI: 10.1021/acs.jctc.0c01306
   
   with help from (in alphabetical order)
   P. Atkinson, C. Bannwarth, F. Bohle, G. Brandenburg, E. Caldeweyher
   M. Checinski, S. Dohm, S. Ehlert, S. Ehrlich, I. Gerasimov, C. Hölzer
   A. Katbashev, J. Koopman, C. Lavigne, S. Lehtola, F. März, M. Müller,
   F. Musil, H. Neugebauer, J. Pisarek, C. Plett, P. Pracht, F. Pultar,
   J. Seibert, P. Shushkov, S. Spicher, M. Stahn, M. Steiner, T. Strunk,
   J. Stückrath, T. Rose, and J. Unsleber
   
 * started run on 2023/06/21 at 17:15:10.984     

           -------------------------------------------------
          |                Calculation Setup                |
           -------------------------------------------------

          program call               : /lustre/hpc/kemi/ree/PhD/git/ReactivityQM/dep/xtb-6.5.1/bin/xtb --gfn 1 /lustre/hpc/kemi/ree/PhD/git/ReactivityQM/calculations/R02methylcation/reac01prodE06/conf13/R02methylcation_reac01prodE06_conf13_gfn1.xyz --opt --vfukui --chrg -2 --uhf 0 --alpb DMSO
          hostname                   : node317
          coordinate file            : /lustre/hpc/kemi/ree/PhD/git/ReactivityQM/calculations/R02methylcation/reac01prodE06/conf13/R02methylcation_reac01prodE06_conf13_gfn1.xyz
          omp threads                :                     1

   ID    Z sym.   atoms
    1    6 C      1, 3, 5, 6, 8, 11-15, 17, 19, 22, 23
    2    8 O      2, 4, 7, 9, 18, 24
    3    7 N      10, 16, 20, 21, 25
    4    1 H      26-42

           -------------------------------------------------
          |                 G F N 1 - x T B                 |
           -------------------------------------------------

        Reference                      10.1021/acs.jctc.7b00118
      * Hamiltonian:
        H0-scaling (s, p, d)           1.850000    2.250000    2.000000
        zeta-weighting                 0.000000
      * Dispersion:
        s8                             2.400000
        a1                             0.630000
        a2                             5.000000
        s9                             0.000000
      * Repulsion:
        kExp                           1.500000
        rExp                           1.000000
      * Coulomb:
        alpha                          2.000000
        third order                    atomic
        anisotropic                    false
      * Halogen bond correction:
        rad-scale                      1.300000
        damping                        0.440000

      * Solvation model:               ALPB
        Solvent                        DMSO
        Parameter file                 internal GFN1-xTB/ALPB
        Dielectric constant                4.6680E+01
        Reference state                gsolv [1 M gas/solution]
        Free energy shift                  7.6243E-03 Eh       4.7843E+00 kcal/mol
        Temperature                        2.9815E+02 K
        Density                            1.1000E+00 kg/L
        Solvent mass                       7.8130E+01 g/mol
        Interaction kernel             P16
        Born radius scaling (c1)           1.7672E+00
        Born radii integrator          GBOBC
        Born offset                        0.0000E+00 a0       0.0000E+00 AA
        H-bond correction              true
        Ion screening                  false
        Surface tension                    1.0000E-05 Eh       1.5569E+01 dyn/cm
        Grid points                               230 per atom

          ...................................................
          :                      SETUP                      :
          :.................................................:
          :  # basis functions                 134          :
          :  # atomic orbitals                 134          :
          :  # shells                           84          :
          :  # electrons                       136          :
          :  # halogen bonds                     0          :
          :  max. iterations                   250          :
          :  Hamiltonian                  GFN1-xTB          :
          :  restarted?                      false          :
          :  GBSA solvation                   true          :
          :  PC potential                    false          :
          :  electronic temp.          300.0000000     K    :
          :  accuracy                    1.0000000          :
          :  -> integral cutoff          0.2500000E+02      :
          :  -> integral neglect         0.1000000E-07      :
          :  -> SCF convergence          0.1000000E-05 Eh   :
          :  -> wf. convergence          0.2000000E-04 e    :
          :  Broyden damping             0.4000000          :
          ...................................................

 iter      E             dE          RMSdq      gap      omega  full diag
   1    -83.9717699 -0.839718E+02  0.867E+00    1.47       0.0  T
   2    -84.0241804 -0.524105E-01  0.544E+00    0.39       1.0  T
   3    -84.0321063 -0.792587E-02  0.307E+00    0.23       1.0  T
   4    -84.2511473 -0.219041E+00  0.119E+00    1.10       1.0  T
   5    -84.2685505 -0.174032E-01  0.849E-01    1.03       1.0  T
   6    -84.3160146 -0.474641E-01  0.355E-01    0.07       1.0  T
   7    -84.2973465  0.186681E-01  0.525E-01    0.35       1.0  T
   8    -84.1009933  0.196353E+00  0.132E+00    0.19       1.0  T
   9    -84.3028256 -0.201832E+00  0.455E-01    0.23       1.0  T
  10    -84.3210433 -0.182177E-01  0.227E-01    0.12       1.0  T
  11    -84.3274177 -0.637438E-02  0.243E-02    0.08       1.0  T
  12    -84.3273720  0.457619E-04  0.298E-02    0.08       1.0  T
  13    -84.3273001  0.718745E-04  0.382E-02    0.09       1.0  T
  14    -84.3274546 -0.154558E-03  0.162E-02    0.08       1.0  T
  15    -84.3274887 -0.340508E-04  0.675E-04    0.08      22.9  T
  16    -84.3274885  0.226242E-06  0.148E-03    0.08      10.4  T
  17    -84.3274888 -0.277275E-06  0.262E-04    0.08      58.9  T
  18    -84.3274888  0.793520E-09  0.271E-04    0.08      56.9  T
  19    -84.3274888 -0.954560E-08  0.197E-05    0.08     783.4  T
  20    -84.3274888 -0.180620E-10  0.155E-05    0.08     992.7  T

   *** convergence criteria satisfied after 20 iterations ***

         #    Occupation            Energy/Eh            Energy/eV
      -------------------------------------------------------------
         1        2.0000           -0.8112493             -22.0752
       ...           ...                  ...                  ...
        62        2.0000           -0.3980581             -10.8317
        63        2.0000           -0.3954180             -10.7599
        64        2.0000           -0.3865134             -10.5176
        65        2.0000           -0.3790062             -10.3133
        66        2.0000           -0.3628583              -9.8739
        67        2.0000           -0.3288148              -8.9475
        68        1.6592           -0.2686785              -7.3111 (HOMO)
        69        0.3408           -0.2656709              -7.2293 (LUMO)
        70                         -0.2340661              -6.3693
        71                         -0.2171567              -5.9091
        72                         -0.1614159              -4.3923
        73                         -0.1502714              -4.0891
       ...                                ...                  ...
       134                          0.8003494              21.7786
      -------------------------------------------------------------
                  HL-Gap            0.0030076 Eh            0.0818 eV
             Fermi-level           -0.2671747 Eh           -7.2702 eV

 SCC (total)                   0 d,  0 h,  0 min,  0.206 sec
 SCC setup                      ...        0 min,  0.003 sec (  1.248%)
 Dispersion                     ...        0 min,  0.000 sec (  0.241%)
 classical contributions        ...        0 min,  0.000 sec (  0.073%)
 integral evaluation            ...        0 min,  0.037 sec ( 18.106%)
 iterations                     ...        0 min,  0.083 sec ( 40.134%)
 molecular gradient             ...        0 min,  0.081 sec ( 39.512%)
 printout                       ...        0 min,  0.001 sec (  0.643%)

         :::::::::::::::::::::::::::::::::::::::::::::::::::::
         ::                     SUMMARY                     ::
         :::::::::::::::::::::::::::::::::::::::::::::::::::::
         :: total energy             -83.605118618652 Eh    ::
         :: total w/o Gsasa/hb       -83.586818584188 Eh    ::
         :: gradient norm              0.130357900395 Eh/a0 ::
         :: HOMO-LUMO gap              0.081842048268 eV    ::
         ::.................................................::
         :: SCC energy               -84.327488760362 Eh    ::
         :: -> electrostatic           0.694235547367 Eh    ::
         :: -> Gsolv                  -0.277576028247 Eh    ::
         ::    -> Gelec               -0.259275993783 Eh    ::
         ::    -> Gsasa               -0.023719574834 Eh    ::
         ::    -> Ghb                 -0.002204738634 Eh    ::
         ::    -> Gshift               0.007624279005 Eh    ::
         :: repulsion energy           0.749407045281 Eh    ::
         :: dispersion energy         -0.027036903571 Eh    ::
         :: halogen bond corr.         0.000000000000 Eh    ::
         :: add. restraining           0.000000000000 Eh    ::
         :: total charge              -2.000000000000 e     ::
         :::::::::::::::::::::::::::::::::::::::::::::::::::::

      ----------------------------------------------------------- 
     |                   =====================                   |
     |                        A N C O P T                        |
     |                   =====================                   |
     |               Approximate Normal Coordinate               |
     |                Rational Function Optimizer                |
      ----------------------------------------------------------- 

          ...................................................
          :                      SETUP                      :
          :.................................................:
          :   optimization level            normal          :
          :   max. optcycles                   200          :
          :   ANC micro-cycles                  20          :
          :   degrees of freedom               120          :
          :.................................................:
          :   RF solver                   davidson          :
          :   write xtbopt.log                true          :
          :   linear?                        false          :
          :   energy convergence         0.5000000E-05 Eh   :
          :   grad. convergence          0.1000000E-02 Eh/α :
          :   maximium RF displ.         1.0000000          :
          :   Hlow (freq-cutoff)         0.1000000E-01      :
          :   Hmax (freq-cutoff)         5.0000000          :
          :   S6 in model hess.         20.0000000          :
          ...................................................

generating ANC from model Hessian ...
Using Lindh-Hessian (1995)
 Shifting diagonal of input Hessian by   9.832620238801609E-003
 Lowest  eigenvalues of input Hessian
    0.000000    0.000000    0.000000    0.000000    0.000000    0.000000
    0.010000    0.010112    0.010712    0.011660    0.011915    0.012646
    0.012850    0.013859    0.014683    0.015458    0.015811    0.016745
 Highest eigenvalues
    1.916492    2.084711    2.160925    2.232244    2.300654    2.311655
 

........................................................................
.............................. CYCLE    1 ..............................
........................................................................
   1    -84.3274888 -0.843275E+02  0.228E-07    0.08       0.0  T
   2    -84.3274888  0.153477E-11  0.351E-06    0.08    4402.3  T
   3    -84.3274888 -0.176215E-11  0.382E-07    0.08   40403.8  T
     SCC iter.                  ...        0 min,  0.013 sec
     gradient                   ...        0 min,  0.082 sec
 * total energy  :   -83.6051186 Eh     change       -0.3107914E-10 Eh
   gradient norm :     0.1303582 Eh/α   predicted     0.0000000E+00 (-100.00%)
   displ. norm   :     0.2786421 α      lambda       -0.1650930E-01
   maximum displ.:     0.0944523 α      in ANC's #57, #26, #20, ...

........................................................................
.............................. CYCLE    2 ..............................
........................................................................
   1    -84.3152224 -0.843152E+02  0.340E-01    0.17       0.0  T
   2    -84.0396802  0.275542E+00  0.163E+00    0.72       1.0  T
   3    -84.2766522 -0.236972E+00  0.654E-01    0.06       1.0  T
   4    -84.3092277 -0.325755E-01  0.407E-01    0.21       1.0  T
   5    -84.3297157 -0.204881E-01  0.343E-02    0.09       1.0  T
   6    -84.3297313 -0.156106E-04  0.376E-02    0.08       1.0  T
   7    -84.3298805 -0.149109E-03  0.375E-03    0.09       4.1  T
   8    -84.3298157  0.647235E-04  0.229E-02    0.09       1.0  T
   9    -84.3298365 -0.207485E-04  0.188E-02    0.09       1.0  T
  10    -84.3298765 -0.400136E-04  0.599E-03    0.09       2.6  T
  11    -84.3298808 -0.427886E-05  0.130E-03    0.09      11.8  T
  12    -84.3298810 -0.204468E-06  0.224E-04    0.09      68.7  T
  13    -84.3298810 -0.579797E-08  0.737E-05    0.09     209.4  T
  14    -84.3298810 -0.510184E-09  0.333E-05    0.09     463.5  T
     SCC iter.                  ...        0 min,  0.075 sec
     gradient                   ...        0 min,  0.079 sec
 * total energy  :   -83.6168643 Eh     change       -0.1174566E-01 Eh
   gradient norm :     0.0588026 Eh/α   predicted    -0.8904806E-02 ( -24.19%)
   displ. norm   :     0.3053501 α      lambda       -0.6795019E-02
   maximum displ.:     0.0983754 α      in ANC's #10, #5, #57, ...

........................................................................
.............................. CYCLE    3 ..............................
........................................................................
   1    -84.3300411 -0.843300E+02  0.245E-01    0.14       0.0  T
   2    -84.0471796  0.282861E+00  0.162E+00    0.49       1.0  T
   3    -84.3297438 -0.282564E+00  0.251E-01    0.07       1.0  T
   4    -84.3337446 -0.400082E-02  0.163E-01    0.12       1.0  T
   5    -84.3356168 -0.187224E-02  0.112E-01    0.08       1.0  T
   6    -84.3367340 -0.111720E-02  0.513E-02    0.10       1.0  T
   7    -84.3370608 -0.326814E-03  0.281E-03    0.09       5.5  T
   8    -84.3370613 -0.507045E-06  0.995E-04    0.09      15.5  T
   9    -84.3370608  0.491782E-06  0.220E-03    0.09       7.0  T
  10    -84.3370614 -0.577570E-06  0.179E-04    0.09      86.3  T
  11    -84.3370614  0.733009E-08  0.298E-04    0.09      51.8  T
  12    -84.3370614 -0.997069E-08  0.708E-05    0.09     218.0  T
     SCC iter.                  ...        0 min,  0.048 sec
     gradient                   ...        0 min,  0.079 sec
 * total energy  :   -83.6208822 Eh     change       -0.4017967E-02 Eh
   gradient norm :     0.0188067 Eh/α   predicted    -0.3716541E-02 (  -7.50%)
   displ. norm   :     0.2298384 α      lambda       -0.1117427E-02
   maximum displ.:     0.1185239 α      in ANC's #5, #10, #6, ...

........................................................................
.............................. CYCLE    4 ..............................
........................................................................
   1    -84.3400419 -0.843400E+02  0.732E-02    0.10       0.0  T
   2    -84.1914322  0.148610E+00  0.112E+00    0.10       1.0  T
   3    -84.3402077 -0.148776E+00  0.577E-02    0.10       1.0  T
   4    -84.3405915 -0.383779E-03  0.625E-03    0.10       2.5  T
   5    -84.3405872  0.431750E-05  0.756E-03    0.10       2.0  T
   6    -84.3405927 -0.554497E-05  0.198E-03    0.10       7.8  T
   7    -84.3405926  0.121539E-06  0.176E-03    0.10       8.8  T
   8    -84.3405930 -0.353603E-06  0.340E-04    0.10      45.4  T
   9    -84.3405930 -0.131166E-07  0.447E-05    0.10     344.9  T
  10    -84.3405930 -0.216843E-09  0.596E-06    0.10    2587.8  T
     SCC iter.                  ...        0 min,  0.040 sec
     gradient                   ...        0 min,  0.080 sec
 * total energy  :   -83.6217305 Eh     change       -0.8482399E-03 Eh
   gradient norm :     0.0124726 Eh/α   predicted    -0.5882380E-03 ( -30.65%)
   displ. norm   :     0.3889468 α      lambda       -0.1136188E-02
   maximum displ.:     0.2170122 α      in ANC's #5, #10, #6, ...

........................................................................
.............................. CYCLE    5 ..............................
........................................................................
   1    -84.3428239 -0.843428E+02  0.606E-02    0.11       0.0  T
   2    -84.2683452  0.744787E-01  0.797E-01    0.08       1.0  T
   3    -84.3422501 -0.739049E-01  0.885E-02    0.11       1.0  T
   4    -84.3430905 -0.840379E-03  0.257E-02    0.10       1.0  T
   5    -84.3430821  0.838864E-05  0.257E-02    0.11       1.0  T
   6    -84.3431529 -0.707982E-04  0.525E-03    0.10       2.9  T
   7    -84.3431558 -0.293141E-05  0.403E-04    0.10      38.3  T
   8    -84.3431558 -0.144498E-07  0.188E-04    0.10      82.1  T
   9    -84.3431558 -0.396682E-09  0.166E-04    0.10      92.8  T
     SCC iter.                  ...        0 min,  0.035 sec
     gradient                   ...        0 min,  0.088 sec
 * total energy  :   -83.6225381 Eh     change       -0.8075773E-03 Eh
   gradient norm :     0.0107380 Eh/α   predicted    -0.6540417E-03 ( -19.01%)
   displ. norm   :     0.3828810 α      lambda       -0.6897224E-03
   maximum displ.:     0.2224382 α      in ANC's #5, #6, #10, ...

........................................................................
.............................. CYCLE    6 ..............................
........................................................................
   1    -84.3434151 -0.843434E+02  0.472E-02    0.11       0.0  T
   2    -84.2925380  0.508772E-01  0.658E-01    0.08       1.0  T
   3    -84.3431135 -0.505756E-01  0.665E-02    0.12       1.0  T
   4    -84.3435331 -0.419589E-03  0.294E-02    0.11       1.0  T
   5    -84.3435371 -0.398462E-05  0.277E-02    0.11       1.0  T
   6    -84.3436127 -0.756523E-04  0.906E-03    0.11       1.7  T
   7    -84.3436215 -0.875490E-05  0.174E-03    0.11       8.9  T
   8    -84.3436218 -0.313416E-06  0.509E-04    0.11      30.3  T
   9    -84.3436218 -0.285732E-07  0.845E-05    0.11     182.5  T
  10    -84.3436218 -0.802686E-09  0.227E-05    0.11     679.5  T
     SCC iter.                  ...        0 min,  0.046 sec
     gradient                   ...        0 min,  0.080 sec
 * total energy  :   -83.6230493 Eh     change       -0.5112281E-03 Eh
   gradient norm :     0.0116861 Eh/α   predicted    -0.3954513E-03 ( -22.65%)
   displ. norm   :     0.3792483 α      lambda       -0.5536571E-03
   maximum displ.:     0.2134408 α      in ANC's #5, #6, #10, ...

........................................................................
.............................. CYCLE    7 ..............................
........................................................................
   1    -84.3442558 -0.843443E+02  0.103E-02    0.11       0.0  T
   2    -84.3432226  0.103322E-02  0.964E-02    0.13       1.0  T
   3    -84.3441980 -0.975425E-03  0.260E-02    0.12       1.0  T
   4    -84.3442138 -0.157919E-04  0.219E-02    0.12       1.0  T
   5    -84.3442645 -0.507302E-04  0.149E-03    0.11      10.4  T
   6    -84.3442647 -0.169698E-06  0.645E-04    0.11      23.9  T
   7    -84.3442647 -0.155795E-07  0.417E-04    0.11      37.0  T
   8    -84.3442647 -0.196346E-07  0.719E-05    0.11     214.6  T
   9    -84.3442647 -0.413351E-09  0.228E-05    0.11     677.1  T
     SCC iter.                  ...        0 min,  0.036 sec
     gradient                   ...        0 min,  0.080 sec
 * total energy  :   -83.6234675 Eh     change       -0.4182524E-03 Eh
   gradient norm :     0.0103949 Eh/α   predicted    -0.3166456E-03 ( -24.29%)
   displ. norm   :     0.3767546 α      lambda       -0.4564111E-03
   maximum displ.:     0.2049889 α      in ANC's #5, #6, #10, ...

........................................................................
.............................. CYCLE    8 ..............................
........................................................................
   1    -84.3447218 -0.843447E+02  0.227E-02    0.12       0.0  T
   2    -84.3393712  0.535064E-02  0.218E-01    0.16       1.0  T
   3    -84.3447288 -0.535769E-02  0.234E-02    0.12       1.0  T
   4    -84.3447414 -0.125932E-04  0.193E-02    0.12       1.0  T
   5    -84.3447801 -0.386920E-04  0.430E-03    0.12       3.6  T
   6    -84.3447796  0.561551E-06  0.395E-03    0.12       3.9  T
   7    -84.3447812 -0.166160E-05  0.416E-04    0.12      37.0  T
   8    -84.3447812 -0.171835E-07  0.118E-04    0.12     130.5  T
   9    -84.3447812 -0.132282E-08  0.539E-05    0.12     286.4  T
     SCC iter.                  ...        0 min,  0.036 sec
     gradient                   ...        0 min,  0.080 sec
 * total energy  :   -83.6237965 Eh     change       -0.3289996E-03 Eh
   gradient norm :     0.0083684 Eh/α   predicted    -0.2606011E-03 ( -20.79%)
   displ. norm   :     0.3194984 α      lambda       -0.2927625E-03
   maximum displ.:     0.1540273 α      in ANC's #5, #6, #9, ...

........................................................................
.............................. CYCLE    9 ..............................
........................................................................
   1    -84.3452853 -0.843453E+02  0.536E-02    0.12       0.0  T
   2    -84.3296688  0.156165E-01  0.378E-01    0.23       1.0  T
   3    -84.3454688 -0.157999E-01  0.375E-02    0.13       1.0  T
   4    -84.3456182 -0.149420E-03  0.471E-03    0.13       3.3  T
   5    -84.3456181  0.366737E-07  0.376E-03    0.13       4.1  T
   6    -84.3455951  0.230826E-04  0.145E-02    0.13       1.1  T
   7    -84.3456195 -0.244368E-04  0.166E-03    0.13       9.3  T
   8    -84.3456198 -0.314613E-06  0.220E-04    0.13      70.1  T
   9    -84.3456198 -0.554199E-08  0.140E-05    0.13    1104.5  T
  10    -84.3456198 -0.723333E-11  0.610E-06    0.13    2530.8  T
     SCC iter.                  ...        0 min,  0.040 sec
     gradient                   ...        0 min,  0.080 sec
 * total energy  :   -83.6239994 Eh     change       -0.2028559E-03 Eh
   gradient norm :     0.0069613 Eh/α   predicted    -0.1613260E-03 ( -20.47%)
   displ. norm   :     0.2438723 α      lambda       -0.1753046E-03
   maximum displ.:     0.0972787 α      in ANC's #9, #3, #5, ...

........................................................................
.............................. CYCLE   10 ..............................
........................................................................
   1    -84.3458553 -0.843459E+02  0.378E-02    0.13       0.0  T
   2    -84.3355908  0.102645E-01  0.302E-01    0.20       1.0  T
   3    -84.3460001 -0.104093E-01  0.116E-02    0.13       1.3  T
   4    -84.3460109 -0.107705E-04  0.638E-03    0.13       2.4  T
   5    -84.3460115 -0.631665E-06  0.576E-03    0.13       2.7  T
   6    -84.3460153 -0.376949E-05  0.141E-04    0.13     109.6  T
   7    -84.3460153 -0.389051E-09  0.514E-05    0.13     300.3  T
   8    -84.3460153  0.231665E-09  0.582E-05    0.13     265.2  T
     SCC iter.                  ...        0 min,  0.032 sec
     gradient                   ...        0 min,  0.080 sec
 * total energy  :   -83.6241236 Eh     change       -0.1242379E-03 Eh
   gradient norm :     0.0056848 Eh/α   predicted    -0.9287631E-04 ( -25.24%)
   displ. norm   :     0.2086361 α      lambda       -0.1419642E-03
   maximum displ.:     0.0912266 α      in ANC's #3, #4, #9, ...

........................................................................
.............................. CYCLE   11 ..............................
........................................................................
   1    -84.3470650 -0.843471E+02  0.493E-02    0.13       0.0  T
   2    -84.3337799  0.132851E-01  0.347E-01    0.22       1.0  T
   3    -84.3473092 -0.135293E-01  0.151E-02    0.14       1.0  T
   4    -84.3473314 -0.221670E-04  0.398E-03    0.14       3.9  T
   5    -84.3473299  0.145154E-05  0.528E-03    0.14       2.9  T
   6    -84.3473299  0.249885E-07  0.514E-03    0.14       3.0  T
   7    -84.3473330 -0.312408E-05  0.311E-04    0.14      49.5  T
   8    -84.3473330 -0.110614E-07  0.559E-05    0.14     276.1  T
   9    -84.3473330 -0.364082E-10  0.516E-05    0.14     299.0  T
     SCC iter.                  ...        0 min,  0.036 sec
     gradient                   ...        0 min,  0.080 sec
 * total energy  :   -83.6242223 Eh     change       -0.9868439E-04 Eh
   gradient norm :     0.0054006 Eh/α   predicted    -0.7411181E-04 ( -24.90%)
   displ. norm   :     0.2087261 α      lambda       -0.1193668E-03
   maximum displ.:     0.1050307 α      in ANC's #4, #3, #9, ...

........................................................................
.............................. CYCLE   12 ..............................
........................................................................
   1    -84.3466988 -0.843467E+02  0.146E-02    0.14       0.0  T
   2    -84.3451529  0.154588E-02  0.117E-01    0.16       1.0  T
   3    -84.3466936 -0.154070E-02  0.141E-02    0.14       1.1  T
   4    -84.3467161 -0.224454E-04  0.399E-03    0.14       3.9  T
   5    -84.3467176 -0.155979E-05  0.112E-03    0.14      13.7  T
   6    -84.3467177 -0.543088E-07  0.382E-04    0.14      40.4  T
   7    -84.3467177 -0.956732E-08  0.724E-05    0.14     213.1  T
   8    -84.3467177 -0.322203E-09  0.239E-05    0.14     646.4  T
     SCC iter.                  ...        0 min,  0.032 sec
     gradient                   ...        0 min,  0.080 sec
 * total energy  :   -83.6243079 Eh     change       -0.8553986E-04 Eh
   gradient norm :     0.0056796 Eh/α   predicted    -0.6228810E-04 ( -27.18%)
   displ. norm   :     0.2010823 α      lambda       -0.1186672E-03
   maximum displ.:     0.1156118 α      in ANC's #4, #3, #5, ...

........................................................................
.............................. CYCLE   13 ..............................
........................................................................
   1    -84.3478375 -0.843478E+02  0.296E-02    0.14       0.0  T
   2    -84.3409280  0.690951E-02  0.249E-01    0.19       1.0  T
   3    -84.3479229 -0.699488E-02  0.138E-02    0.15       1.1  T
   4    -84.3479218  0.107880E-05  0.129E-02    0.15       1.2  T
   5    -84.3479396 -0.177873E-04  0.172E-03    0.14       9.0  T
   6    -84.3479395  0.533768E-07  0.142E-03    0.14      10.9  T
   7    -84.3479397 -0.176470E-06  0.409E-04    0.14      37.7  T
   8    -84.3479397 -0.179833E-07  0.808E-05    0.14     191.0  T
   9    -84.3479397 -0.671449E-09  0.176E-05    0.14     877.7  T
     SCC iter.                  ...        0 min,  0.036 sec
     gradient                   ...        0 min,  0.080 sec
 * total energy  :   -83.6243903 Eh     change       -0.8242858E-04 Eh
   gradient norm :     0.0049790 Eh/α   predicted    -0.6173666E-04 ( -25.10%)
   displ. norm   :     0.2116832 α      lambda       -0.9203372E-04
   maximum displ.:     0.1131985 α      in ANC's #4, #3, #10, ...

........................................................................
.............................. CYCLE   14 ..............................
........................................................................
   1    -84.3464080 -0.843464E+02  0.140E-02    0.15       0.0  T
   2    -84.3446162  0.179178E-02  0.123E-01    0.14       1.0  T
   3    -84.3463978 -0.178165E-02  0.181E-02    0.15       1.0  T
   4    -84.3464099 -0.120444E-04  0.129E-02    0.15       1.2  T
   5    -84.3464211 -0.112515E-04  0.743E-03    0.15       2.1  T
   6    -84.3464267 -0.560276E-05  0.103E-03    0.15      15.0  T
   7    -84.3464268 -0.102700E-06  0.506E-05    0.15     305.2  T
   8    -84.3464268  0.982681E-10  0.473E-05    0.15     326.0  T
     SCC iter.                  ...        0 min,  0.032 sec
     gradient                   ...        0 min,  0.080 sec
 * total energy  :   -83.6244522 Eh     change       -0.6187491E-04 Eh
   gradient norm :     0.0044379 Eh/α   predicted    -0.4808050E-04 ( -22.29%)
   displ. norm   :     0.1714221 α      lambda       -0.8494403E-04
   maximum displ.:     0.0904865 α      in ANC's #4, #5, #3, ...

........................................................................
.............................. CYCLE   15 ..............................
........................................................................
   1    -84.3476626 -0.843477E+02  0.171E-02    0.15       0.0  T
   2    -84.3446158  0.304678E-02  0.164E-01    0.18       1.0  T
   3    -84.3476415 -0.302570E-02  0.239E-02    0.16       1.0  T
   4    -84.3476849 -0.434414E-04  0.136E-02    0.15       1.1  T
   5    -84.3476991 -0.141427E-04  0.638E-03    0.15       2.4  T
   6    -84.3477029 -0.382971E-05  0.121E-03    0.15      12.8  T
   7    -84.3477030 -0.124686E-06  0.344E-04    0.15      44.9  T
   8    -84.3477030 -0.129368E-07  0.201E-05    0.15     767.5  T
   9    -84.3477030  0.192415E-10  0.157E-05    0.15     985.3  T
     SCC iter.                  ...        0 min,  0.036 sec
     gradient                   ...        0 min,  0.080 sec
 * total energy  :   -83.6245100 Eh     change       -0.5785067E-04 Eh
   gradient norm :     0.0035605 Eh/α   predicted    -0.4372121E-04 ( -24.42%)
   displ. norm   :     0.2481125 α      lambda       -0.8273755E-04
   maximum displ.:     0.1131789 α      in ANC's #4, #3, #10, ...

........................................................................
.............................. CYCLE   16 ..............................
........................................................................
   1    -84.3469470 -0.843469E+02  0.781E-03    0.16       0.0  T
   2    -84.3468296  0.117404E-03  0.313E-02    0.16       1.0  T
   3    -84.3468844 -0.547638E-04  0.256E-02    0.16       1.0  T
   4    -84.3469404 -0.560029E-04  0.107E-02    0.16       1.4  T
   5    -84.3469501 -0.970270E-05  0.443E-03    0.16       3.5  T
   6    -84.3469520 -0.187939E-05  0.614E-04    0.16      25.1  T
   7    -84.3469520 -0.343813E-07  0.111E-04    0.16     139.2  T
   8    -84.3469520 -0.994831E-09  0.307E-05    0.16     502.3  T
     SCC iter.                  ...        0 min,  0.032 sec
     gradient                   ...        0 min,  0.080 sec
 * total energy  :   -83.6245733 Eh     change       -0.6325406E-04 Eh
   gradient norm :     0.0049650 Eh/α   predicted    -0.4391654E-04 ( -30.57%)
   displ. norm   :     0.3061420 α      lambda       -0.1334109E-03
   maximum displ.:     0.1348070 α      in ANC's #10, #4, #3, ...

........................................................................
.............................. CYCLE   17 ..............................
........................................................................
   1    -84.3473084 -0.843473E+02  0.115E-02    0.17       0.0  T
   2    -84.3463689  0.939567E-03  0.912E-02    0.18       1.0  T
   3    -84.3473153 -0.946439E-03  0.860E-03    0.17       1.8  T
   4    -84.3473188 -0.348663E-05  0.653E-03    0.17       2.4  T
   5    -84.3473211 -0.227073E-05  0.377E-03    0.17       4.1  T
   6    -84.3473224 -0.138389E-05  0.402E-04    0.17      38.4  T
   7    -84.3473224 -0.619366E-08  0.240E-04    0.17      64.4  T
   8    -84.3473225 -0.594487E-08  0.216E-05    0.17     714.3  T
   9    -84.3473225 -0.804334E-11  0.982E-06    0.17    1571.4  T
     SCC iter.                  ...        0 min,  0.035 sec
     gradient                   ...        0 min,  0.080 sec
 * total energy  :   -83.6246695 Eh     change       -0.9619545E-04 Eh
   gradient norm :     0.0060583 Eh/α   predicted    -0.7296210E-04 ( -24.15%)
   displ. norm   :     0.2605945 α      lambda       -0.1212911E-03
   maximum displ.:     0.1201574 α      in ANC's #10, #6, #3, ...

........................................................................
.............................. CYCLE   18 ..............................
........................................................................
   1    -84.3478625 -0.843479E+02  0.189E-02    0.18       0.0  T
   2    -84.3455275  0.233497E-02  0.144E-01    0.20       1.0  T
   3    -84.3478997 -0.237217E-02  0.445E-03    0.18       3.5  T
   4    -84.3479011 -0.143296E-05  0.198E-03    0.18       7.8  T
   5    -84.3479012 -0.124548E-06  0.117E-03    0.18      13.2  T
   6    -84.3479013 -0.688382E-07  0.266E-04    0.18      57.9  T
   7    -84.3479013 -0.476106E-09  0.202E-04    0.18      76.5  T
   8    -84.3479013 -0.434063E-08  0.330E-05    0.18     467.2  T
   9    -84.3479013 -0.908216E-10  0.673E-06    0.18    2294.3  T
     SCC iter.                  ...        0 min,  0.036 sec
     gradient                   ...        0 min,  0.088 sec
 * total energy  :   -83.6247616 Eh     change       -0.9213444E-04 Eh
   gradient norm :     0.0052769 Eh/α   predicted    -0.6476560E-04 ( -29.71%)
   displ. norm   :     0.2616779 α      lambda       -0.1304222E-03
   maximum displ.:     0.1157420 α      in ANC's #10, #6, #2, ...

........................................................................
.............................. CYCLE   19 ..............................
........................................................................
   1    -84.3488413 -0.843488E+02  0.291E-02    0.18       0.0  T
   2    -84.3442848  0.455650E-02  0.202E-01    0.23       1.0  T
   3    -84.3489307 -0.464582E-02  0.659E-03    0.19       2.3  T
   4    -84.3489346 -0.391142E-05  0.247E-03    0.19       6.2  T
   5    -84.3489350 -0.459280E-06  0.111E-03    0.19      13.9  T
   6    -84.3489351 -0.362520E-07  0.340E-04    0.19      45.3  T
   7    -84.3489351 -0.263346E-08  0.242E-04    0.19      63.7  T
   8    -84.3489351 -0.470608E-08  0.132E-04    0.19     116.9  T
   9    -84.3489351 -0.184039E-08  0.346E-05    0.19     445.7  T
     SCC iter.                  ...        0 min,  0.035 sec
     gradient                   ...        0 min,  0.065 sec
 * total energy  :   -83.6248513 Eh     change       -0.8973487E-04 Eh
   gradient norm :     0.0038153 Eh/α   predicted    -0.6967847E-04 ( -22.35%)
   displ. norm   :     0.4444725 α      lambda       -0.1277129E-03
   maximum displ.:     0.1930802 α      in ANC's #10, #3, #6, ...

........................................................................
.............................. CYCLE   20 ..............................
........................................................................
   1    -84.3440576 -0.843441E+02  0.211E-02    0.20       0.0  T
   2    -84.3440499  0.769727E-05  0.213E-02    0.20       1.0  T
   3    -84.3439093  0.140626E-03  0.394E-02    0.19       1.0  T
   4    -84.3440767 -0.167379E-03  0.888E-03    0.20       1.7  T
   5    -84.3440844 -0.769616E-05  0.270E-03    0.20       5.7  T
   6    -84.3440846 -0.238459E-06  0.112E-03    0.20      13.8  T
   7    -84.3440847 -0.129525E-06  0.101E-04    0.20     153.4  T
   8    -84.3440847 -0.333984E-09  0.284E-05    0.20     543.3  T
     SCC iter.                  ...        0 min,  0.023 sec
     gradient                   ...        0 min,  0.078 sec
 * total energy  :   -83.6248560 Eh     change       -0.4640377E-05 Eh
   gradient norm :     0.0095383 Eh/α   predicted    -0.7647431E-04 (1548.02%)
   displ. norm   :     0.1323465 α      lambda       -0.2100470E-03
   maximum displ.:     0.0781306 α      in ANC's #4, #2, #15, ...
 * RMSD in coord.:     0.6171983 α      energy gain  -0.1973736E-01 Eh

generating ANC from model Hessian ...
Using Lindh-Hessian (1995)
 Shifting diagonal of input Hessian by   9.803200130162310E-003
 Lowest  eigenvalues of input Hessian
    0.000000    0.000000    0.000000    0.000000    0.000000    0.000000
    0.010000    0.010043    0.010510    0.011356    0.011906    0.012356
    0.012644    0.014026    0.014878    0.015514    0.015918    0.016559
 Highest eigenvalues
    2.004055    2.099214    2.145104    2.225422    2.291148    2.305508
 

........................................................................
.............................. CYCLE   21 ..............................
........................................................................
   1    -84.3497666 -0.843498E+02  0.515E-02    0.19       0.0  T
   2    -84.3395513  0.102152E-01  0.309E-01    0.28       1.0  T
   3    -84.3498373 -0.102860E-01  0.489E-02    0.21       1.0  T
   4    -84.3501010 -0.263704E-03  0.518E-03    0.20       3.0  T
   5    -84.3500955  0.550178E-05  0.813E-03    0.20       1.9  T
   6    -84.3501018 -0.631918E-05  0.382E-03    0.20       4.0  T
   7    -84.3501033 -0.147529E-05  0.781E-04    0.20      19.8  T
   8    -84.3501034 -0.660719E-07  0.685E-05    0.20     225.4  T
   9    -84.3501034  0.164589E-08  0.133E-04    0.20     116.4  T
     SCC iter.                  ...        0 min,  0.040 sec
     gradient                   ...        0 min,  0.084 sec
 * total energy  :   -83.6249597 Eh     change       -0.1037041E-03 Eh
   gradient norm :     0.0057674 Eh/α   predicted     0.0000000E+00 (-100.00%)
   displ. norm   :     0.0388604 α      lambda       -0.5763543E-04
   maximum displ.:     0.0226946 α      in ANC's #6, #25, #12, ...

........................................................................
.............................. CYCLE   22 ..............................
........................................................................
   1    -84.3495490 -0.843495E+02  0.746E-03    0.20       0.0  T
   2    -84.3492680  0.280947E-03  0.499E-02    0.21       1.0  T
   3    -84.3495541 -0.286042E-03  0.316E-03    0.20       4.9  T
   4    -84.3495543 -0.183211E-06  0.259E-03    0.20       6.0  T
   5    -84.3495544 -0.126434E-06  0.204E-03    0.20       7.6  T
   6    -84.3495548 -0.366527E-06  0.553E-04    0.20      27.9  T
   7    -84.3495548 -0.305898E-07  0.657E-05    0.20     234.8  T
   8    -84.3495548 -0.462890E-09  0.924E-06    0.20    1670.8  T
     SCC iter.                  ...        0 min,  0.034 sec
     gradient                   ...        0 min,  0.084 sec
 * total energy  :   -83.6250108 Eh     change       -0.5108354E-04 Eh
   gradient norm :     0.0025590 Eh/α   predicted    -0.3319967E-04 ( -35.01%)
   displ. norm   :     0.0911708 α      lambda       -0.7519123E-04
   maximum displ.:     0.0574280 α      in ANC's #6, #25, #8, ...

........................................................................
.............................. CYCLE   23 ..............................
........................................................................
   1    -84.3488579 -0.843489E+02  0.988E-03    0.20       0.0  T
   2    -84.3484129  0.444976E-03  0.630E-02    0.21       1.0  T
   3    -84.3488667 -0.453754E-03  0.458E-03    0.20       3.4  T
   4    -84.3488666  0.530449E-07  0.439E-03    0.20       3.5  T
   5    -84.3488672 -0.567167E-06  0.332E-03    0.20       4.6  T
   6    -84.3488682 -0.945682E-06  0.106E-03    0.20      14.6  T
   7    -84.3488683 -0.113227E-06  0.382E-05    0.20     403.6  T
   8    -84.3488683 -0.754881E-10  0.126E-05    0.20    1227.2  T
     SCC iter.                  ...        0 min,  0.034 sec
     gradient                   ...        0 min,  0.084 sec
 * total energy  :   -83.6250595 Eh     change       -0.4878059E-04 Eh
   gradient norm :     0.0026037 Eh/α   predicted    -0.3790983E-04 ( -22.29%)
   displ. norm   :     0.0874245 α      lambda       -0.3712829E-04
   maximum displ.:     0.0596165 α      in ANC's #6, #25, #8, ...

........................................................................
.............................. CYCLE   24 ..............................
........................................................................
   1    -84.3487021 -0.843487E+02  0.516E-03    0.20       0.0  T
   2    -84.3485377  0.164410E-03  0.382E-02    0.20       1.0  T
   3    -84.3487042 -0.166544E-03  0.330E-03    0.20       4.7  T
   4    -84.3487047 -0.460570E-06  0.256E-03    0.20       6.0  T
   5    -84.3487049 -0.237523E-06  0.186E-03    0.20       8.3  T
   6    -84.3487052 -0.300940E-06  0.566E-04    0.20      27.3  T
   7    -84.3487053 -0.320729E-07  0.733E-05    0.20     210.4  T
   8    -84.3487053 -0.514987E-09  0.873E-06    0.20    1768.3  T
     SCC iter.                  ...        0 min,  0.034 sec
     gradient                   ...        0 min,  0.084 sec
 * total energy  :   -83.6250894 Eh     change       -0.2983610E-04 Eh
   gradient norm :     0.0035028 Eh/α   predicted    -0.1879790E-04 ( -37.00%)
   displ. norm   :     0.1470152 α      lambda       -0.5759635E-04
   maximum displ.:     0.0972430 α      in ANC's #6, #4, #8, ...

........................................................................
.............................. CYCLE   25 ..............................
........................................................................
   1    -84.3487633 -0.843488E+02  0.661E-03    0.20       0.0  T
   2    -84.3484550  0.308287E-03  0.524E-02    0.21       1.0  T
   3    -84.3487670 -0.311983E-03  0.402E-03    0.20       3.8  T
   4    -84.3487682 -0.113297E-05  0.236E-03    0.20       6.5  T
   5    -84.3487684 -0.268022E-06  0.138E-03    0.20      11.2  T
   6    -84.3487686 -0.167673E-06  0.243E-04    0.20      63.4  T
   7    -84.3487686 -0.415736E-08  0.102E-04    0.20     151.9  T
   8    -84.3487686 -0.101090E-08  0.156E-05    0.20     991.0  T
     SCC iter.                  ...        0 min,  0.034 sec
     gradient                   ...        0 min,  0.084 sec
 * total energy  :   -83.6251360 Eh     change       -0.4664071E-04 Eh
   gradient norm :     0.0034539 Eh/α   predicted    -0.2942171E-04 ( -36.92%)
   displ. norm   :     0.2090075 α      lambda       -0.7375589E-04
   maximum displ.:     0.1374195 α      in ANC's #6, #4, #8, ...

........................................................................
.............................. CYCLE   26 ..............................
........................................................................
   1    -84.3488675 -0.843489E+02  0.802E-03    0.20       0.0  T
   2    -84.3484983  0.369206E-03  0.573E-02    0.21       1.0  T
   3    -84.3488740 -0.375716E-03  0.206E-03    0.20       7.5  T
   4    -84.3488741 -0.116268E-06  0.132E-03    0.20      11.7  T
   5    -84.3488741 -0.224503E-08  0.869E-04    0.20      17.8  T
   6    -84.3488741 -0.495901E-07  0.163E-04    0.20      94.7  T
   7    -84.3488741 -0.112979E-08  0.111E-04    0.20     139.6  T
     SCC iter.                  ...        0 min,  0.030 sec
     gradient                   ...        0 min,  0.084 sec
 * total energy  :   -83.6251944 Eh     change       -0.5837907E-04 Eh
   gradient norm :     0.0033695 Eh/α   predicted    -0.3849846E-04 ( -34.05%)
   displ. norm   :     0.2521855 α      lambda       -0.8220974E-04
   maximum displ.:     0.1645754 α      in ANC's #6, #4, #2, ...

........................................................................
.............................. CYCLE   27 ..............................
........................................................................
   1    -84.3488936 -0.843489E+02  0.880E-03    0.21       0.0  T
   2    -84.3485444  0.349196E-03  0.558E-02    0.22       1.0  T
   3    -84.3488996 -0.355189E-03  0.363E-03    0.21       4.2  T
   4    -84.3489006 -0.100874E-05  0.138E-03    0.21      11.2  T
   5    -84.3489007 -0.781758E-07  0.713E-04    0.21      21.6  T
   6    -84.3489007  0.705428E-08  0.435E-04    0.21      35.5  T
   7    -84.3489007 -0.202741E-07  0.843E-05    0.21     183.0  T
   8    -84.3489007 -0.713641E-09  0.117E-05    0.21    1322.2  T
     SCC iter.                  ...        0 min,  0.032 sec
     gradient                   ...        0 min,  0.084 sec
 * total energy  :   -83.6252600 Eh     change       -0.6555216E-04 Eh
   gradient norm :     0.0040763 Eh/α   predicted    -0.4371861E-04 ( -33.31%)
   displ. norm   :     0.3076351 α      lambda       -0.1092139E-03
   maximum displ.:     0.1989807 α      in ANC's #6, #2, #10, ...

........................................................................
.............................. CYCLE   28 ..............................
........................................................................
   1    -84.3490234 -0.843490E+02  0.101E-02    0.22       0.0  T
   2    -84.3486748  0.348636E-03  0.558E-02    0.23       1.0  T
   3    -84.3490264 -0.351630E-03  0.745E-03    0.22       2.1  T
   4    -84.3490315 -0.502051E-05  0.236E-03    0.22       6.5  T
   5    -84.3490319 -0.398364E-06  0.118E-03    0.22      13.1  T
   6    -84.3490319 -0.180221E-07  0.741E-04    0.22      20.8  T
   7    -84.3490319 -0.583014E-07  0.548E-05    0.22     281.5  T
   8    -84.3490319 -0.223565E-09  0.157E-05    0.22     980.7  T
     SCC iter.                  ...        0 min,  0.033 sec
     gradient                   ...        0 min,  0.084 sec
 * total energy  :   -83.6253466 Eh     change       -0.8661751E-04 Eh
   gradient norm :     0.0052227 Eh/α   predicted    -0.5977650E-04 ( -30.99%)
   displ. norm   :     0.3985028 α      lambda       -0.1602392E-03
   maximum displ.:     0.2539012 α      in ANC's #6, #10, #5, ...

........................................................................
.............................. CYCLE   29 ..............................
........................................................................
   1    -84.3491385 -0.843491E+02  0.108E-02    0.23       0.0  T
   2    -84.3488917  0.246878E-03  0.471E-02    0.24       1.0  T
   3    -84.3491298 -0.238176E-03  0.129E-02    0.23       1.2  T
   4    -84.3491459 -0.160432E-04  0.331E-03    0.23       4.7  T
   5    -84.3491467 -0.824569E-06  0.169E-03    0.23       9.2  T
   6    -84.3491468 -0.870400E-07  0.102E-03    0.23      15.1  T
   7    -84.3491469 -0.106611E-06  0.805E-05    0.23     191.6  T
   8    -84.3491469 -0.410338E-09  0.197E-05    0.23     782.1  T
     SCC iter.                  ...        0 min,  0.033 sec
     gradient                   ...        0 min,  0.084 sec
 * total energy  :   -83.6254718 Eh     change       -0.1252042E-03 Eh
   gradient norm :     0.0063587 Eh/α   predicted    -0.9284465E-04 ( -25.85%)
   displ. norm   :     0.4106029 α      lambda       -0.1738208E-03
   maximum displ.:     0.2530970 α      in ANC's #6, #5, #10, ...

........................................................................
.............................. CYCLE   30 ..............................
........................................................................
   1    -84.3491361 -0.843491E+02  0.795E-03    0.24       0.0  T
   2    -84.3490624  0.737603E-04  0.260E-02    0.25       1.0  T
   3    -84.3491249 -0.625449E-04  0.121E-02    0.24       1.3  T
   4    -84.3491398 -0.149101E-04  0.215E-03    0.24       7.2  T
   5    -84.3491402 -0.349652E-06  0.785E-04    0.24      19.7  T
   6    -84.3491402 -0.630345E-08  0.276E-04    0.24      55.8  T
   7    -84.3491402 -0.529413E-08  0.761E-05    0.24     202.9  T
   8    -84.3491402 -0.417714E-09  0.140E-05    0.24    1101.2  T
     SCC iter.                  ...        0 min,  0.029 sec
     gradient                   ...        0 min,  0.047 sec
 * total energy  :   -83.6256050 Eh     change       -0.1332529E-03 Eh
   gradient norm :     0.0066658 Eh/α   predicted    -0.1015749E-03 ( -23.77%)
   displ. norm   :     0.4326868 α      lambda       -0.1674417E-03
   maximum displ.:     0.2626197 α      in ANC's #6, #5, #10, ...

........................................................................
.............................. CYCLE   31 ..............................
........................................................................
   1    -84.3477250 -0.843477E+02  0.698E-03    0.25       0.0  T
   2    -84.3477249  0.104576E-06  0.599E-03    0.25       2.6  T
   3    -84.3477142  0.107153E-04  0.114E-02    0.26       1.4  T
   4    -84.3477272 -0.130044E-04  0.263E-03    0.25       5.9  T
   5    -84.3477276 -0.397624E-06  0.167E-03    0.25       9.3  T
   6    -84.3477278 -0.193820E-06  0.542E-04    0.25      28.5  T
   7    -84.3477278 -0.266616E-07  0.748E-05    0.25     206.2  T
   8    -84.3477278 -0.559837E-09  0.148E-05    0.25    1045.4  T
     SCC iter.                  ...        0 min,  0.032 sec
     gradient                   ...        0 min,  0.086 sec
 * total energy  :   -83.6257187 Eh     change       -0.1136380E-03 Eh
   gradient norm :     0.0070615 Eh/α   predicted    -0.9939247E-04 ( -12.54%)
   displ. norm   :     0.2822109 α      lambda       -0.2896537E-03
   maximum displ.:     0.1348637 α      in ANC's #5, #3, #10, ...

........................................................................
.............................. CYCLE   32 ..............................
........................................................................
   1    -84.3590094 -0.843590E+02  0.725E-02    0.25       0.0  T
   2    -84.3479576  0.110517E-01  0.333E-01    0.37       1.0  T
   3    -84.3591598 -0.112022E-01  0.692E-02    0.27       1.0  T
   4    -84.3596222 -0.462410E-03  0.162E-02    0.25       1.0  T
   5    -84.3596484 -0.262160E-04  0.623E-03    0.26       2.5  T
   6    -84.3596499 -0.152419E-05  0.466E-03    0.26       3.3  T
   7    -84.3596520 -0.209623E-05  0.238E-04    0.26      65.0  T
   8    -84.3596520  0.205807E-08  0.205E-04    0.26      75.2  T
   9    -84.3596520 -0.395671E-08  0.576E-05    0.26     267.7  T
  10    -84.3596520 -0.310322E-09  0.114E-05    0.26    1350.7  T
     SCC iter.                  ...        0 min,  0.037 sec
     gradient                   ...        0 min,  0.072 sec
 * total energy  :   -83.6254487 Eh     change        0.2699713E-03 Eh
   gradient norm :     0.0179336 Eh/α   predicted    -0.1563587E-03 (-157.92%)
   displ. norm   :     0.1867161 α      lambda       -0.7752734E-03
   maximum displ.:     0.1105608 α      in ANC's #6, #8, #25, ...

........................................................................
.............................. CYCLE   33 ..............................
........................................................................
   1    -84.3498870 -0.843499E+02  0.485E-02    0.27       0.0  T
   2    -84.3333001  0.165869E-01  0.386E-01    0.22       1.0  T
   3    -84.3501373 -0.168372E-01  0.131E-02    0.26       1.2  T
   4    -84.3501288  0.848166E-05  0.129E-02    0.26       1.2  T
   5    -84.3501407 -0.119071E-04  0.556E-03    0.26       2.8  T
   6    -84.3501429 -0.218212E-05  0.232E-03    0.26       6.7  T
   7    -84.3501435 -0.585856E-06  0.392E-04    0.26      39.3  T
   8    -84.3501435 -0.155788E-07  0.110E-04    0.26     139.8  T
   9    -84.3501435 -0.125442E-08  0.399E-05    0.26     386.6  T
     SCC iter.                  ...        0 min,  0.036 sec
     gradient                   ...        0 min,  0.084 sec
 * total energy  :   -83.6258736 Eh     change       -0.4248848E-03 Eh
   gradient norm :     0.0051131 Eh/α   predicted    -0.4011567E-03 (  -5.58%)
   displ. norm   :     0.2587844 α      lambda       -0.8651583E-04
   maximum displ.:     0.1543198 α      in ANC's #6, #5, #2, ...

........................................................................
.............................. CYCLE   34 ..............................
........................................................................
   1    -84.3481671 -0.843482E+02  0.775E-03    0.27       0.0  T
   2    -84.3479560  0.211174E-03  0.443E-02    0.26       1.0  T
   3    -84.3481723 -0.216341E-03  0.268E-03    0.27       5.7  T
   4    -84.3481721  0.168539E-06  0.245E-03    0.26       6.3  T
   5    -84.3481726 -0.445248E-06  0.584E-04    0.27      26.4  T
   6    -84.3481726 -0.149969E-07  0.101E-04    0.27     152.6  T
   7    -84.3481726 -0.280323E-09  0.241E-05    0.27     640.9  T
     SCC iter.                  ...        0 min,  0.029 sec
     gradient                   ...        0 min,  0.083 sec
 * total energy  :   -83.6259410 Eh     change       -0.6740588E-04 Eh
   gradient norm :     0.0063540 Eh/α   predicted    -0.4618441E-04 ( -31.48%)
   displ. norm   :     0.3102837 α      lambda       -0.1904299E-03
   maximum displ.:     0.1694065 α      in ANC's #6, #3, #5, ...

........................................................................
.............................. CYCLE   35 ..............................
........................................................................
   1    -84.3485053 -0.843485E+02  0.154E-02    0.27       0.0  T
   2    -84.3477473  0.757951E-03  0.841E-02    0.29       1.0  T
   3    -84.3485293 -0.782019E-03  0.287E-03    0.27       5.4  T
   4    -84.3485295 -0.172799E-06  0.179E-03    0.27       8.6  T
   5    -84.3485296 -0.510203E-07  0.890E-04    0.27      17.3  T
   6    -84.3485296 -0.191007E-07  0.400E-04    0.27      38.6  T
   7    -84.3485296 -0.157758E-07  0.911E-05    0.27     169.4  T
   8    -84.3485296 -0.747036E-09  0.200E-05    0.27     770.1  T
     SCC iter.                  ...        0 min,  0.032 sec
     gradient                   ...        0 min,  0.084 sec
 * total energy  :   -83.6260658 Eh     change       -0.1248410E-03 Eh
   gradient norm :     0.0069754 Eh/α   predicted    -0.1043905E-03 ( -16.38%)
   displ. norm   :     0.3816334 α      lambda       -0.1558170E-03
   maximum displ.:     0.2042492 α      in ANC's #6, #3, #5, ...

........................................................................
.............................. CYCLE   36 ..............................
........................................................................
   1    -84.3472648 -0.843473E+02  0.237E-02    0.28       0.0  T
   2    -84.3442394  0.302544E-02  0.167E-01    0.25       1.0  T
   3    -84.3473259 -0.308659E-02  0.918E-03    0.27       1.7  T
   4    -84.3473281 -0.212678E-05  0.733E-03    0.27       2.1  T
   5    -84.3473300 -0.195882E-05  0.490E-03    0.28       3.1  T
   6    -84.3473323 -0.230400E-05  0.857E-04    0.28      18.0  T
   7    -84.3473324 -0.715545E-07  0.541E-05    0.28     285.4  T
   8    -84.3473324 -0.145292E-09  0.167E-05    0.28     925.6  T
     SCC iter.                  ...        0 min,  0.032 sec
     gradient                   ...        0 min,  0.084 sec
 * total energy  :   -83.6261503 Eh     change       -0.8443925E-04 Eh
   gradient norm :     0.0100968 Eh/α   predicted    -0.8926708E-04 (   5.72%)
   displ. norm   :     0.2251172 α      lambda       -0.2333906E-03
   maximum displ.:     0.1253997 α      in ANC's #3, #6, #5, ...

........................................................................
.............................. CYCLE   37 ..............................
........................................................................
   1    -84.3524982 -0.843525E+02  0.567E-02    0.27       0.0  T
   2    -84.3450986  0.739964E-02  0.270E-01    0.36       1.0  T
   3    -84.3527519 -0.765333E-02  0.364E-02    0.28       1.0  T
   4    -84.3528885 -0.136615E-03  0.846E-03    0.28       1.8  T
   5    -84.3528911 -0.256060E-05  0.523E-03    0.28       3.0  T
   6    -84.3528933 -0.221427E-05  0.276E-03    0.28       5.6  T
   7    -84.3528940 -0.741207E-06  0.430E-04    0.28      35.9  T
   8    -84.3528941 -0.196275E-07  0.299E-05    0.28     515.5  T
   9    -84.3528941  0.605667E-10  0.272E-05    0.28     567.6  T
     SCC iter.                  ...        0 min,  0.036 sec
     gradient                   ...        0 min,  0.084 sec
 * total energy  :   -83.6262629 Eh     change       -0.1126442E-03 Eh
   gradient norm :     0.0065110 Eh/α   predicted    -0.1226153E-03 (   8.85%)
   displ. norm   :     0.4885067 α      lambda       -0.1874291E-03
   maximum displ.:     0.2775509 α      in ANC's #6, #5, #3, ...

........................................................................
.............................. CYCLE   38 ..............................
........................................................................
   1    -84.3480935 -0.843481E+02  0.422E-02    0.29       0.0  T
   2    -84.3375930  0.105005E-01  0.311E-01    0.25       1.0  T
   3    -84.3482991 -0.107060E-01  0.110E-02    0.29       1.4  T
   4    -84.3482902  0.887730E-05  0.131E-02    0.28       1.2  T
   5    -84.3482998 -0.964004E-05  0.800E-03    0.28       1.9  T
   6    -84.3483048 -0.501080E-05  0.292E-03    0.29       5.3  T
   7    -84.3483057 -0.893579E-06  0.283E-04    0.29      54.5  T
   8    -84.3483057 -0.782448E-08  0.475E-05    0.29     324.6  T
   9    -84.3483057 -0.105231E-09  0.330E-05    0.29     467.7  T
     SCC iter.                  ...        0 min,  0.036 sec
     gradient                   ...        0 min,  0.083 sec
 * total energy  :   -83.6263419 Eh     change       -0.7894647E-04 Eh
   gradient norm :     0.0077136 Eh/α   predicted    -0.1161085E-03 (  47.07%)
   displ. norm   :     0.0906417 α      lambda       -0.1193212E-03
   maximum displ.:     0.0482414 α      in ANC's #3, #6, #9, ...

........................................................................
.............................. CYCLE   39 ..............................
........................................................................
   1    -84.3500248 -0.843500E+02  0.299E-02    0.28       0.0  T
   2    -84.3476727  0.235210E-02  0.150E-01    0.32       1.0  T
   3    -84.3501153 -0.244265E-02  0.142E-02    0.29       1.1  T
   4    -84.3501282 -0.128612E-04  0.818E-03    0.29       1.9  T
   5    -84.3501337 -0.550936E-05  0.138E-03    0.29      11.1  T
   6    -84.3501338 -0.844656E-07  0.344E-04    0.29      44.9  T
   7    -84.3501338 -0.494310E-09  0.236E-04    0.29      65.5  T
   8    -84.3501338 -0.534068E-08  0.274E-05    0.29     563.1  T
   9    -84.3501338  0.278391E-10  0.238E-05    0.29     648.2  T
     SCC iter.                  ...        0 min,  0.036 sec
     gradient                   ...        0 min,  0.084 sec
 * total energy  :   -83.6264037 Eh     change       -0.6189095E-04 Eh
   gradient norm :     0.0044944 Eh/α   predicted    -0.6015102E-04 (  -2.81%)
   displ. norm   :     0.1744590 α      lambda       -0.1031989E-03
   maximum displ.:     0.0863646 α      in ANC's #3, #6, #1, ...

........................................................................
.............................. CYCLE   40 ..............................
........................................................................
   1    -84.3521614 -0.843522E+02  0.200E-02    0.29       0.0  T
   2    -84.3508400  0.132137E-02  0.110E-01    0.27       1.0  T
   3    -84.3521955 -0.135544E-02  0.783E-03    0.29       2.0  T
   4    -84.3521993 -0.377637E-05  0.284E-03    0.29       5.4  T
   5    -84.3521992  0.103650E-06  0.216E-03    0.29       7.1  T
   6    -84.3521995 -0.333342E-06  0.287E-04    0.29      53.8  T
   7    -84.3521995 -0.383218E-08  0.118E-04    0.29     131.1  T
   8    -84.3521995 -0.115683E-08  0.267E-05    0.29     577.3  T
     SCC iter.                  ...        0 min,  0.032 sec
     gradient                   ...        0 min,  0.084 sec
 * total energy  :   -83.6264380 Eh     change       -0.3427148E-04 Eh
   gradient norm :     0.0065171 Eh/α   predicted    -0.5317116E-04 (  55.15%)
   displ. norm   :     0.1918461 α      lambda       -0.7420189E-04
   maximum displ.:     0.1076643 α      in ANC's #6, #3, #2, ...

........................................................................
.............................. CYCLE   41 ..............................
........................................................................
   1    -84.3511095 -0.843511E+02  0.124E-02    0.29       0.0  T
   2    -84.3510908  0.186860E-04  0.167E-02    0.29       1.0  T
   3    -84.3510485  0.423262E-04  0.260E-02    0.29       1.0  T
   4    -84.3511211 -0.725928E-04  0.216E-03    0.29       7.1  T
   5    -84.3511212 -0.196120E-06  0.945E-04    0.29      16.3  T
   6    -84.3511213 -0.105634E-07  0.242E-04    0.29      63.8  T
   7    -84.3511213 -0.257170E-08  0.624E-05    0.29     247.1  T
   8    -84.3511213 -0.293582E-09  0.215E-05    0.29     719.1  T
     SCC iter.                  ...        0 min,  0.032 sec
     gradient                   ...        0 min,  0.084 sec
 * total energy  :   -83.6264905 Eh     change       -0.5249911E-04 Eh
   gradient norm :     0.0030896 Eh/α   predicted    -0.3846337E-04 ( -26.74%)
   displ. norm   :     0.1670550 α      lambda       -0.5235281E-04
   maximum displ.:     0.0914492 α      in ANC's #6, #3, #1, ...

........................................................................
.............................. CYCLE   42 ..............................
........................................................................
   1    -84.3518202 -0.843518E+02  0.111E-02    0.29       0.0  T
   2    -84.3516988  0.121419E-03  0.346E-02    0.30       1.0  T
   3    -84.3518166 -0.117790E-03  0.121E-02    0.29       1.3  T
   4    -84.3518309 -0.143466E-04  0.274E-03    0.29       5.6  T
   5    -84.3518313 -0.409729E-06  0.132E-03    0.29      11.7  T
   6    -84.3518315 -0.120846E-06  0.178E-04    0.29      86.7  T
   7    -84.3518315 -0.135265E-08  0.307E-05    0.29     502.2  T
     SCC iter.                  ...        0 min,  0.028 sec
     gradient                   ...        0 min,  0.084 sec
 * total energy  :   -83.6265237 Eh     change       -0.3318843E-04 Eh
   gradient norm :     0.0027972 Eh/α   predicted    -0.2690854E-04 ( -18.92%)
   displ. norm   :     0.3338315 α      lambda       -0.4958166E-04
   maximum displ.:     0.1894328 α      in ANC's #6, #3, #1, ...
 * RMSD in coord.:     0.7644967 α      energy gain  -0.1667729E-02 Eh

generating ANC from model Hessian ...
Using Lindh-Hessian (1995)
 Shifting diagonal of input Hessian by   9.796112749712083E-003
 Lowest  eigenvalues of input Hessian
    0.000000    0.000000    0.000000    0.000000    0.000000    0.000000
    0.010000    0.010026    0.010380    0.011335    0.011992    0.012525
    0.013243    0.014137    0.014498    0.015306    0.015972    0.016354
 Highest eigenvalues
    2.001232    2.099556    2.140820    2.225897    2.291777    2.300353
 

........................................................................
.............................. CYCLE   43 ..............................
........................................................................
   1    -84.3489848 -0.843490E+02  0.351E-02    0.31       0.0  T
   2    -84.3432841  0.570072E-02  0.231E-01    0.27       1.0  T
   3    -84.3491234 -0.583930E-02  0.104E-02    0.30       1.5  T
   4    -84.3491206  0.277242E-05  0.107E-02    0.30       1.4  T
   5    -84.3491281 -0.743089E-05  0.545E-03    0.30       2.8  T
   6    -84.3491306 -0.253019E-05  0.155E-03    0.30      10.0  T
   7    -84.3491308 -0.236158E-06  0.125E-04    0.30     123.8  T
   8    -84.3491308 -0.171026E-08  0.170E-05    0.30     908.0  T
     SCC iter.                  ...        0 min,  0.033 sec
     gradient                   ...        0 min,  0.084 sec
 * total energy  :   -83.6265381 Eh     change       -0.1436585E-04 Eh
   gradient norm :     0.0045972 Eh/α   predicted     0.0000000E+00 (-100.00%)
   displ. norm   :     0.0242197 α      lambda       -0.4132801E-04
   maximum displ.:     0.0072083 α      in ANC's #8, #5, #26, ...

........................................................................
.............................. CYCLE   44 ..............................
........................................................................
   1    -84.3512857 -0.843513E+02  0.665E-03    0.30       0.0  T
   2    -84.3511918  0.938737E-04  0.305E-02    0.30       1.0  T
   3    -84.3512896 -0.977486E-04  0.288E-03    0.30       5.3  T
   4    -84.3512888  0.747924E-06  0.359E-03    0.30       4.3  T
   5    -84.3512900 -0.113995E-05  0.559E-04    0.30      27.6  T
   6    -84.3512900 -0.264363E-08  0.204E-04    0.30      75.6  T
   7    -84.3512900 -0.351925E-08  0.242E-05    0.30     637.0  T
   8    -84.3512900 -0.141966E-10  0.129E-05    0.30    1194.0  T
     SCC iter.                  ...        0 min,  0.033 sec
     gradient                   ...        0 min,  0.084 sec
 * total energy  :   -83.6265684 Eh     change       -0.3037350E-04 Eh
   gradient norm :     0.0020087 Eh/α   predicted    -0.2136082E-04 ( -29.67%)
   displ. norm   :     0.0410402 α      lambda       -0.2718945E-04
   maximum displ.:     0.0142131 α      in ANC's #5, #23, #15, ...

........................................................................
.............................. CYCLE   45 ..............................
........................................................................
   1    -84.3526583 -0.843527E+02  0.599E-03    0.30       0.0  T
   2    -84.3526104  0.479028E-04  0.223E-02    0.30       1.0  T
   3    -84.3526601 -0.496952E-04  0.371E-03    0.30       4.2  T
   4    -84.3526607 -0.535890E-06  0.318E-03    0.30       4.9  T
   5    -84.3526616 -0.902700E-06  0.712E-04    0.30      21.7  T
   6    -84.3526616 -0.231130E-07  0.114E-04    0.30     134.9  T
   7    -84.3526616 -0.236355E-09  0.310E-05    0.30     497.5  T
     SCC iter.                  ...        0 min,  0.029 sec
     gradient                   ...        0 min,  0.084 sec
 * total energy  :   -83.6265870 Eh     change       -0.1860178E-04 Eh
   gradient norm :     0.0013940 Eh/α   predicted    -0.1361789E-04 ( -26.79%)
   displ. norm   :     0.0759302 α      lambda       -0.1783954E-04
   maximum displ.:     0.0262310 α      in ANC's #5, #15, #23, ...

........................................................................
.............................. CYCLE   46 ..............................
........................................................................
   1    -84.3529949 -0.843530E+02  0.665E-03    0.30       0.0  T
   2    -84.3529664  0.285445E-04  0.178E-02    0.30       1.0  T
   3    -84.3529891 -0.226799E-04  0.906E-03    0.29       1.7  T
   4    -84.3529981 -0.904545E-05  0.219E-03    0.30       7.1  T
   5    -84.3529985 -0.408195E-06  0.700E-04    0.30      22.1  T
   6    -84.3529986 -0.263222E-07  0.203E-04    0.30      75.9  T
   7    -84.3529986 -0.233905E-08  0.364E-05    0.30     423.4  T
   8    -84.3529986 -0.597424E-10  0.135E-05    0.30    1145.6  T
     SCC iter.                  ...        0 min,  0.033 sec
     gradient                   ...        0 min,  0.084 sec
 * total energy  :   -83.6266037 Eh     change       -0.1661175E-04 Eh
   gradient norm :     0.0022696 Eh/α   predicted    -0.8992267E-05 ( -45.87%)
   displ. norm   :     0.0399474 α      lambda       -0.1192295E-04
   maximum displ.:     0.0137232 α      in ANC's #15, #5, #23, ...

........................................................................
.............................. CYCLE   47 ..............................
........................................................................
   1    -84.3524194 -0.843524E+02  0.191E-03    0.30       0.0  T
   2    -84.3524104  0.905381E-05  0.928E-03    0.29       1.7  T
   3    -84.3524197 -0.935110E-05  0.951E-04    0.30      16.2  T
   4    -84.3524198 -0.437607E-07  0.564E-04    0.30      27.4  T
   5    -84.3524198 -0.164847E-07  0.205E-04    0.30      75.3  T
   6    -84.3524198 -0.171860E-08  0.584E-05    0.30     264.1  T
   7    -84.3524198 -0.266624E-09  0.113E-05    0.30    1360.5  T
     SCC iter.                  ...        0 min,  0.026 sec
     gradient                   ...        0 min,  0.088 sec
 * total energy  :   -83.6266132 Eh     change       -0.9509282E-05 Eh
   gradient norm :     0.0017967 Eh/α   predicted    -0.6039189E-05 ( -36.49%)
   displ. norm   :     0.1074626 α      lambda       -0.1578282E-04
   maximum displ.:     0.0386483 α      in ANC's #15, #5, #8, ...

........................................................................
.............................. CYCLE   48 ..............................
........................................................................
   1    -84.3508988 -0.843509E+02  0.538E-03    0.30       0.0  T
   2    -84.3508033  0.955050E-04  0.302E-02    0.29       1.0  T
   3    -84.3509010 -0.976858E-04  0.372E-03    0.30       4.2  T
   4    -84.3509018 -0.868785E-06  0.186E-03    0.30       8.3  T
   5    -84.3509021 -0.258764E-06  0.458E-04    0.30      33.7  T
   6    -84.3509021 -0.130129E-07  0.126E-04    0.30     122.1  T
   7    -84.3509021 -0.801876E-09  0.230E-05    0.30     670.4  T
     SCC iter.                  ...        0 min,  0.026 sec
     gradient                   ...        0 min,  0.087 sec
 * total energy  :   -83.6266212 Eh     change       -0.8040102E-05 Eh
   gradient norm :     0.0017613 Eh/α   predicted    -0.7932820E-05 (  -1.33%)
   displ. norm   :     0.0182777 α      lambda       -0.4658684E-05
   maximum displ.:     0.0071974 α      in ANC's #23, #26, #11, ...

........................................................................
.............................. CYCLE   49 ..............................
........................................................................
   1    -84.3516319 -0.843516E+02  0.232E-03    0.30       0.0  T
   2    -84.3516279  0.398028E-05  0.629E-03    0.30       2.5  T
   3    -84.3516310 -0.312652E-05  0.326E-03    0.30       4.7  T
   4    -84.3516321 -0.112626E-05  0.535E-04    0.30      28.9  T
   5    -84.3516321 -0.733949E-08  0.260E-04    0.30      59.3  T
   6    -84.3516322 -0.279597E-08  0.565E-05    0.30     272.9  T
   7    -84.3516322 -0.202519E-09  0.186E-05    0.30     827.8  T
     SCC iter.                  ...        0 min,  0.027 sec
     gradient                   ...        0 min,  0.075 sec
 * total energy  :   -83.6266259 Eh     change       -0.4736046E-05 Eh
   gradient norm :     0.0006776 Eh/α   predicted    -0.2364695E-05 ( -50.07%)
   displ. norm   :     0.0238913 α      lambda       -0.3198081E-05
   maximum displ.:     0.0122768 α      in ANC's #2, #4, #26, ...

   *** GEOMETRY OPTIMIZATION CONVERGED AFTER 49 ITERATIONS ***

------------------------------------------------------------------------
 total energy gain   :        -0.0215073 Eh      -13.4960 kcal/mol
 total RMSD          :         1.2217332 a0        0.6465 Å
 total power (kW/mol):        -1.1523974 (step)   -7.2671 (real)
------------------------------------------------------------------------

 ANCopt (total)                0 d,  0 h,  0 min,  7.770 sec
 optimizer setup                ...        0 min,  0.001 sec (  0.012%)
 model hessian                  ...        0 min,  0.125 sec (  1.612%)
 ANC generation                 ...        0 min,  0.008 sec (  0.107%)
 coordinate transformation      ...        0 min,  0.003 sec (  0.037%)
 single point calculation       ...        0 min,  7.600 sec ( 97.808%)
 optimization log               ...        0 min,  0.016 sec (  0.203%)
 hessian update                 ...        0 min,  0.002 sec (  0.029%)
 rational function              ...        0 min,  0.009 sec (  0.114%)

================
 final structure:
================
42
 xtb: 6.5.1 (579679a)
C           -6.47432995326278       -0.30551142140026        0.67963487528556
O           -5.29787178467291        0.09187425976607        0.00214039166904
C           -4.15133444904737       -0.56437253990164        0.37466455631071
O           -4.21300978079954       -1.42976037629307        1.25295059123870
C           -2.94190287215184       -0.16490696718280       -0.32743333661650
C           -2.93791173133704        0.82307459431391       -1.35385214127873
O           -3.92576931865632        1.52923341508407       -1.71622792160539
C           -1.63823432194624        0.96970279913280       -2.08846906317379
O           -1.50706300450173        1.60782359586376       -3.14571597988517
N           -0.56401784454235        0.31974207780156       -1.56418573907049
C           -0.56915632490700       -0.51396164438744       -0.37771443712752
C            0.24634651251351       -1.78245155784188       -0.70369398314307
C            0.16103076049277        0.28810225252575        0.83559016047790
C            0.05924302718355       -0.55817880190249        2.11024764090444
C           -0.55391568843251        1.62184364189725        1.06977181713501
N            1.56753346987549        0.47124972646483        0.55243792729459
C            2.16009361199968        1.44193158953877       -0.21271701503407
O            1.59848051007427        2.48095625087360       -0.61094130757476
C            3.55382455465035        1.16274940858401       -0.49415286318517
N            4.41033031887540        1.92344646738866       -1.15552239985101
N            5.60129279849828        1.24731424702012       -1.17257916379067
C            5.42019706921514        0.13634593960055       -0.53905080019668
C            6.41684740885121       -0.93381960508925       -0.29377700907543
O            4.15586548290061       -0.00093470188853       -0.07689848125699
N           -1.85079788449022       -0.89853624232021        0.05524557229338
H           -6.39264545791054       -0.11716511274072        1.75627471087474
H           -7.29909847200634        0.27919679790811        0.27078590005305
H           -6.67521608620186       -1.37267851989531        0.52991823679569
H            0.30519588754160        0.38922804063390       -2.06936294614503
H           -0.19573321691909       -2.27018548305370       -1.57167632776071
H            1.28368709365679       -1.54059920948960       -0.92639135804104
H            0.20928723584512       -2.47388478388255        0.13448331438287
H           -0.97024981886376       -0.89879884632013        2.23670825958351
H            0.35074305702134        0.03070046582718        2.97988982366876
H            0.71007345314807       -1.42947279199492        2.05662059573074
H           -1.55824630113046        1.42637777489491        1.44741338331371
H           -0.01212532928777        2.21054967948835        1.80990165479558
H           -0.63261944011132        2.20361686019769        0.15228420887569
H            2.15496722859132       -0.31180369271543        0.78767607087278
H            7.39259832351555       -0.61042258932566       -0.64839725617165
H            6.47373301242093       -1.15945468583060        0.77079491247735
H            6.12987926432352       -1.84677231134146       -0.81667907404646
 
 Bond Distances (Angstroems)
 ---------------------------
C1-O2=1.4146         C1-H26=1.0960        C1-H27=1.0905        C1-H28=1.0962        O2-C1=1.4146         O2-C3=1.3726         
C3-O2=1.3726         C3-O4=1.2345         C3-C5=1.4544         O4-C3=1.2345         C5-C3=1.4544         C5-C6=1.4247         
C5-N25=1.3694        C6-C5=1.4247         C6-O7=1.2672         C6-C8=1.5001         O7-C6=1.2672         C8-C6=1.5001         
C8-O9=1.2418         C8-N10=1.3606        O9-C8=1.2418         N10-C8=1.3606        N10-C11=1.4501       N10-H29=1.0078       
C11-N10=1.4501       C11-C12=1.5428       C11-C13=1.6274       C11-N25=1.4064       C12-C11=1.5428       C12-H30=1.0894       
C12-H31=1.0882       C12-H32=1.0872       C13-C11=1.6274       C13-C14=1.5334       C13-C15=1.5313       C13-N16=1.4464       
C14-C13=1.5334       C14-H33=1.0917       C14-H34=1.0900       C14-H35=1.0889       C15-C13=1.5313       C15-H36=1.0906       
C15-H37=1.0899       C15-H38=1.0892       N16-C13=1.4464       N16-C17=1.3707       N16-H39=1.0068       C17-N16=1.3707       
C17-O18=1.2464       C17-C19=1.4490       O18-C17=1.2464       C19-C17=1.4490       C19-N20=1.3228       C19-O24=1.3750       
N20-C19=1.3228       N20-N21=1.3696       N21-N20=1.3696       N21-C22=1.2917       C22-N21=1.2917       C22-C23=1.4828       
C22-O24=1.3531       C23-C22=1.4828       C23-H40=1.0874       C23-H41=1.0897       C23-H42=1.0905       O24-C19=1.3750       
O24-C22=1.3531       N25-C5=1.3694        N25-C11=1.4064       H26-C1=1.0960        H27-C1=1.0905        H28-C1=1.0962        
H29-N10=1.0078       H30-C12=1.0894       H31-C12=1.0882       H32-C12=1.0872       H33-C14=1.0917       H34-C14=1.0900       
H35-C14=1.0889       H36-C15=1.0906       H37-C15=1.0899       H38-C15=1.0892       H39-N16=1.0068       H40-C23=1.0874       
H41-C23=1.0897       H42-C23=1.0905       
 C  H  Rav=1.0904 sigma=0.0025  Rmin=1.0872  Rmax=1.0962    15
 C  C  Rav=1.5051 sigma=0.0583  Rmin=1.4247  Rmax=1.6274     9
 N  H  Rav=1.0073 sigma=0.0005  Rmin=1.0068  Rmax=1.0078     2
 N  C  Rav=1.3772 sigma=0.0520  Rmin=1.2917  Rmax=1.4501     8
 N  N  Rav=1.3696 sigma=0.0000  Rmin=1.3696  Rmax=1.3696     1
 O  C  Rav=1.3132 sigma=0.0681  Rmin=1.2345  Rmax=1.4146     8
 
 selected bond angles (degree)
 --------------------
H26-C1-O2=111.11               H27-C1-O2=107.39               H27-C1-H26=109.42              H28-C1-O2=111.13               
H28-C1-H26=108.37              H28-C1-H27=109.40              C3-O2-C1=115.49                O4-C3-O2=119.11                
C5-C3-O2=115.61                C5-C3-O4=125.28                C6-C5-C3=122.72                N25-C5-C3=112.37               
N25-C5-C6=124.79               O7-C6-C5=126.18                C8-C6-C5=115.03                C8-C6-O7=118.74                
O9-C8-C6=123.96                N10-C8-C6=116.66               N10-C8-O9=119.35               C11-N10-C8=125.95              
H29-N10-C8=117.06              H29-N10-C11=116.93             
 
 selected dihedral angles (degree)
 ---------------------------------
C3-O2-C1-H26= 61.50           C3-O2-C1-H27=181.13           C3-O2-C1-H28=300.75           O4-C3-O2-C1=359.74            
C5-C3-O2-C1=179.55            C6-C5-C3-O2=358.86            C6-C5-C3-O4=178.65            N25-C5-C3-O2=182.56           
N25-C5-C3-O4=  2.36           O7-C6-C5-C3=  5.21            O7-C6-C5-N25=181.04           C8-C6-C5-C3=187.92            
C8-C6-C5-N25=  3.75           O9-C8-C6-C5=167.49            O9-C8-C6-O7=349.98            N10-C8-C6-C5=349.58           
N10-C8-C6-O7=172.07           C11-N10-C8-C6=  1.04          C11-N10-C8-O9=183.04          H29-N10-C8-C6=178.04          
H29-N10-C8-O9=  0.04          
           -------------------------------------------------
          |                Final Singlepoint                |
           -------------------------------------------------

          ...................................................
          :                      SETUP                      :
          :.................................................:
          :  # basis functions                 134          :
          :  # atomic orbitals                 134          :
          :  # shells                           84          :
          :  # electrons                       136          :
          :  # halogen bonds                     0          :
          :  max. iterations                   250          :
          :  Hamiltonian                  GFN1-xTB          :
          :  restarted?                      false          :
          :  GBSA solvation                   true          :
          :  PC potential                    false          :
          :  electronic temp.          300.0000000     K    :
          :  accuracy                    1.0000000          :
          :  -> integral cutoff          0.2500000E+02      :
          :  -> integral neglect         0.1000000E-07      :
          :  -> SCF convergence          0.1000000E-05 Eh   :
          :  -> wf. convergence          0.2000000E-04 e    :
          :  Broyden damping             0.4000000          :
          ...................................................

 iter      E             dE          RMSdq      gap      omega  full diag
   1    -84.3516322 -0.843516E+02  0.353E-06    0.30       0.0  T
   2    -84.3516322  0.114255E-10  0.105E-05    0.30    1466.7  T
   3    -84.3516322 -0.111839E-10  0.301E-06    0.30    5123.8  T

   *** convergence criteria satisfied after 3 iterations ***

         #    Occupation            Energy/Eh            Energy/eV
      -------------------------------------------------------------
         1        2.0000           -0.8160863             -22.2068
       ...           ...                  ...                  ...
        62        2.0000           -0.4041323             -10.9970
        63        2.0000           -0.4010482             -10.9131
        64        2.0000           -0.3887157             -10.5775
        65        2.0000           -0.3712378             -10.1019
        66        2.0000           -0.3660308              -9.9602
        67        2.0000           -0.3352632              -9.1230
        68        1.9935           -0.2776657              -7.5557 (HOMO)
        69        0.0065           -0.2667734              -7.2593 (LUMO)
        70                         -0.2349698              -6.3939
        71                         -0.2187984              -5.9538
        72                         -0.1630982              -4.4381
        73                         -0.1475429              -4.0148
       ...                                ...                  ...
       134                          0.7421538              20.1950
      -------------------------------------------------------------
                  HL-Gap            0.0108923 Eh            0.2964 eV
             Fermi-level           -0.2722195 Eh           -7.4075 eV

 SCC (total)                   0 d,  0 h,  0 min,  0.132 sec
 SCC setup                      ...        0 min,  0.002 sec (  1.469%)
 Dispersion                     ...        0 min,  0.000 sec (  0.265%)
 classical contributions        ...        0 min,  0.000 sec (  0.085%)
 integral evaluation            ...        0 min,  0.036 sec ( 27.077%)
 iterations                     ...        0 min,  0.013 sec (  9.626%)
 molecular gradient             ...        0 min,  0.080 sec ( 60.698%)
 printout                       ...        0 min,  0.001 sec (  0.729%)

         :::::::::::::::::::::::::::::::::::::::::::::::::::::
         ::                     SUMMARY                     ::
         :::::::::::::::::::::::::::::::::::::::::::::::::::::
         :: total energy             -83.626625943090 Eh    ::
         :: total w/o Gsasa/hb       -83.608276881226 Eh    ::
         :: gradient norm              0.000678430362 Eh/a0 ::
         :: HOMO-LUMO gap              0.296394784103 eV    ::
         ::.................................................::
         :: SCC energy               -84.351632152857 Eh    ::
         :: -> electrostatic           0.715793546146 Eh    ::
         :: -> Gsolv                  -0.286276226733 Eh    ::
         ::    -> Gelec               -0.267927164870 Eh    ::
         ::    -> Gsasa               -0.023379490582 Eh    ::
         ::    -> Ghb                 -0.002593850286 Eh    ::
         ::    -> Gshift               0.007624279005 Eh    ::
         :: repulsion energy           0.752998989399 Eh    ::
         :: dispersion energy         -0.027992779632 Eh    ::
         :: halogen bond corr.         0.000000000000 Eh    ::
         :: add. restraining           0.000000000000 Eh    ::
         :: total charge              -2.000000000000 e     ::
         :::::::::::::::::::::::::::::::::::::::::::::::::::::

           -------------------------------------------------
          |                Property Printout                |
           -------------------------------------------------

    * Orbital Energies and Occupations

         #    Occupation            Energy/Eh            Energy/eV
      -------------------------------------------------------------
         1        2.0000           -0.8160863             -22.2068
       ...           ...                  ...                  ...
        56        2.0000           -0.4450186             -12.1096
        57        2.0000           -0.4368279             -11.8867
        58        2.0000           -0.4157342             -11.3127
        59        2.0000           -0.4147071             -11.2848
        60        2.0000           -0.4135049             -11.2520
        61        2.0000           -0.4087088             -11.1215
        62        2.0000           -0.4041323             -10.9970
        63        2.0000           -0.4010482             -10.9131
        64        2.0000           -0.3887157             -10.5775
        65        2.0000           -0.3712378             -10.1019
        66        2.0000           -0.3660308              -9.9602
        67        2.0000           -0.3352632              -9.1230
        68        1.9935           -0.2776657              -7.5557 (HOMO)
        69        0.0065           -0.2667734              -7.2593 (LUMO)
        70                         -0.2349698              -6.3939
        71                         -0.2187984              -5.9538
        72                         -0.1630982              -4.4381
        73                         -0.1475429              -4.0148
        74                         -0.1265937              -3.4448
        75                         -0.1121568              -3.0519
        76                         -0.1026552              -2.7934
        77                         -0.0959022              -2.6096
        78                         -0.0876991              -2.3864
        79                         -0.0788988              -2.1469
       ...                                ...                  ...
       134                          0.7421538              20.1950
      -------------------------------------------------------------
                  HL-Gap            0.0108923 Eh            0.2964 eV
             Fermi-level           -0.2722195 Eh           -7.4075 eV

  Mulliken/CM5 charges         n(s)   n(p)   n(d)
     1C     0.17835  0.05980   0.966  2.856  0.000
     2O    -0.44268 -0.52464   1.691  4.752  0.000
     3C     0.52365  0.58678   0.986  2.491  0.000
     4O    -0.64872 -0.69199   1.741  4.907  0.000
     5C     0.00866  0.08517   1.046  2.945  0.000
     6C     0.23471  0.27762   1.028  2.737  0.000
     7O    -0.69162 -0.72793   1.757  4.934  0.000
     8C     0.41792  0.52094   1.008  2.574  0.000
     9O    -0.66398 -0.70076   1.744  4.920  0.000
    10N    -0.36304 -0.71126   1.430  3.933  0.000
    11C     0.27162  0.37897   1.042  2.687  0.000
    12C    -0.10734 -0.24175   1.020  3.087  0.000
    13C     0.14682  0.18757   1.075  2.778  0.000
    14C    -0.09918 -0.23927   1.017  3.082  0.000
    15C    -0.08050 -0.21817   1.008  3.073  0.000
    16N    -0.35722 -0.71483   1.433  3.924  0.000
    17C     0.40423  0.50723   0.966  2.629  0.000
    18O    -0.65823 -0.69955   1.740  4.919  0.000
    19C     0.29124  0.40961   1.009  2.700  0.000
    20N    -0.30473 -0.40304   1.578  3.727  0.000
    21N    -0.30232 -0.41047   1.569  3.733  0.000
    22C     0.36687  0.47585   0.996  2.637  0.000
    23C    -0.11084 -0.24814   1.009  3.102  0.000
    24O    -0.39610 -0.45258   1.706  4.690  0.000
    25N    -0.53573 -0.71463   1.551  3.985  0.000
    26H     0.02245  0.08399   0.978  0.000  0.000
    27H     0.02246  0.08260   0.978  0.000  0.000
    28H     0.02229  0.08405   0.978  0.000  0.000
    29H     0.22238  0.42670   0.778  0.000  0.000
    30H     0.02392  0.08205   0.976  0.000  0.000
    31H     0.02013  0.08102   0.980  0.000  0.000
    32H     0.02658  0.08439   0.973  0.000  0.000
    33H     0.03495  0.09576   0.965  0.000  0.000
    34H     0.02137  0.07642   0.979  0.000  0.000
    35H     0.02576  0.08295   0.974  0.000  0.000
    36H     0.01994  0.07819   0.980  0.000  0.000
    37H     0.01787  0.07491   0.982  0.000  0.000
    38H     0.03499  0.10107   0.965  0.000  0.000
    39H     0.22756  0.43532   0.772  0.000  0.000
    40H     0.05238  0.10820   0.948  0.000  0.000
    41H     0.06110  0.11565   0.939  0.000  0.000
    42H     0.06202  0.11621   0.938  0.000  0.000

Wiberg/Mayer (AO) data.
largest (>0.10) Wiberg bond orders for each atom

 ---------------------------------------------------------------------------
     #   Z sym  total        # sym  WBO       # sym  WBO       # sym  WBO
 ---------------------------------------------------------------------------
     1   6 C    3.912 --    27 H    0.987    26 H    0.980    28 H    0.980
                             2 O    0.940
     2   8 O    2.133 --     3 C    1.012     1 C    0.940
     3   6 C    3.815 --     4 O    1.542     5 C    1.125     2 O    1.012
     4   8 O    1.813 --     3 C    1.542
     5   6 C    3.919 --     6 C    1.244    25 N    1.242     3 C    1.125
                             7 O    0.102
     6   6 C    3.908 --     7 O    1.426     5 C    1.244     8 C    0.992
     7   8 O    1.677 --     6 C    1.426     5 C    0.102
     8   6 C    3.876 --     9 O    1.516    10 N    1.203     6 C    0.992
     9   8 O    1.790 --     8 C    1.516    10 N    0.143
    10   7 N    3.322 --     8 C    1.203    11 C    0.933    29 H    0.913
                             9 O    0.143
    11   6 C    3.937 --    25 N    1.073    12 C    0.979    10 N    0.933
                            13 C    0.852
    12   6 C    3.992 --    30 H    0.985    31 H    0.985    32 H    0.984
                            11 C    0.979
    13   6 C    3.925 --    15 C    1.001    14 C    1.000    16 N    0.958
                            11 C    0.852
    14   6 C    3.994 --    13 C    1.000    34 H    0.986    35 H    0.982
                            33 H    0.978
    15   6 C    3.996 --    13 C    1.001    37 H    0.986    36 H    0.985
                            38 H    0.979
    16   7 N    3.312 --    17 C    1.169    13 C    0.958    39 H    0.912
                            18 O    0.141
    17   6 C    3.900 --    18 O    1.450    16 N    1.169    19 C    1.093
    18   8 O    1.784 --    17 C    1.450    16 N    0.141
    19   6 C    3.747 --    20 N    1.475    17 C    1.093    24 O    0.990
    20   7 N    2.814 --    19 C    1.475    21 N    1.181
    21   7 N    2.980 --    22 C    1.634    20 N    1.181
    22   6 C    3.833 --    21 N    1.634    24 O    1.048    23 C    1.025
    23   6 C    3.993 --    22 C    1.025    40 H    0.985    41 H    0.971
                            42 H    0.968
    24   8 O    2.223 --    22 C    1.048    19 C    0.990
    25   7 N    2.725 --     5 C    1.242    11 C    1.073
    26   1 H    1.018 --     1 C    0.980
    27   1 H    1.018 --     1 C    0.987
    28   1 H    1.018 --     1 C    0.980
    29   1 H    0.965 --    10 N    0.913
    30   1 H    1.016 --    12 C    0.985
    31   1 H    1.007 --    12 C    0.985
    32   1 H    1.015 --    12 C    0.984
    33   1 H    1.030 --    14 C    0.978
    34   1 H    1.006 --    14 C    0.986
    35   1 H    1.005 --    14 C    0.982
    36   1 H    1.014 --    15 C    0.985
    37   1 H    1.009 --    15 C    0.986
    38   1 H    1.028 --    15 C    0.979
    39   1 H    0.963 --    16 N    0.912
    40   1 H    1.003 --    23 C    0.985
    41   1 H    1.000 --    23 C    0.971
    42   1 H    1.000 --    23 C    0.968
 ---------------------------------------------------------------------------

Topologies differ in total number of bonds
Writing topology from bond orders to xtbtopo.mol

 dipole moment from electron density (au)
     X       Y       Z   
   6.5948  -5.7027   4.9350  total (Debye):   25.464

           -------------------------------------------------
          |                Geometry Summary                 |
           -------------------------------------------------

      molecular mass/u    :      351.3152409
   center of mass at/Å    :       -0.0921728       0.3509185      -0.3461669
  moments of inertia/u·Å² :        0.9027183E+03   0.4709724E+04   0.5103403E+04
rotational constants/cm⁻¹ :        0.1867430E-01   0.3579325E-02   0.3303214E-02

 * 36 selected distances

     #   Z          #   Z                                           value/Å
     1   6 C        2   8 O                                       1.4145559
     2   8 O        3   6 C                                       1.3725824
     3   6 C        4   8 O                                       1.2345390
     5   6 C        6   6 C                                       1.4246612
     8   6 C        9   8 O                                       1.2418435
     8   6 C       10   7 N                                       1.3606114
    10   7 N       11   6 C                                       1.4501044
    13   6 C       14   6 C                                       1.5333964 (max)
    13   6 C       15   6 C                                       1.5312923
    13   6 C       16   7 N                                       1.4463639
    16   7 N       17   6 C                                       1.3706981
    17   6 C       19   6 C                                       1.4490118
    19   6 C       20   7 N                                       1.3227517
    21   7 N       22   6 C                                       1.2916674
    22   6 C       23   6 C                                       1.4828101
    19   6 C       24   8 O                                       1.3750329
    22   6 C       24   8 O                                       1.3531317
     5   6 C       25   7 N                                       1.3693668
    11   6 C       25   7 N                                       1.4063988
     1   6 C       26   1 H                                       1.0960384
     1   6 C       27   1 H                                       1.0905432
     1   6 C       28   1 H                                       1.0961825
    10   7 N       29   1 H                                       1.0077525
    12   6 C       30   1 H                                       1.0893633
    12   6 C       31   1 H                                       1.0881923
    12   6 C       32   1 H                                       1.0871958
    14   6 C       33   1 H                                       1.0917280
    14   6 C       34   1 H                                       1.0899673
    14   6 C       35   1 H                                       1.0888570
    15   6 C       36   1 H                                       1.0906421
    15   6 C       37   1 H                                       1.0899101
    15   6 C       38   1 H                                       1.0892374
    16   7 N       39   1 H                                       1.0067712 (min)
    23   6 C       40   1 H                                       1.0873965
    23   6 C       41   1 H                                       1.0897067
    23   6 C       42   1 H                                       1.0905320

 * 5 distinct bonds (by element types)

   Z      Z             #   av. dist./Å        max./Å        min./Å
   1 H    6 C          15     1.0903662     1.0961825     1.0871958
   6 C    6 C           5     1.4842343     1.5333964     1.4246612
   1 H    7 N           2     1.0072618     1.0077525     1.0067712
   6 C    7 N           8     1.3772453     1.4501044     1.2916674
   6 C    8 O           6     1.3319476     1.4145559     1.2345390


optimized geometry written to: xtbopt.xyz


           -------------------------------------------------
          | TOTAL ENERGY              -83.626625943090 Eh   |
          | GRADIENT NORM               0.000678430362 Eh/α |
          | HOMO-LUMO GAP               0.296394784103 eV   |
           -------------------------------------------------

------------------------------------------------------------------------
 * finished run on 2023/06/21 at 17:15:19.233     
------------------------------------------------------------------------
 total:
 * wall-time:     0 d,  0 h,  0 min,  8.249 sec
 *  cpu-time:     0 d,  0 h,  0 min,  8.113 sec
 * ratio c/w:     0.983 speedup
 SCF:
 * wall-time:     0 d,  0 h,  0 min,  0.207 sec
 *  cpu-time:     0 d,  0 h,  0 min,  0.206 sec
 * ratio c/w:     0.995 speedup
 ANC optimizer:
 * wall-time:     0 d,  0 h,  0 min,  7.910 sec
 *  cpu-time:     0 d,  0 h,  0 min,  7.850 sec
 * ratio c/w:     0.992 speedup

