42
 energy: -83.626625943090 gnorm: 0.000678430362 xtb: 6.5.1 (579679a)
C           -6.47432995326278       -0.30551142140026        0.67963487528556
O           -5.29787178467291        0.09187425976607        0.00214039166904
C           -4.15133444904737       -0.56437253990164        0.37466455631071
O           -4.21300978079954       -1.42976037629307        1.25295059123870
C           -2.94190287215184       -0.16490696718280       -0.32743333661650
C           -2.93791173133704        0.82307459431391       -1.35385214127873
O           -3.92576931865632        1.52923341508407       -1.71622792160539
C           -1.63823432194624        0.96970279913280       -2.08846906317379
O           -1.50706300450173        1.60782359586376       -3.14571597988517
N           -0.56401784454235        0.31974207780156       -1.56418573907049
C           -0.56915632490700       -0.51396164438744       -0.37771443712752
C            0.24634651251351       -1.78245155784188       -0.70369398314307
C            0.16103076049277        0.28810225252575        0.83559016047790
C            0.05924302718355       -0.55817880190249        2.11024764090444
C           -0.55391568843251        1.62184364189725        1.06977181713501
N            1.56753346987549        0.47124972646483        0.55243792729459
C            2.16009361199968        1.44193158953877       -0.21271701503407
O            1.59848051007427        2.48095625087360       -0.61094130757476
C            3.55382455465035        1.16274940858401       -0.49415286318517
N            4.41033031887540        1.92344646738866       -1.15552239985101
N            5.60129279849828        1.24731424702012       -1.17257916379067
C            5.42019706921514        0.13634593960055       -0.53905080019668
C            6.41684740885121       -0.93381960508925       -0.29377700907543
O            4.15586548290061       -0.00093470188853       -0.07689848125699
N           -1.85079788449022       -0.89853624232021        0.05524557229338
H           -6.39264545791054       -0.11716511274072        1.75627471087474
H           -7.29909847200634        0.27919679790811        0.27078590005305
H           -6.67521608620186       -1.37267851989531        0.52991823679569
H            0.30519588754160        0.38922804063390       -2.06936294614503
H           -0.19573321691909       -2.27018548305370       -1.57167632776071
H            1.28368709365679       -1.54059920948960       -0.92639135804104
H            0.20928723584512       -2.47388478388255        0.13448331438287
H           -0.97024981886376       -0.89879884632013        2.23670825958351
H            0.35074305702134        0.03070046582718        2.97988982366876
H            0.71007345314807       -1.42947279199492        2.05662059573074
H           -1.55824630113046        1.42637777489491        1.44741338331371
H           -0.01212532928777        2.21054967948835        1.80990165479558
H           -0.63261944011132        2.20361686019769        0.15228420887569
H            2.15496722859132       -0.31180369271543        0.78767607087278
H            7.39259832351555       -0.61042258932566       -0.64839725617165
H            6.47373301242093       -1.15945468583060        0.77079491247735
H            6.12987926432352       -1.84677231134146       -0.81667907404646
