      -----------------------------------------------------------      
     |                   =====================                   |     
     |                           x T B                           |     
     |                   =====================                   |     
     |                         S. Grimme                         |     
     |          Mulliken Center for Theoretical Chemistry        |     
     |                    University of Bonn                     |     
      -----------------------------------------------------------      

   * xtb version 6.5.1 (579679a) compiled by 'ehlert@majestix' on 2022-07-11

   xtb is free software: you can redistribute it and/or modify it under
   the terms of the GNU Lesser General Public License as published by
   the Free Software Foundation, either version 3 of the License, or
   (at your option) any later version.
   
   xtb is distributed in the hope that it will be useful,
   but WITHOUT ANY WARRANTY; without even the implied warranty of
   MERCHANTABILITY or FITNESS FOR A PARTICULAR PURPOSE.  See the
   GNU Lesser General Public License for more details.
   
   Cite this work as:
   * C. Bannwarth, E. Caldeweyher, S. Ehlert, A. Hansen, P. Pracht,
     J. Seibert, S. Spicher, S. Grimme, WIREs Comput. Mol. Sci., 2020, 11,
     e01493. DOI: 10.1002/wcms.1493
   
   for GFN2-xTB:
   * C. Bannwarth, S. Ehlert and S. Grimme., J. Chem. Theory Comput., 2019,
     15, 1652-1671. DOI: 10.1021/acs.jctc.8b01176
   for GFN1-xTB:
   * S. Grimme, C. Bannwarth, P. Shushkov, J. Chem. Theory Comput., 2017,
     13, 1989-2009. DOI: 10.1021/acs.jctc.7b00118
   for GFN0-xTB:
   * P. Pracht, E. Caldeweyher, S. Ehlert, S. Grimme, ChemRxiv, 2019, preprint.
     DOI: 10.26434/chemrxiv.8326202.v1
   for GFN-FF:
   * S. Spicher and S. Grimme, Angew. Chem. Int. Ed., 2020, 59, 15665-15673.
     DOI: 10.1002/anie.202004239
   
   for ALPB and GBSA implicit solvation:
   * S. Ehlert, M. Stahn, S. Spicher, S. Grimme, J. Chem. Theory Comput.,
     2021, 17, 4250-4261. DOI: 10.1021/acs.jctc.1c00471
   
   for DFT-D4:
   * E. Caldeweyher, C. Bannwarth and S. Grimme, J. Chem. Phys., 2017,
     147, 034112. DOI: 10.1063/1.4993215
   * E. Caldeweyher, S. Ehlert, A. Hansen, H. Neugebauer, S. Spicher,
     C. Bannwarth and S. Grimme, J. Chem. Phys., 2019, 150, 154122.
     DOI: 10.1063/1.5090222
   * E. Caldeweyher, J.-M. Mewes, S. Ehlert and S. Grimme, Phys. Chem. Chem. Phys.
     2020, 22, 8499-8512. DOI: 10.1039/D0CP00502A
   
   for sTDA-xTB:
   * S. Grimme and C. Bannwarth, J. Chem. Phys., 2016, 145, 054103.
     DOI: 10.1063/1.4959605
   
   in the mass-spec context:
   * V. Asgeirsson, C. Bauer and S. Grimme, Chem. Sci., 2017, 8, 4879.
     DOI: 10.1039/c7sc00601b
   * J. Koopman and S. Grimme, ACS Omega 2019, 4, 12, 15120-15133.
     DOI: 10.1021/acsomega.9b02011
   
   for metadynamics refer to:
   * S. Grimme, J. Chem. Theory Comput., 2019, 155, 2847-2862
     DOI: 10.1021/acs.jctc.9b00143
   
   for SPH calculations refer to:
   * S. Spicher and S. Grimme, J. Chem. Theory Comput., 2021, 17, 1701-1714
     DOI: 10.1021/acs.jctc.0c01306
   
   with help from (in alphabetical order)
   P. Atkinson, C. Bannwarth, F. Bohle, G. Brandenburg, E. Caldeweyher
   M. Checinski, S. Dohm, S. Ehlert, S. Ehrlich, I. Gerasimov, C. Hölzer
   A. Katbashev, J. Koopman, C. Lavigne, S. Lehtola, F. März, M. Müller,
   F. Musil, H. Neugebauer, J. Pisarek, C. Plett, P. Pracht, F. Pultar,
   J. Seibert, P. Shushkov, S. Spicher, M. Stahn, M. Steiner, T. Strunk,
   J. Stückrath, T. Rose, and J. Unsleber
   
 * started run on 2023/06/20 at 14:59:03.692     

           -------------------------------------------------
          |                Calculation Setup                |
           -------------------------------------------------

          program call               : /lustre/hpc/kemi/ree/PhD/git/ReactivityQM/dep/xtb-6.5.1/bin/xtb --gfn 1 /lustre/hpc/kemi/ree/PhD/git/ReactivityQM/calculations/R01/reac02prodE04/conf19/R01_reac02prodE04_conf19_gfn1.xyz --opt --vfukui --chrg -1 --uhf 0 --alpb DMSO
          hostname                   : node312
          coordinate file            : /lustre/hpc/kemi/ree/PhD/git/ReactivityQM/calculations/R01/reac02prodE04/conf19/R01_reac02prodE04_conf19_gfn1.xyz
          omp threads                :                     1

   ID    Z sym.   atoms
    1    6 C      1, 3, 5, 6, 8, 11-14, 17
    2    8 O      2, 4, 7, 9
    3    7 N      10, 15, 16
    4    1 H      18-33

           -------------------------------------------------
          |                 G F N 1 - x T B                 |
           -------------------------------------------------

        Reference                      10.1021/acs.jctc.7b00118
      * Hamiltonian:
        H0-scaling (s, p, d)           1.850000    2.250000    2.000000
        zeta-weighting                 0.000000
      * Dispersion:
        s8                             2.400000
        a1                             0.630000
        a2                             5.000000
        s9                             0.000000
      * Repulsion:
        kExp                           1.500000
        rExp                           1.000000
      * Coulomb:
        alpha                          2.000000
        third order                    atomic
        anisotropic                    false
      * Halogen bond correction:
        rad-scale                      1.300000
        damping                        0.440000

      * Solvation model:               ALPB
        Solvent                        DMSO
        Parameter file                 internal GFN1-xTB/ALPB
        Dielectric constant                4.6680E+01
        Reference state                gsolv [1 M gas/solution]
        Free energy shift                  7.6243E-03 Eh       4.7843E+00 kcal/mol
        Temperature                        2.9815E+02 K
        Density                            1.1000E+00 kg/L
        Solvent mass                       7.8130E+01 g/mol
        Interaction kernel             P16
        Born radius scaling (c1)           1.7672E+00
        Born radii integrator          GBOBC
        Born offset                        0.0000E+00 a0       0.0000E+00 AA
        H-bond correction              true
        Ion screening                  false
        Surface tension                    1.0000E-05 Eh       1.5569E+01 dyn/cm
        Grid points                               230 per atom

          ...................................................
          :                      SETUP                      :
          :.................................................:
          :  # basis functions                 100          :
          :  # atomic orbitals                 100          :
          :  # shells                           66          :
          :  # electrons                        96          :
          :  # halogen bonds                     0          :
          :  max. iterations                   250          :
          :  Hamiltonian                  GFN1-xTB          :
          :  restarted?                      false          :
          :  GBSA solvation                   true          :
          :  PC potential                    false          :
          :  electronic temp.          300.0000000     K    :
          :  accuracy                    1.0000000          :
          :  -> integral cutoff          0.2500000E+02      :
          :  -> integral neglect         0.1000000E-07      :
          :  -> SCF convergence          0.1000000E-05 Eh   :
          :  -> wf. convergence          0.2000000E-04 e    :
          :  Broyden damping             0.4000000          :
          ...................................................

 iter      E             dE          RMSdq      gap      omega  full diag
   1    -58.8194659 -0.588195E+02  0.845E+00    1.34       0.0  T
   2    -58.7834126  0.360533E-01  0.541E+00    0.37       1.0  T
   3    -58.5132175  0.270195E+00  0.360E+00    2.24       1.0  T
   4    -58.8921227 -0.378905E+00  0.174E+00    1.48       1.0  T
   5    -58.9533040 -0.611812E-01  0.103E+00    0.88       1.0  T
   6    -58.9023957  0.509082E-01  0.128E+00    0.07       1.0  T
   7    -58.9756854 -0.732897E-01  0.795E-01    0.57       1.0  T
   8    -58.9822129 -0.652753E-02  0.683E-01    0.41       1.0  T
   9    -58.9961156 -0.139027E-01  0.433E-01    0.17       1.0  T
  10    -58.8198119  0.176304E+00  0.177E+00    0.18       1.0  T
  11    -58.9662651 -0.146453E+00  0.806E-01    0.02       1.0  T
  12    -58.9908415 -0.245764E-01  0.522E-01    0.23       1.0  T
  13    -59.0065730 -0.157315E-01  0.124E-01    0.09       1.0  T
  14    -59.0062761  0.296878E-03  0.141E-01    0.09       1.0  T
  15    -59.0075480 -0.127188E-02  0.204E-02    0.07       1.0  T
  16    -59.0073025  0.245494E-03  0.642E-02    0.08       1.0  T
  17    -59.0074726 -0.170061E-03  0.389E-02    0.08       1.0  T
  18    -59.0075582 -0.856043E-04  0.142E-02    0.07       1.2  T
  19    -59.0075566  0.153563E-05  0.149E-02    0.07       1.2  T
  20    -59.0075681 -0.114233E-04  0.682E-03    0.07       2.6  T
  21    -59.0075709 -0.284550E-05  0.154E-03    0.07      11.3  T
  22    -59.0075710 -0.145046E-06  0.380E-04    0.07      45.8  T
  23    -59.0075710 -0.569273E-08  0.239E-04    0.07      72.8  T
  24    -59.0075711 -0.307712E-08  0.998E-05    0.07     174.4  T
  25    -59.0075711 -0.631061E-09  0.132E-05    0.07    1316.1  T

   *** convergence criteria satisfied after 25 iterations ***

         #    Occupation            Energy/Eh            Energy/eV
      -------------------------------------------------------------
         1        2.0000           -0.7722798             -21.0148
       ...           ...                  ...                  ...
        42        2.0000           -0.4377004             -11.9104
        43        2.0000           -0.4120550             -11.2126
        44        2.0000           -0.4013691             -10.9218
        45        2.0000           -0.3931748             -10.6988
        46        2.0000           -0.3697475             -10.0613
        47        2.0000           -0.3537605              -9.6263
        48        1.5928           -0.2525349              -6.8718 (HOMO)
        49        0.4072           -0.2499436              -6.8013 (LUMO)
        50                         -0.1587686              -4.3203
        51                         -0.1192090              -3.2438
        52                         -0.1157556              -3.1499
        53                         -0.1072347              -2.9180
       ...                                ...                  ...
       100                          0.7218026              19.6412
      -------------------------------------------------------------
                  HL-Gap            0.0025913 Eh            0.0705 eV
             Fermi-level           -0.2512393 Eh           -6.8366 eV

 SCC (total)                   0 d,  0 h,  0 min,  0.129 sec
 SCC setup                      ...        0 min,  0.002 sec (  1.252%)
 Dispersion                     ...        0 min,  0.000 sec (  0.210%)
 classical contributions        ...        0 min,  0.000 sec (  0.073%)
 integral evaluation            ...        0 min,  0.025 sec ( 19.064%)
 iterations                     ...        0 min,  0.046 sec ( 35.779%)
 molecular gradient             ...        0 min,  0.056 sec ( 43.092%)
 printout                       ...        0 min,  0.001 sec (  0.494%)

         :::::::::::::::::::::::::::::::::::::::::::::::::::::
         ::                     SUMMARY                     ::
         :::::::::::::::::::::::::::::::::::::::::::::::::::::
         :: total energy             -58.474305941683 Eh    ::
         :: total w/o Gsasa/hb       -58.456872976320 Eh    ::
         :: gradient norm              0.150278117174 Eh/a0 ::
         :: HOMO-LUMO gap              0.070514194298 eV    ::
         ::.................................................::
         :: SCC energy               -59.007571053386 Eh    ::
         :: -> electrostatic           0.380240194451 Eh    ::
         :: -> Gsolv                  -0.117642890851 Eh    ::
         ::    -> Gelec               -0.100209925488 Eh    ::
         ::    -> Gsasa               -0.017903802004 Eh    ::
         ::    -> Ghb                 -0.007153442363 Eh    ::
         ::    -> Gshift               0.007624279005 Eh    ::
         :: repulsion energy           0.552750103828 Eh    ::
         :: dispersion energy         -0.019484992125 Eh    ::
         :: halogen bond corr.         0.000000000000 Eh    ::
         :: add. restraining           0.000000000000 Eh    ::
         :: total charge              -1.000000000000 e     ::
         :::::::::::::::::::::::::::::::::::::::::::::::::::::

      ----------------------------------------------------------- 
     |                   =====================                   |
     |                        A N C O P T                        |
     |                   =====================                   |
     |               Approximate Normal Coordinate               |
     |                Rational Function Optimizer                |
      ----------------------------------------------------------- 

          ...................................................
          :                      SETUP                      :
          :.................................................:
          :   optimization level            normal          :
          :   max. optcycles                   200          :
          :   ANC micro-cycles                  20          :
          :   degrees of freedom                93          :
          :.................................................:
          :   RF solver                   davidson          :
          :   write xtbopt.log                true          :
          :   linear?                        false          :
          :   energy convergence         0.5000000E-05 Eh   :
          :   grad. convergence          0.1000000E-02 Eh/α :
          :   maximium RF displ.         1.0000000          :
          :   Hlow (freq-cutoff)         0.1000000E-01      :
          :   Hmax (freq-cutoff)         5.0000000          :
          :   S6 in model hess.         20.0000000          :
          ...................................................

generating ANC from model Hessian ...
Using Lindh-Hessian (1995)
 Shifting diagonal of input Hessian by   9.490038472867609E-003
 Lowest  eigenvalues of input Hessian
    0.000000    0.000000    0.000000    0.000000    0.000000    0.000000
    0.010000    0.010840    0.011732    0.012348    0.013513    0.014603
    0.015495    0.016493    0.018681    0.019106    0.020033    0.020253
 Highest eigenvalues
    1.785839    1.799468    1.925168    2.044378    2.181910    2.322856
 

........................................................................
.............................. CYCLE    1 ..............................
........................................................................
   1    -59.0075711 -0.590076E+02  0.286E-06    0.07       0.0  T
   2    -59.0075711  0.577174E-10  0.297E-05    0.07     586.9  T
   3    -59.0075711 -0.582858E-10  0.374E-07    0.07   46525.0  T
     SCC iter.                  ...        0 min,  0.006 sec
     gradient                   ...        0 min,  0.055 sec
 * total energy  :   -58.4743059 Eh     change       -0.1126921E-10 Eh
   gradient norm :     0.1502764 Eh/α   predicted     0.0000000E+00 (-100.00%)
   displ. norm   :     0.2640548 α      lambda       -0.1915352E-01
   maximum displ.:     0.0881168 α      in ANC's #51, #23, #22, ...

........................................................................
.............................. CYCLE    2 ..............................
........................................................................
   1    -59.0034204 -0.590034E+02  0.433E-01    0.45       0.0  T
   2    -58.7526792  0.250741E+00  0.205E+00    0.25       1.0  T
   3    -59.0072127 -0.254534E+00  0.351E-01    0.31       1.0  T
   4    -59.0087662 -0.155349E-02  0.303E-01    0.26       1.0  T
   5    -59.0098131 -0.104691E-02  0.269E-01    0.23       1.0  T
   6    -59.0130279 -0.321481E-02  0.135E-01    0.15       1.0  T
   7    -59.0124320  0.595889E-03  0.159E-01    0.08       1.0  T
   8    -59.0140700 -0.163799E-02  0.274E-02    0.12       1.0  T
   9    -59.0141138 -0.438342E-04  0.696E-03    0.11       2.5  T
  10    -59.0141154 -0.158276E-05  0.368E-03    0.11       4.7  T
  11    -59.0141162 -0.751005E-06  0.117E-03    0.11      14.8  T
  12    -59.0141161  0.174948E-07  0.127E-03    0.11      13.7  T
  13    -59.0141162 -0.910150E-07  0.385E-04    0.11      45.2  T
  14    -59.0141162 -0.621876E-08  0.218E-04    0.11      79.7  T
  15    -59.0141162 -0.285529E-08  0.548E-05    0.11     317.4  T
  16    -59.0141162 -0.167411E-09  0.193E-05    0.11     900.0  T
     SCC iter.                  ...        0 min,  0.030 sec
     gradient                   ...        0 min,  0.055 sec
 * total energy  :   -58.4890332 Eh     change       -0.1472721E-01 Eh
   gradient norm :     0.0983685 Eh/α   predicted    -0.1025001E-01 ( -30.40%)
   displ. norm   :     0.3360102 α      lambda       -0.1679491E-01
   maximum displ.:     0.1163056 α      in ANC's #23, #22, #24, ...

........................................................................
.............................. CYCLE    3 ..............................
........................................................................
   1    -59.0295607 -0.590296E+02  0.252E-01    0.87       0.0  T
   2    -59.0327088 -0.314808E-02  0.886E-02    0.45       1.0  T
   3    -59.0329485 -0.239683E-03  0.271E-02    0.49       1.0  T
   4    -59.0329548 -0.636712E-05  0.133E-02    0.47       1.3  T
   5    -59.0329553 -0.508531E-06  0.792E-03    0.47       2.2  T
   6    -59.0329562 -0.875694E-06  0.176E-03    0.47       9.9  T
   7    -59.0329563 -0.629793E-07  0.861E-04    0.47      20.2  T
   8    -59.0329563 -0.180695E-07  0.251E-04    0.47      69.3  T
   9    -59.0329563 -0.107391E-08  0.868E-05    0.47     200.5  T
  10    -59.0329563 -0.604317E-10  0.182E-05    0.47     955.3  T
     SCC iter.                  ...        0 min,  0.013 sec
     gradient                   ...        0 min,  0.039 sec
 * total energy  :   -58.4982800 Eh     change       -0.9246873E-02 Eh
   gradient norm :     0.0536987 Eh/α   predicted    -0.9345564E-02 (   1.07%)
   displ. norm   :     0.1706027 α      lambda       -0.2153510E-02
   maximum displ.:     0.0682206 α      in ANC's #8, #3, #17, ...

........................................................................
.............................. CYCLE    4 ..............................
........................................................................
   1    -59.0361780 -0.590362E+02  0.722E-02    0.56       0.0  T
   2    -59.0363061 -0.128083E-03  0.492E-02    0.55       1.0  T
   3    -59.0363953 -0.892016E-04  0.712E-03    0.56       2.4  T
   4    -59.0363956 -0.240823E-06  0.393E-03    0.56       4.4  T
   5    -59.0363956 -0.491413E-08  0.144E-03    0.56      12.1  T
   6    -59.0363956 -0.383748E-07  0.260E-04    0.56      66.9  T
   7    -59.0363956 -0.100933E-08  0.856E-05    0.56     203.3  T
   8    -59.0363956 -0.130107E-09  0.345E-05    0.56     504.3  T
     SCC iter.                  ...        0 min,  0.015 sec
     gradient                   ...        0 min,  0.055 sec
 * total energy  :   -58.5000185 Eh     change       -0.1738443E-02 Eh
   gradient norm :     0.0343940 Eh/α   predicted    -0.1108116E-02 ( -36.26%)
   displ. norm   :     0.3615374 α      lambda       -0.2813179E-02
   maximum displ.:     0.1608197 α      in ANC's #8, #3, #17, ...

........................................................................
.............................. CYCLE    5 ..............................
........................................................................
   1    -59.0419706 -0.590420E+02  0.144E-01    0.69       0.0  T
   2    -59.0425431 -0.572516E-03  0.853E-02    0.69       1.0  T
   3    -59.0428068 -0.263689E-03  0.110E-02    0.69       1.6  T
   4    -59.0428072 -0.463230E-06  0.625E-03    0.70       2.8  T
   5    -59.0428072  0.318268E-07  0.214E-03    0.70       8.1  T
   6    -59.0428073 -0.108082E-06  0.519E-04    0.70      33.6  T
   7    -59.0428073 -0.394665E-08  0.153E-04    0.70     113.5  T
   8    -59.0428073 -0.233669E-09  0.461E-05    0.70     377.8  T
     SCC iter.                  ...        0 min,  0.015 sec
     gradient                   ...        0 min,  0.054 sec
 * total energy  :   -58.5018366 Eh     change       -0.1818170E-02 Eh
   gradient norm :     0.0129084 Eh/α   predicted    -0.1590446E-02 ( -12.52%)
   displ. norm   :     0.3066659 α      lambda       -0.1021737E-02
   maximum displ.:     0.1453121 α      in ANC's #3, #17, #8, ...

........................................................................
.............................. CYCLE    6 ..............................
........................................................................
   1    -59.0442910 -0.590443E+02  0.790E-02    0.77       0.0  T
   2    -59.0444605 -0.169445E-03  0.433E-02    0.79       1.0  T
   3    -59.0445263 -0.658363E-04  0.615E-03    0.78       2.8  T
   4    -59.0445265 -0.168707E-06  0.341E-03    0.78       5.1  T
   5    -59.0445265  0.564025E-08  0.106E-03    0.78      16.5  T
   6    -59.0445265 -0.281841E-07  0.309E-04    0.79      56.4  T
   7    -59.0445265 -0.137324E-08  0.921E-05    0.79     188.9  T
   8    -59.0445265 -0.810019E-10  0.218E-05    0.78     799.6  T
     SCC iter.                  ...        0 min,  0.015 sec
     gradient                   ...        0 min,  0.055 sec
 * total energy  :   -58.5026712 Eh     change       -0.8345889E-03 Eh
   gradient norm :     0.0181082 Eh/α   predicted    -0.5590536E-03 ( -33.01%)
   displ. norm   :     0.5343250 α      lambda       -0.1689760E-02
   maximum displ.:     0.2567356 α      in ANC's #3, #17, #8, ...

........................................................................
.............................. CYCLE    7 ..............................
........................................................................
   1    -59.0427054 -0.590427E+02  0.125E-01    0.83       0.0  T
   2    -59.0431457 -0.440280E-03  0.679E-02    0.88       1.0  T
   3    -59.0433018 -0.156105E-03  0.120E-02    0.87       1.5  T
   4    -59.0433022 -0.394064E-06  0.699E-03    0.87       2.5  T
   5    -59.0433022 -0.172476E-07  0.183E-03    0.87       9.5  T
   6    -59.0433023 -0.111198E-06  0.512E-04    0.87      34.0  T
   7    -59.0433023 -0.424572E-08  0.156E-04    0.87     111.6  T
   8    -59.0433023 -0.264407E-09  0.489E-05    0.87     356.1  T
     SCC iter.                  ...        0 min,  0.018 sec
     gradient                   ...        0 min,  0.055 sec
 * total energy  :   -58.5039594 Eh     change       -0.1288136E-02 Eh
   gradient norm :     0.0255751 Eh/α   predicted    -0.1086118E-02 ( -15.68%)
   displ. norm   :     0.4521740 α      lambda       -0.1479676E-02
   maximum displ.:     0.2262756 α      in ANC's #3, #17, #8, ...

........................................................................
.............................. CYCLE    8 ..............................
........................................................................
   1    -59.0425758 -0.590426E+02  0.863E-02    0.87       0.0  T
   2    -59.0428164 -0.240620E-03  0.543E-02    0.93       1.0  T
   3    -59.0429186 -0.102203E-03  0.110E-02    0.92       1.6  T
   4    -59.0429187 -0.446701E-07  0.668E-03    0.92       2.6  T
   5    -59.0429188 -0.171513E-06  0.123E-03    0.92      14.1  T
   6    -59.0429189 -0.522670E-07  0.355E-04    0.92      49.0  T
   7    -59.0429189 -0.157958E-08  0.111E-04    0.92     156.8  T
   8    -59.0429189 -0.164100E-09  0.300E-05    0.92     579.6  T
     SCC iter.                  ...        0 min,  0.016 sec
     gradient                   ...        0 min,  0.055 sec
 * total energy  :   -58.5050592 Eh     change       -0.1099874E-02 Eh
   gradient norm :     0.0270928 Eh/α   predicted    -0.8911542E-03 ( -18.98%)
   displ. norm   :     0.3283186 α      lambda       -0.1614203E-02
   maximum displ.:     0.1600512 α      in ANC's #3, #6, #1, ...

........................................................................
.............................. CYCLE    9 ..............................
........................................................................
   1    -59.0465972 -0.590466E+02  0.593E-02    0.85       0.0  T
   2    -59.0467599 -0.162620E-03  0.472E-02    0.90       1.0  T
   3    -59.0468373 -0.774328E-04  0.137E-02    0.89       1.3  T
   4    -59.0468378 -0.559035E-06  0.694E-03    0.89       2.5  T
   5    -59.0468382 -0.321569E-06  0.160E-03    0.89      10.9  T
   6    -59.0468382 -0.615086E-07  0.258E-04    0.89      67.6  T
   7    -59.0468382 -0.569386E-09  0.974E-05    0.89     178.8  T
   8    -59.0468382 -0.442100E-10  0.248E-05    0.89     702.0  T
     SCC iter.                  ...        0 min,  0.015 sec
     gradient                   ...        0 min,  0.056 sec
 * total energy  :   -58.5061238 Eh     change       -0.1064557E-02 Eh
   gradient norm :     0.0212252 Eh/α   predicted    -0.8941312E-03 ( -16.01%)
   displ. norm   :     0.4416599 α      lambda       -0.1237910E-02
   maximum displ.:     0.2086141 α      in ANC's #3, #2, #6, ...

........................................................................
.............................. CYCLE   10 ..............................
........................................................................
   1    -59.0443986 -0.590444E+02  0.575E-02    0.94       0.0  T
   2    -59.0445156 -0.116982E-03  0.408E-02    0.96       1.0  T
   3    -59.0445768 -0.611653E-04  0.105E-02    0.95       1.7  T
   4    -59.0445768 -0.384787E-07  0.560E-03    0.95       3.1  T
   5    -59.0445770 -0.156828E-06  0.697E-04    0.95      25.0  T
   6    -59.0445770 -0.141861E-07  0.290E-04    0.95      59.9  T
   7    -59.0445770 -0.102811E-08  0.102E-04    0.95     171.3  T
   8    -59.0445770 -0.861817E-10  0.230E-05    0.95     755.4  T
     SCC iter.                  ...        0 min,  0.011 sec
     gradient                   ...        0 min,  0.056 sec
 * total energy  :   -58.5069684 Eh     change       -0.8446418E-03 Eh
   gradient norm :     0.0222520 Eh/α   predicted    -0.7396923E-03 ( -12.43%)
   displ. norm   :     0.3141948 α      lambda       -0.1354230E-02
   maximum displ.:     0.1580572 α      in ANC's #3, #1, #2, ...

........................................................................
.............................. CYCLE   11 ..............................
........................................................................
   1    -59.0496481 -0.590496E+02  0.415E-02    0.97       0.0  T
   2    -59.0496973 -0.492506E-04  0.196E-02    0.95       1.0  T
   3    -59.0497041 -0.681483E-05  0.858E-03    0.95       2.0  T
   4    -59.0497043 -0.182603E-06  0.385E-03    0.95       4.5  T
   5    -59.0497043 -0.256750E-07  0.595E-04    0.95      29.2  T
   6    -59.0497043 -0.588637E-08  0.139E-04    0.95     125.4  T
   7    -59.0497043 -0.272614E-09  0.565E-05    0.95     307.8  T
     SCC iter.                  ...        0 min,  0.013 sec
     gradient                   ...        0 min,  0.056 sec
 * total energy  :   -58.5078226 Eh     change       -0.8542059E-03 Eh
   gradient norm :     0.0147217 Eh/α   predicted    -0.7439707E-03 ( -12.91%)
   displ. norm   :     0.4101794 α      lambda       -0.8051665E-03
   maximum displ.:     0.2383460 α      in ANC's #3, #1, #2, ...

........................................................................
.............................. CYCLE   12 ..............................
........................................................................
   1    -59.0492165 -0.590492E+02  0.497E-02    0.97       0.0  T
   2    -59.0492922 -0.757172E-04  0.285E-02    0.99       1.0  T
   3    -59.0493227 -0.304975E-04  0.563E-03    0.98       3.1  T
   4    -59.0493227 -0.557455E-07  0.346E-03    0.98       5.0  T
   5    -59.0493228 -0.610918E-07  0.685E-04    0.98      25.4  T
   6    -59.0493228 -0.192504E-07  0.213E-04    0.98      81.7  T
   7    -59.0493228 -0.498964E-09  0.687E-05    0.98     253.2  T
   8    -59.0493228 -0.259774E-10  0.130E-05    0.98    1341.8  T
     SCC iter.                  ...        0 min,  0.017 sec
     gradient                   ...        0 min,  0.050 sec
 * total energy  :   -58.5083765 Eh     change       -0.5538800E-03 Eh
   gradient norm :     0.0124016 Eh/α   predicted    -0.4703374E-03 ( -15.08%)
   displ. norm   :     0.2958082 α      lambda       -0.7070024E-03
   maximum displ.:     0.1745487 α      in ANC's #3, #1, #2, ...

........................................................................
.............................. CYCLE   13 ..............................
........................................................................
   1    -59.0530158 -0.590530E+02  0.315E-02    1.03       0.0  T
   2    -59.0530514 -0.356250E-04  0.168E-02    1.01       1.0  T
   3    -59.0530606 -0.922677E-05  0.424E-03    1.01       4.1  T
   4    -59.0530607 -0.947266E-07  0.287E-03    1.01       6.1  T
   5    -59.0530607 -0.389828E-07  0.479E-04    1.01      36.3  T
   6    -59.0530607 -0.519591E-08  0.139E-04    1.01     125.3  T
   7    -59.0530607 -0.287301E-09  0.409E-05    1.01     425.7  T
     SCC iter.                  ...        0 min,  0.009 sec
     gradient                   ...        0 min,  0.035 sec
 * total energy  :   -58.5088147 Eh     change       -0.4382243E-03 Eh
   gradient norm :     0.0142788 Eh/α   predicted    -0.3844407E-03 ( -12.27%)
   displ. norm   :     0.3385842 α      lambda       -0.4926631E-03
   maximum displ.:     0.2180242 α      in ANC's #3, #2, #1, ...

........................................................................
.............................. CYCLE   14 ..............................
........................................................................
   1    -59.0508685 -0.590509E+02  0.249E-02    1.00       0.0  T
   2    -59.0508875 -0.190406E-04  0.146E-02    1.01       1.2  T
   3    -59.0508948 -0.727347E-05  0.388E-03    1.00       4.5  T
   4    -59.0508948  0.800902E-08  0.178E-03    1.00       9.8  T
   5    -59.0508948 -0.311563E-07  0.386E-04    1.00      45.2  T
   6    -59.0508948 -0.481327E-08  0.858E-05    1.00     202.8  T
   7    -59.0508948 -0.795239E-10  0.264E-05    1.00     659.8  T
     SCC iter.                  ...        0 min,  0.014 sec
     gradient                   ...        0 min,  0.052 sec
 * total energy  :   -58.5091480 Eh     change       -0.3332632E-03 Eh
   gradient norm :     0.0106842 Eh/α   predicted    -0.2745756E-03 ( -17.61%)
   displ. norm   :     0.3359418 α      lambda       -0.5251846E-03
   maximum displ.:     0.1751296 α      in ANC's #3, #2, #1, ...

........................................................................
.............................. CYCLE   15 ..............................
........................................................................
   1    -59.0495942 -0.590496E+02  0.148E-02    1.00       0.0  T
   2    -59.0495987 -0.455243E-05  0.726E-03    1.01       2.4  T
   3    -59.0495999 -0.114934E-05  0.356E-03    1.00       4.9  T
   4    -59.0495999 -0.762147E-07  0.110E-03    1.01      15.8  T
   5    -59.0495999 -0.536552E-08  0.374E-04    1.01      46.6  T
   6    -59.0495999 -0.404296E-08  0.115E-04    1.01     151.4  T
   7    -59.0495999 -0.182347E-09  0.197E-05    1.01     884.4  T
     SCC iter.                  ...        0 min,  0.013 sec
     gradient                   ...        0 min,  0.052 sec
 * total energy  :   -58.5094778 Eh     change       -0.3297589E-03 Eh
   gradient norm :     0.0111352 Eh/α   predicted    -0.2922327E-03 ( -11.38%)
   displ. norm   :     0.2221361 α      lambda       -0.3751129E-03
   maximum displ.:     0.1336045 α      in ANC's #2, #1, #3, ...

........................................................................
.............................. CYCLE   16 ..............................
........................................................................
   1    -59.0524873 -0.590525E+02  0.176E-02    1.03       0.0  T
   2    -59.0524935 -0.626084E-05  0.822E-03    1.03       2.1  T
   3    -59.0524941 -0.589632E-06  0.377E-03    1.03       4.6  T
   4    -59.0524942 -0.527588E-07  0.158E-03    1.03      11.0  T
   5    -59.0524942 -0.202278E-07  0.422E-04    1.03      41.3  T
   6    -59.0524942 -0.544087E-08  0.827E-05    1.03     210.6  T
   7    -59.0524942 -0.876881E-10  0.337E-05    1.03     516.8  T
     SCC iter.                  ...        0 min,  0.013 sec
     gradient                   ...        0 min,  0.054 sec
 * total energy  :   -58.5096429 Eh     change       -0.1651591E-03 Eh
   gradient norm :     0.0089414 Eh/α   predicted    -0.1968294E-03 (  19.18%)
   displ. norm   :     0.1203145 α      lambda       -0.1706313E-03
   maximum displ.:     0.0714709 α      in ANC's #2, #1, #8, ...

........................................................................
.............................. CYCLE   17 ..............................
........................................................................
   1    -59.0518771 -0.590519E+02  0.203E-02    1.02       0.0  T
   2    -59.0518899 -0.127943E-04  0.964E-03    1.03       1.8  T
   3    -59.0518932 -0.330543E-05  0.320E-03    1.03       5.4  T
   4    -59.0518933 -0.919251E-07  0.178E-03    1.03       9.8  T
   5    -59.0518933 -0.425540E-08  0.352E-04    1.03      49.5  T
   6    -59.0518933 -0.496396E-08  0.151E-04    1.03     115.4  T
   7    -59.0518933 -0.301114E-09  0.370E-05    1.03     470.0  T
     SCC iter.                  ...        0 min,  0.013 sec
     gradient                   ...        0 min,  0.054 sec
 * total energy  :   -58.5097499 Eh     change       -0.1069455E-03 Eh
   gradient norm :     0.0048588 Eh/α   predicted    -0.8655269E-04 ( -19.07%)
   displ. norm   :     0.0895175 α      lambda       -0.8155344E-04
   maximum displ.:     0.0606250 α      in ANC's #2, #1, #8, ...

........................................................................
.............................. CYCLE   18 ..............................
........................................................................
   1    -59.0531523 -0.590532E+02  0.984E-03    1.04       0.0  T
   2    -59.0531550 -0.271957E-05  0.426E-03    1.04       4.1  T
   3    -59.0531556 -0.547208E-06  0.177E-03    1.04       9.9  T
   4    -59.0531556 -0.161939E-07  0.872E-04    1.04      20.0  T
   5    -59.0531556 -0.116179E-08  0.226E-04    1.04      77.1  T
   6    -59.0531556 -0.160694E-08  0.613E-05    1.04     283.8  T
   7    -59.0531556 -0.812079E-10  0.162E-05    1.04    1072.4  T
     SCC iter.                  ...        0 min,  0.013 sec
     gradient                   ...        0 min,  0.044 sec
 * total energy  :   -58.5098066 Eh     change       -0.5677134E-04 Eh
   gradient norm :     0.0046159 Eh/α   predicted    -0.4110553E-04 ( -27.59%)
   displ. norm   :     0.1343809 α      lambda       -0.7984522E-04
   maximum displ.:     0.0910861 α      in ANC's #2, #8, #1, ...

........................................................................
.............................. CYCLE   19 ..............................
........................................................................
   1    -59.0537376 -0.590537E+02  0.902E-03    1.04       0.0  T
   2    -59.0537404 -0.279701E-05  0.605E-03    1.05       2.9  T
   3    -59.0537414 -0.107662E-05  0.244E-03    1.05       7.1  T
   4    -59.0537414 -0.321661E-08  0.106E-03    1.05      16.4  T
   5    -59.0537414 -0.465077E-08  0.207E-04    1.05      84.3  T
   6    -59.0537414 -0.843585E-09  0.565E-05    1.05     308.0  T
   7    -59.0537414 -0.525091E-10  0.214E-05    1.05     812.5  T
     SCC iter.                  ...        0 min,  0.014 sec
     gradient                   ...        0 min,  0.052 sec
 * total energy  :   -58.5098513 Eh     change       -0.4468391E-04 Eh
   gradient norm :     0.0047562 Eh/α   predicted    -0.4064743E-04 (  -9.03%)
   displ. norm   :     0.1277248 α      lambda       -0.5525554E-04
   maximum displ.:     0.1006819 α      in ANC's #2, #1, #8, ...

........................................................................
.............................. CYCLE   20 ..............................
........................................................................
   1    -59.0530909 -0.590531E+02  0.125E-02    1.06       0.0  T
   2    -59.0530969 -0.603021E-05  0.803E-03    1.07       2.2  T
   3    -59.0530990 -0.207648E-05  0.229E-03    1.07       7.6  T
   4    -59.0530990 -0.313402E-08  0.139E-03    1.07      12.5  T
   5    -59.0530990 -0.923004E-08  0.315E-04    1.07      55.2  T
   6    -59.0530990 -0.266770E-08  0.743E-05    1.07     234.4  T
   7    -59.0530990 -0.134456E-09  0.220E-05    1.07     789.8  T
     SCC iter.                  ...        0 min,  0.013 sec
     gradient                   ...        0 min,  0.053 sec
 * total energy  :   -58.5098754 Eh     change       -0.2410282E-04 Eh
   gradient norm :     0.0041970 Eh/α   predicted    -0.2808477E-04 (  16.52%)
   displ. norm   :     0.0813809 α      lambda       -0.4718811E-04
   maximum displ.:     0.0441187 α      in ANC's #3, #6, #8, ...
 * RMSD in coord.:     0.7687740 α      energy gain  -0.3556949E-01 Eh

generating ANC from model Hessian ...
Using Lindh-Hessian (1995)
 Shifting diagonal of input Hessian by   9.416249797468419E-003
 Lowest  eigenvalues of input Hessian
    0.000000    0.000000    0.000000    0.000000    0.000000    0.000000
    0.010000    0.010598    0.011423    0.012851    0.013253    0.014201
    0.014781    0.016338    0.018485    0.019146    0.020129    0.020183
 Highest eigenvalues
    1.698922    1.780259    1.972834    2.088995    2.201407    2.298509
 

........................................................................
.............................. CYCLE   21 ..............................
........................................................................
   1    -59.0542213 -0.590542E+02  0.698E-03    1.06       0.0  T
   2    -59.0542225 -0.113641E-05  0.343E-03    1.05       5.1  T
   3    -59.0542226 -0.183917E-06  0.183E-03    1.06       9.5  T
   4    -59.0542226 -0.129147E-07  0.751E-04    1.05      23.2  T
   5    -59.0542227 -0.583849E-08  0.150E-04    1.05     115.7  T
   6    -59.0542227 -0.473470E-09  0.476E-05    1.05     365.9  T
     SCC iter.                  ...        0 min,  0.012 sec
     gradient                   ...        0 min,  0.051 sec
 * total energy  :   -58.5098998 Eh     change       -0.2441023E-04 Eh
   gradient norm :     0.0034341 Eh/α   predicted     0.0000000E+00 (-100.00%)
   displ. norm   :     0.0274341 α      lambda       -0.2829025E-04
   maximum displ.:     0.0125685 α      in ANC's #2, #4, #11, ...

........................................................................
.............................. CYCLE   22 ..............................
........................................................................
   1    -59.0533760 -0.590534E+02  0.249E-03    1.05       0.0  T
   2    -59.0533761 -0.102356E-06  0.142E-03    1.05      12.2  T
   3    -59.0533761 -0.204089E-07  0.672E-04    1.05      25.9  T
   4    -59.0533761 -0.158949E-08  0.213E-04    1.05      81.6  T
   5    -59.0533761 -0.560810E-09  0.599E-05    1.05     290.4  T
   6    -59.0533761 -0.699671E-10  0.210E-05    1.05     827.5  T
     SCC iter.                  ...        0 min,  0.011 sec
     gradient                   ...        0 min,  0.053 sec
 * total energy  :   -58.5099213 Eh     change       -0.2144213E-04 Eh
   gradient norm :     0.0015592 Eh/α   predicted    -0.1437520E-04 ( -32.96%)
   displ. norm   :     0.0809325 α      lambda       -0.2708443E-04
   maximum displ.:     0.0451428 α      in ANC's #2, #11, #4, ...

........................................................................
.............................. CYCLE   23 ..............................
........................................................................
   1    -59.0521840 -0.590522E+02  0.440E-03    1.04       0.0  T
   2    -59.0521844 -0.327455E-06  0.239E-03    1.05       7.3  T
   3    -59.0521844 -0.516520E-07  0.112E-03    1.05      15.6  T
   4    -59.0521844 -0.715080E-08  0.417E-04    1.05      41.7  T
   5    -59.0521844 -0.244878E-08  0.113E-04    1.05     154.1  T
   6    -59.0521844 -0.190830E-09  0.383E-05    1.05     455.0  T
     SCC iter.                  ...        0 min,  0.012 sec
     gradient                   ...        0 min,  0.053 sec
 * total energy  :   -58.5099417 Eh     change       -0.2042145E-04 Eh
   gradient norm :     0.0023970 Eh/α   predicted    -0.1358202E-04 ( -33.49%)
   displ. norm   :     0.0278314 α      lambda       -0.9797268E-05
   maximum displ.:     0.0168109 α      in ANC's #2, #3, #11, ...

........................................................................
.............................. CYCLE   24 ..............................
........................................................................
   1    -59.0524973 -0.590525E+02  0.145E-03    1.05       0.0  T
   2    -59.0524974 -0.546556E-07  0.682E-04    1.05      25.5  T
   3    -59.0524974 -0.133203E-07  0.260E-04    1.05      66.9  T
   4    -59.0524974 -0.260719E-09  0.102E-04    1.05     171.1  T
   5    -59.0524974 -0.834603E-10  0.312E-05    1.05     558.6  T
     SCC iter.                  ...        0 min,  0.010 sec
     gradient                   ...        0 min,  0.053 sec
 * total energy  :   -58.5099507 Eh     change       -0.9018125E-05 Eh
   gradient norm :     0.0018665 Eh/α   predicted    -0.5140866E-05 ( -42.99%)
   displ. norm   :     0.1384278 α      lambda       -0.2723387E-04
   maximum displ.:     0.0836268 α      in ANC's #2, #3, #11, ...

........................................................................
.............................. CYCLE   25 ..............................
........................................................................
   1    -59.0535534 -0.590536E+02  0.678E-03    1.06       0.0  T
   2    -59.0535546 -0.126240E-05  0.311E-03    1.06       5.6  T
   3    -59.0535549 -0.300302E-06  0.101E-03    1.06      17.2  T
   4    -59.0535549 -0.404123E-08  0.420E-04    1.06      41.4  T
   5    -59.0535549 -0.128349E-08  0.129E-04    1.06     135.3  T
   6    -59.0535549 -0.402018E-09  0.509E-05    1.06     341.8  T
     SCC iter.                  ...        0 min,  0.012 sec
     gradient                   ...        0 min,  0.053 sec
 * total energy  :   -58.5099682 Eh     change       -0.1749984E-04 Eh
   gradient norm :     0.0018573 Eh/α   predicted    -0.1373510E-04 ( -21.51%)
   displ. norm   :     0.0143979 α      lambda       -0.4376136E-05
   maximum displ.:     0.0078472 α      in ANC's #2, #6, #3, ...

........................................................................
.............................. CYCLE   26 ..............................
........................................................................
   1    -59.0534526 -0.590535E+02  0.150E-03    1.06       0.0  T
   2    -59.0534526 -0.498183E-07  0.778E-04    1.06      22.4  T
   3    -59.0534526 -0.384935E-08  0.407E-04    1.06      42.7  T
   4    -59.0534526 -0.119527E-08  0.180E-04    1.06      97.0  T
   5    -59.0534526 -0.396398E-09  0.271E-05    1.06     642.8  T
     SCC iter.                  ...        0 min,  0.010 sec
     gradient                   ...        0 min,  0.053 sec
 * total energy  :   -58.5099729 Eh     change       -0.4670808E-05 Eh
   gradient norm :     0.0008479 Eh/α   predicted    -0.2188515E-05 ( -53.14%)
   displ. norm   :     0.0351840 α      lambda       -0.3638660E-05
   maximum displ.:     0.0229774 α      in ANC's #2, #3, #11, ...

   *** GEOMETRY OPTIMIZATION CONVERGED AFTER 26 ITERATIONS ***

------------------------------------------------------------------------
 total energy gain   :        -0.0356670 Eh      -22.3814 kcal/mol
 total RMSD          :         0.7752789 a0        0.4103 Å
 total power (kW/mol):        -3.6016759 (step)  -38.4623 (real)
------------------------------------------------------------------------

 ANCopt (total)                0 d,  0 h,  0 min,  2.435 sec
 optimizer setup                ...        0 min,  0.001 sec (  0.031%)
 model hessian                  ...        0 min,  0.054 sec (  2.211%)
 ANC generation                 ...        0 min,  0.003 sec (  0.120%)
 coordinate transformation      ...        0 min,  0.001 sec (  0.025%)
 single point calculation       ...        0 min,  2.364 sec ( 97.089%)
 optimization log               ...        0 min,  0.006 sec (  0.239%)
 hessian update                 ...        0 min,  0.001 sec (  0.022%)
 rational function              ...        0 min,  0.004 sec (  0.166%)

================
 final structure:
================
33
 xtb: 6.5.1 (579679a)
C            4.78887229196686        0.03814164587573       -1.17063707131236
O            3.66917615234839       -0.52131470873200       -0.51392303067322
C            2.51341051656501        0.29902439794464       -0.52282059907806
O            2.57691702589853        1.40647071722425       -1.11411685896309
C            1.45178681408399       -0.26626256168648        0.15864113901199
C            1.43983829464893       -1.58301842414394        0.83164931392622
O            2.55152561100625       -1.93738082823883        1.63630998103019
C            0.30979246720828       -2.32392111501018        0.84521101665575
O           -0.06518344397542       -3.39487168600043        1.39010907618468
N           -0.77566696280643       -1.64221570566098        0.01521174976905
C           -0.92357691241841       -0.30496982947575        0.13612534185460
C           -2.33333633217455        0.28647298401950        0.12749841328625
C           -2.57246802651219        1.01755568791601       -1.20184718798505
C           -3.41292553294141       -0.79609157099796        0.28861483129325
N           -2.47114813659373        1.24125916654032        1.23193782330574
N            0.18233162509029        0.40806680209049        0.16580060319559
C            0.21948731646425        1.86765661525489        0.22179748374757
H            5.60124344156563       -0.68758436792284       -1.10672571365375
H            4.57200324052162        0.24246573855312       -2.22703074204888
H            5.10446622676034        0.97551778942578       -0.69519959938846
H            3.35859238951567       -1.78477699848803        1.12143468765162
H           -1.62597161423962       -2.18318718846213        0.06509468276481
H           -3.60182180051009        1.36990096390653       -1.24482174813509
H           -2.40176595669751        0.33717185026458       -2.03578950704933
H           -1.91168564389187        1.87573183176495       -1.30642018257614
H           -3.24158191984311       -1.38898970577274        1.18600966765332
H           -3.45221943300956       -1.45193195762021       -0.57992531620073
H           -4.38015065429638       -0.30633127254893        0.38609671995072
H           -2.56547324321034        0.73696650765286        2.10408094770738
H           -3.32343844039165        1.76441070681023        1.09806567411219
H            1.09826248306952        2.17741034306564        0.78699744284370
H            0.29273833341179        2.27541081931167       -0.78783733660116
H           -0.67203117661520        2.25321035313887        0.71040929772129
 
 Bond Distances (Angstroems)
 ---------------------------
C1-O2=1.4135         C1-H18=1.0912        C1-H19=1.0976        C1-H20=1.0974        O2-C1=1.4135         O2-C3=1.4173         
C3-O2=1.4173         C3-O4=1.2570         C3-C5=1.3824         O4-C3=1.2570         C5-C3=1.3824         C5-C6=1.4788         
C5-N16=1.4375        C6-C5=1.4788         C6-O7=1.4174         C6-C8=1.3513         O7-C6=1.4174         O7-H21=0.9694        
C8-C6=1.3513         C8-O9=1.2588         C8-N10=1.5270        O9-C8=1.2588         N10-C8=1.5270        N10-C11=1.3508       
N10-H22=1.0090       C11-N10=1.3508       C11-C12=1.5288       C11-N16=1.3162       C12-C11=1.5288       C12-C13=1.5358       
C12-C14=1.5373       C12-N15=1.4664       C13-C12=1.5358       C13-H23=1.0888       C13-H24=1.0897       C13-H25=1.0881       
C14-C12=1.5373       C14-H26=1.0891       C14-H27=1.0891       C14-H28=1.0885       N15-C12=1.4664       N15-H29=1.0119       
N15-H30=1.0090       N16-C5=1.4375        N16-C11=1.3162       N16-C17=1.4611       C17-N16=1.4611       C17-H31=1.0898       
C17-H32=1.0913       C17-H33=1.0873       H18-C1=1.0912        H19-C1=1.0976        H20-C1=1.0974        H21-O7=0.9694        
H22-N10=1.0090       H23-C13=1.0888       H24-C13=1.0897       H25-C13=1.0881       H26-C14=1.0891       H27-C14=1.0891       
H28-C14=1.0885       H29-N15=1.0119       H30-N15=1.0090       H31-C17=1.0898       H32-C17=1.0913       H33-C17=1.0873       
 C  H  Rav=1.0907 sigma=0.0033  Rmin=1.0873  Rmax=1.0976    12
 C  C  Rav=1.4691 sigma=0.0755  Rmin=1.3513  Rmax=1.5373     6
 N  H  Rav=1.0100 sigma=0.0013  Rmin=1.0090  Rmax=1.0119     3
 N  C  Rav=1.4265 sigma=0.0718  Rmin=1.3162  Rmax=1.5270     6
 O  H  Rav=0.9694 sigma=0.0000  Rmin=0.9694  Rmax=0.9694     1
 O  C  Rav=1.3528 sigma=0.0775  Rmin=1.2570  Rmax=1.4174     5
 
 selected bond angles (degree)
 --------------------
H18-C1-O2=107.41               H19-C1-O2=111.37               H19-C1-H18=109.10              H20-C1-O2=111.38               
H20-C1-H18=109.18              H20-C1-H19=108.35              C3-O2-C1=114.45                O4-C3-O2=118.14                
C5-C3-O2=112.73                C5-C3-O4=129.12                C6-C5-C3=126.49                N16-C5-C3=119.26               
N16-C5-C6=114.10               O7-C6-C5=118.34                C8-C6-C5=119.97                C8-C6-O7=120.87                
H21-O7-C6=108.19               O9-C8-C6=136.05                N10-C8-C6=110.13               N10-C8-O9=113.79               
C11-N10-C8=118.11              H22-N10-C8=109.44              H22-N10-C11=115.72             
 
 selected dihedral angles (degree)
 ---------------------------------
C3-O2-C1-H18=180.74           C3-O2-C1-H19=300.14           C3-O2-C1-H20= 61.22           O4-C3-O2-C1=  1.13            
C5-C3-O2-C1=181.61            C6-C5-C3-O2=359.19            C6-C5-C3-O4=179.73            N16-C5-C3-O2=183.92           
N16-C5-C3-O4=  4.46           O7-C6-C5-C3= 44.76            O7-C6-C5-N16=220.24           C8-C6-C5-C3=214.45            
C8-C6-C5-N16= 29.94           H21-O7-C6-C5=309.93           H21-O7-C6-C8=140.33           O9-C8-C6-C5=186.53            
O9-C8-C6-O7=355.96            N10-C8-C6-C5=  4.33           N10-C8-C6-O7=173.76           C11-N10-C8-C6=317.69          
C11-N10-C8-O9=136.03          H22-N10-C8-C6=182.43          H22-N10-C8-O9=  0.77          
           -------------------------------------------------
          |                Final Singlepoint                |
           -------------------------------------------------

          ...................................................
          :                      SETUP                      :
          :.................................................:
          :  # basis functions                 100          :
          :  # atomic orbitals                 100          :
          :  # shells                           66          :
          :  # electrons                        96          :
          :  # halogen bonds                     0          :
          :  max. iterations                   250          :
          :  Hamiltonian                  GFN1-xTB          :
          :  restarted?                      false          :
          :  GBSA solvation                   true          :
          :  PC potential                    false          :
          :  electronic temp.          300.0000000     K    :
          :  accuracy                    1.0000000          :
          :  -> integral cutoff          0.2500000E+02      :
          :  -> integral neglect         0.1000000E-07      :
          :  -> SCF convergence          0.1000000E-05 Eh   :
          :  -> wf. convergence          0.2000000E-04 e    :
          :  Broyden damping             0.4000000          :
          ...................................................

 iter      E             dE          RMSdq      gap      omega  full diag
   1    -59.0534526 -0.590535E+02  0.114E-05    1.06       0.0  T
   2    -59.0534526 -0.152056E-11  0.568E-06    1.06    3063.1  T
   3    -59.0534526 -0.454747E-12  0.325E-06    1.06    5349.4  T

   *** convergence criteria satisfied after 3 iterations ***

         #    Occupation            Energy/Eh            Energy/eV
      -------------------------------------------------------------
         1        2.0000           -0.7826250             -21.2963
       ...           ...                  ...                  ...
        42        2.0000           -0.4329002             -11.7798
        43        2.0000           -0.4152313             -11.2990
        44        2.0000           -0.4065428             -11.0626
        45        2.0000           -0.3985908             -10.8462
        46        2.0000           -0.3765764             -10.2472
        47        2.0000           -0.3525513              -9.5934
        48        2.0000           -0.2885517              -7.8519 (HOMO)
        49                         -0.2497582              -6.7963 (LUMO)
        50                         -0.1571085              -4.2751
        51                         -0.1217425              -3.3128
        52                         -0.1188018              -3.2328
        53                         -0.1129082              -3.0724
       ...                                ...                  ...
       100                          0.7801381              21.2286
      -------------------------------------------------------------
                  HL-Gap            0.0387935 Eh            1.0556 eV
             Fermi-level           -0.2691549 Eh           -7.3241 eV

 SCC (total)                   0 d,  0 h,  0 min,  0.085 sec
 SCC setup                      ...        0 min,  0.001 sec (  1.616%)
 Dispersion                     ...        0 min,  0.000 sec (  0.253%)
 classical contributions        ...        0 min,  0.000 sec (  0.084%)
 integral evaluation            ...        0 min,  0.023 sec ( 27.671%)
 iterations                     ...        0 min,  0.006 sec (  7.316%)
 molecular gradient             ...        0 min,  0.053 sec ( 62.387%)
 printout                       ...        0 min,  0.001 sec (  0.627%)

         :::::::::::::::::::::::::::::::::::::::::::::::::::::
         ::                     SUMMARY                     ::
         :::::::::::::::::::::::::::::::::::::::::::::::::::::
         :: total energy             -58.509972895583 Eh    ::
         :: total w/o Gsasa/hb       -58.492238692701 Eh    ::
         :: gradient norm              0.000848803829 Eh/a0 ::
         :: HOMO-LUMO gap              1.055624762492 eV    ::
         ::.................................................::
         :: SCC energy               -59.053452634383 Eh    ::
         :: -> electrostatic           0.397177096550 Eh    ::
         :: -> Gsolv                  -0.122957839641 Eh    ::
         ::    -> Gelec               -0.105223636759 Eh    ::
         ::    -> Gsasa               -0.017847190553 Eh    ::
         ::    -> Ghb                 -0.007511291334 Eh    ::
         ::    -> Gshift               0.007624279005 Eh    ::
         :: repulsion energy           0.563100730600 Eh    ::
         :: dispersion energy         -0.019620991800 Eh    ::
         :: halogen bond corr.         0.000000000000 Eh    ::
         :: add. restraining           0.000000000000 Eh    ::
         :: total charge              -1.000000000000 e     ::
         :::::::::::::::::::::::::::::::::::::::::::::::::::::

           -------------------------------------------------
          |                Property Printout                |
           -------------------------------------------------

    * Orbital Energies and Occupations

         #    Occupation            Energy/Eh            Energy/eV
      -------------------------------------------------------------
         1        2.0000           -0.7826250             -21.2963
       ...           ...                  ...                  ...
        36        2.0000           -0.4835732             -13.1587
        37        2.0000           -0.4755092             -12.9393
        38        2.0000           -0.4750958             -12.9280
        39        2.0000           -0.4651644             -12.6578
        40        2.0000           -0.4582637             -12.4700
        41        2.0000           -0.4358154             -11.8591
        42        2.0000           -0.4329002             -11.7798
        43        2.0000           -0.4152313             -11.2990
        44        2.0000           -0.4065428             -11.0626
        45        2.0000           -0.3985908             -10.8462
        46        2.0000           -0.3765764             -10.2472
        47        2.0000           -0.3525513              -9.5934
        48        2.0000           -0.2885517              -7.8519 (HOMO)
        49                         -0.2497582              -6.7963 (LUMO)
        50                         -0.1571085              -4.2751
        51                         -0.1217425              -3.3128
        52                         -0.1188018              -3.2328
        53                         -0.1129082              -3.0724
        54                         -0.1083114              -2.9473
        55                         -0.1007974              -2.7428
        56                         -0.0991327              -2.6975
        57                         -0.0730576              -1.9880
        58                         -0.0647387              -1.7616
        59                         -0.0536368              -1.4595
       ...                                ...                  ...
       100                          0.7801381              21.2286
      -------------------------------------------------------------
                  HL-Gap            0.0387935 Eh            1.0556 eV
             Fermi-level           -0.2691549 Eh           -7.3241 eV

  Mulliken/CM5 charges         n(s)   n(p)   n(d)
     1C     0.18410  0.06573   0.963  2.853  0.000
     2O    -0.48815 -0.57811   1.704  4.784  0.000
     3C     0.46579  0.52147   0.962  2.572  0.000
     4O    -0.71326 -0.76311   1.748  4.966  0.000
     5C    -0.10726 -0.04265   1.029  3.079  0.000
     6C     0.05054  0.07976   0.989  2.961  0.000
     7O    -0.60267 -0.79155   1.709  4.894  0.000
     8C     0.34027  0.41915   0.991  2.668  0.000
     9O    -0.72873 -0.76550   1.752  4.977  0.000
    10N    -0.38470 -0.71489   1.469  3.915  0.000
    11C     0.24840  0.39485   1.024  2.727  0.000
    12C     0.14073  0.17241   1.068  2.791  0.000
    13C    -0.10334 -0.24515   1.018  3.085  0.000
    14C    -0.11415 -0.25733   1.024  3.090  0.000
    15N    -0.51083 -0.97355   1.474  4.037  0.000
    16N    -0.14132 -0.39426   1.446  3.695  0.000
    17C     0.04973 -0.03723   0.988  2.962  0.000
    18H     0.01590  0.07591   0.984  0.000  0.000
    19H     0.01608  0.07757   0.984  0.000  0.000
    20H     0.01679  0.07804   0.983  0.000  0.000
    21H     0.33660  0.51853   0.663  0.000  0.000
    22H     0.22349  0.42684   0.777  0.000  0.000
    23H     0.04348  0.09869   0.957  0.000  0.000
    24H     0.03612  0.09065   0.964  0.000  0.000
    25H     0.03915  0.09695   0.961  0.000  0.000
    26H     0.04455  0.10197   0.955  0.000  0.000
    27H     0.04043  0.09614   0.960  0.000  0.000
    28H     0.04427  0.10044   0.956  0.000  0.000
    29H     0.21905  0.40960   0.781  0.000  0.000
    30H     0.22031  0.41181   0.780  0.000  0.000
    31H     0.04499  0.11198   0.955  0.000  0.000
    32H     0.04170  0.10798   0.958  0.000  0.000
    33H     0.03195  0.10688   0.968  0.000  0.000

Wiberg/Mayer (AO) data.
largest (>0.10) Wiberg bond orders for each atom

 ---------------------------------------------------------------------------
     #   Z sym  total        # sym  WBO       # sym  WBO       # sym  WBO
 ---------------------------------------------------------------------------
     1   6 C    3.916 --    18 H    0.987    20 H    0.981    19 H    0.981
                             2 O    0.947
     2   8 O    2.071 --     1 C    0.947     3 C    0.914
     3   6 C    3.880 --     5 C    1.422     4 O    1.392     2 O    0.914
     4   8 O    1.751 --     3 C    1.392     5 C    0.140
     5   6 C    3.772 --     3 C    1.422     6 C    1.029    16 N    0.954
                             4 O    0.140
     6   6 C    3.809 --     8 C    1.577     5 C    1.029     7 O    0.938
                             9 O    0.188
     7   8 O    1.899 --     6 C    0.938    21 H    0.863
     8   6 C    3.895 --     6 C    1.577     9 O    1.380    10 N    0.784
     9   8 O    1.723 --     8 C    1.380     6 C    0.188
    10   7 N    3.274 --    11 C    1.253    22 H    0.916     8 C    0.784
                            16 N    0.128
    11   6 C    3.934 --    16 N    1.442    10 N    1.253    12 C    0.971
    12   6 C    3.966 --    14 C    0.994    13 C    0.987    15 N    0.977
                            11 C    0.971
    13   6 C    3.995 --    12 C    0.987    24 H    0.986    23 H    0.984
                            25 H    0.982
    14   6 C    3.995 --    12 C    0.994    28 H    0.982    26 H    0.982
                            27 H    0.982
    15   7 N    2.991 --    12 C    0.977    30 H    0.943    29 H    0.943
    16   7 N    3.555 --    11 C    1.442     5 C    0.954    17 C    0.941
                            10 N    0.128
    17   6 C    3.945 --    31 H    0.983    32 H    0.974    33 H    0.970
                            16 N    0.941
    18   1 H    1.019 --     1 C    0.987
    19   1 H    1.022 --     1 C    0.981
    20   1 H    1.021 --     1 C    0.981
    21   1 H    0.914 --     7 O    0.863
    22   1 H    0.972 --    10 N    0.916
    23   1 H    1.001 --    13 C    0.984
    24   1 H    1.004 --    13 C    0.986
    25   1 H    1.006 --    13 C    0.982
    26   1 H    1.002 --    14 C    0.982
    27   1 H    1.002 --    14 C    0.982
    28   1 H    1.004 --    14 C    0.982
    29   1 H    0.959 --    15 N    0.943
    30   1 H    0.958 --    15 N    0.943
    31   1 H    1.019 --    17 C    0.983
    32   1 H    1.030 --    17 C    0.974
    33   1 H    1.031 --    17 C    0.970
 ---------------------------------------------------------------------------

Topologies differ in total number of bonds
Writing topology from bond orders to xtbtopo.mol

 dipole moment from electron density (au)
     X       Y       Z   
  -4.9709   3.7448  -1.3782  total (Debye):   16.202

           -------------------------------------------------
          |                Geometry Summary                 |
           -------------------------------------------------

      molecular mass/u    :      242.2521403
   center of mass at/Å    :        0.4432214      -0.3550043       0.1493738
  moments of inertia/u·Å² :        0.6888888E+03   0.1468852E+04   0.1949804E+04
rotational constants/cm⁻¹ :        0.2447076E-01   0.1147674E-01   0.8645811E-02

 * 25 selected distances

     #   Z          #   Z                                           value/Å
     1   6 C        2   8 O                                       1.4135008
     3   6 C        5   6 C                                       1.3823837
     6   6 C        8   6 C                                       1.3513418
    10   7 N       11   6 C                                       1.3508236
    12   6 C       13   6 C                                       1.5358470
    12   6 C       14   6 C                                       1.5373411 (max)
    12   6 C       15   7 N                                       1.4664227
    11   6 C       16   7 N                                       1.3161823
    16   7 N       17   6 C                                       1.4611362
     1   6 C       18   1 H                                       1.0911966
     1   6 C       19   1 H                                       1.0976103
     1   6 C       20   1 H                                       1.0974127
     7   8 O       21   1 H                                       0.9694026 (min)
    10   7 N       22   1 H                                       1.0090375
    13   6 C       23   1 H                                       1.0888358
    13   6 C       24   1 H                                       1.0897345
    13   6 C       25   1 H                                       1.0881339
    14   6 C       26   1 H                                       1.0891302
    14   6 C       27   1 H                                       1.0890513
    14   6 C       28   1 H                                       1.0885277
    15   7 N       29   1 H                                       1.0118508
    15   7 N       30   1 H                                       1.0089639
    17   6 C       31   1 H                                       1.0897910
    17   6 C       32   1 H                                       1.0913258
    17   6 C       33   1 H                                       1.0872896

 * 6 distinct bonds (by element types)

   Z      Z             #   av. dist./Å        max./Å        min./Å
   1 H    6 C          12     1.0906699     1.0976103     1.0872896
   6 C    6 C           4     1.4517284     1.5373411     1.3513418
   1 H    7 N           3     1.0099508     1.0118508     1.0089639
   6 C    7 N           4     1.3986412     1.4664227     1.3161823
   1 H    8 O           1     0.9694026     0.9694026     0.9694026
   6 C    8 O           1     1.4135008     1.4135008     1.4135008


optimized geometry written to: xtbopt.xyz


           -------------------------------------------------
          | TOTAL ENERGY              -58.509972895583 Eh   |
          | GRADIENT NORM               0.000848803829 Eh/α |
          | HOMO-LUMO GAP               1.055624762492 eV   |
           -------------------------------------------------

------------------------------------------------------------------------
 * finished run on 2023/06/20 at 14:59:06.442     
------------------------------------------------------------------------
 total:
 * wall-time:     0 d,  0 h,  0 min,  2.751 sec
 *  cpu-time:     0 d,  0 h,  0 min,  2.678 sec
 * ratio c/w:     0.974 speedup
 SCF:
 * wall-time:     0 d,  0 h,  0 min,  0.129 sec
 *  cpu-time:     0 d,  0 h,  0 min,  0.129 sec
 * ratio c/w:     0.996 speedup
 ANC optimizer:
 * wall-time:     0 d,  0 h,  0 min,  2.525 sec
 *  cpu-time:     0 d,  0 h,  0 min,  2.513 sec
 * ratio c/w:     0.995 speedup

