42
 energy: -83.013182676614 gnorm: 0.000711305732 xtb: 6.5.1 (579679a)
C           -4.78376708135338       -3.08481314888090       -1.06963900764317
O           -3.78439413206759       -2.10092805039596       -0.78106784523950
C           -3.74843957157555       -1.04493874250686       -1.58078703085887
O           -4.51532097688387       -0.89052277256676       -2.51554184548750
C           -2.69146131290145       -0.06465750598432       -1.24226065300001
N           -1.88842996036429       -0.33865501436405       -0.17296172256686
C           -0.94185401452252        0.47495011012138        0.16983987493400
C           -0.14746008741290        0.08050776448556        1.40941528727427
C           -0.48720864734753       -1.36677612093024        1.79456533720666
C           -0.51323920876473        1.02146647920643        2.56668039338244
N            1.28346016197549        0.14345391157009        1.08469407059209
C            2.25924623832428       -0.09485931555579        1.99152443194819
O            2.09779386467904       -0.22998557096118        3.19151306191738
C            3.60536881591996       -0.15429319185059        1.36815149271416
N            4.73524151493802       -0.41089637294873        1.95012374600047
N            5.69334314898981       -0.37794458139048        0.98215722615374
C            5.09033794825072       -0.10285847323249       -0.13211478006335
C            5.69456340548304        0.05679738496105       -1.47260844145609
O            3.76629551690741        0.04971710941017        0.04164143333445
N           -0.71356459381084        1.64155195098642       -0.51109635926216
C            0.32371592583388        2.62466431345559       -0.18655229926429
C           -1.47855479302916        2.02724170129633       -1.61226379378174
O           -1.24871595560977        3.08209471182798       -2.18484423548336
C           -2.52857688214162        1.08115474370638       -1.97933613039817
O           -3.27771369422376        1.41382694603746       -3.03188711412234
H           -5.77799230834212       -2.63681325349120       -1.00615192684257
H           -4.67186793586944       -3.86966459395003       -0.32469625634699
H           -4.63153244162504       -3.48684725880363       -2.07372056358650
H            0.09512662919182       -1.65785980179070        2.66709318052983
H           -1.54701714810103       -1.44741525890738        2.02834678621149
H           -0.25645182099774       -2.03698748269841        0.96856214338376
H           -1.59563094054231        1.01951456545210        2.68978910634265
H           -0.05448728318971        0.67579814858139        3.49097252857131
H           -0.18511668783660        2.03965823618111        2.37277604572515
H            1.53160852520225        0.07081705132582        0.11133893338891
H            6.72784929528797       -0.28217709051975       -1.45155560718201
H            5.66643646276398        1.10593131816783       -1.76938953013444
H            5.13062767442432       -0.51637150164670       -2.20722885535094
H           -0.15973448413519        3.55154295018373        0.12358057930167
H            0.97660983018513        2.26256662348139        0.59690813042916
H            0.90423790980623        2.81422959067006       -1.08954825911992
H           -3.95333190551236        0.71916749226709       -3.20442153215173
