43
 energy: -76.175002942666 gnorm: 0.000517674745 xtb: 6.5.1 (579679a)
C           -4.06280095718320       -1.27037270262554        1.19293302287071
N           -2.72730744796064       -1.09993794899872        0.62045225803123
C           -2.40569642862974       -0.15973057238786       -0.33034310350779
C           -3.40981498947991        0.83454352048328       -0.93135313006648
C           -3.67951776302772        1.97414971848089        0.06317969492216
C           -4.71360111008422        0.18322185739231       -1.41203303993491
N           -2.78936819394468        1.43755200312033       -2.10665839714573
N           -1.19514493889847       -0.03848894761231       -0.77477164804183
C           -0.17223443427912       -0.83766198614271       -0.34970764599990
C            1.15068185129096       -0.50957675566878       -0.98010551145296
O            1.24953148992561        0.35645182747372       -1.84154672988777
N            2.20623850684736       -1.23071518066477       -0.55372569556398
C            3.54782762658288       -0.95740247651799       -1.05858885037566
C            4.25394230459138        0.06272570000707       -0.19020909755444
C            5.24799938984300       -0.33673724369323        0.69921764690866
C            5.89159881984132        0.59259686684626        1.50602112875858
C            5.51529756906889        1.91904401376642        1.40424713059171
F            6.13174455261496        2.82585221537373        2.18145953214260
C            4.53069208091166        2.35091917830355        0.53323134965589
C            3.90083262262911        1.40940024699254       -0.26740066486280
C           -0.43797921174243       -1.81808742445977        0.56030982812419
O            0.47470254656727       -2.68787950014672        1.04189457608534
C           -1.77707380796333       -1.98883304778509        1.08947130525197
O           -2.03456823068287       -2.86536816386573        1.91344623741067
H           -4.53137902534364       -0.30597723698447        1.35731239878911
H           -4.67510992136902       -1.88062292532550        0.52977858866630
H           -3.95454188576705       -1.78324921566875        2.14849007591183
H           -4.21642019865121        1.62517525866003        0.94217330901641
H           -2.73702506321350        2.41781562960017        0.38238419074480
H           -4.27785751392992        2.73848819268127       -0.43157723259695
H           -5.16153473360114        0.82947760572614       -2.16707849673195
H           -4.51489249773933       -0.78851282302999       -1.86179574285164
H           -5.43266670963266        0.06243324246511       -0.60613944052466
H           -2.60219277151743        0.70858149133922       -2.78546787366503
H           -1.89134450737348        1.83002185374833       -1.83694571429374
H            2.12698182181034       -1.87443387598547        0.21484170746934
H            4.10131443779358       -1.89902597579349       -1.07039248087048
H            3.45242949404118       -0.58283294056942       -2.08304561575034
H            5.52873656459740       -1.38139044306913        0.76313846244726
H            6.66738886325104        0.29458771302422        2.19903099075335
H            4.26753690465279        3.39973888914988        0.48390475346914
H            3.12781420374150        1.72401288230810       -0.95960821922945
H            0.02678069141597       -3.27995151995471        1.67667514289026
