42
 energy: -82.977553059679 gnorm: 0.000485284128 xtb: 6.5.1 (579679a)
C            6.75946164208757       -0.41514872032773        2.01225047213718
O            5.63989162651224        0.38526549601077        1.65799887031972
C            4.68728223088215       -0.22670777664093        0.91279469584857
O            4.80831505031002       -1.40109387893438        0.58518261053569
C            3.55873797663010        0.62093747991455        0.55350126025503
N            2.62357030437921       -0.03726613468968       -0.22201508955931
C            1.57689846892524        0.56602882196961       -0.64621505487864
C            0.59295297639144       -0.17869990291150       -1.53139936109021
C            0.48509574765427        0.47194723170463       -2.91437219869094
C            1.04107497178193       -1.63471460717643       -1.66810640162907
N           -0.73948477561507       -0.21796553161079       -0.87926012909013
C           -1.62862155421936        0.77634414018628       -0.84797499310887
O           -1.49941182680938        1.91060682690026       -1.26376053306026
C           -2.91036390722653        0.33603318371539       -0.18968235920289
N           -3.17867540459176       -0.82003940767524        0.34271531195045
N           -4.44918582447594       -0.71494317331407        0.77609164756890
C           -5.09786667832499       -1.84602553728979        1.40361639165233
C           -4.92079454011621        0.48335898757125        0.49842817779205
C           -6.25691381768537        1.03786743581482        0.76987709080965
O           -3.96870529990455        1.16250704245743       -0.10475877846604
N            1.32984712194600        1.89040058852460       -0.35362046517324
C            2.15336514161832        2.65839552928001        0.43006259335295
O            1.85296094910961        3.82430694129464        0.67254928185012
C            3.40825631977920        1.97974197450484        0.93767613814407
O            4.19637828547400        2.63904781155016        1.63796004604450
H            6.44835423124575       -1.26488402245234        2.62770050215545
H            7.44081582123536        0.21995129213429        2.57747417288366
H            7.26257797975269       -0.79456745686412        1.11735549242552
H            1.43978251281635        0.36655487829639       -3.42840268986267
H            0.24340859990692        1.52968816891739       -2.83968785681632
H           -0.28717837128196       -0.02599156570943       -3.49732986168166
H            2.02528704050424       -1.66921038931907       -2.13371909021812
H            1.10834561045555       -2.10090926756249       -0.68592111080137
H            0.33425170398425       -2.18812285130623       -2.28261200401468
H           -1.02117038797755       -1.10580797699546       -0.49795081638603
H           -5.71551537331700       -2.35194371268222        0.66239591345390
H           -5.71915261065712       -1.48635883002953        2.22024442729369
H           -4.32506207386081       -2.51715310100599        1.76991232050152
H           -6.29737042381767        2.07167375442937        0.43257199060307
H           -6.47437460817437        0.98635689546399        1.83736359490572
H           -7.01307573732924        0.45029335984407        0.24761773986582
H            0.48600890200278        2.32598000399697       -0.69654894862059
