      -----------------------------------------------------------      
     |                   =====================                   |     
     |                           x T B                           |     
     |                   =====================                   |     
     |                         S. Grimme                         |     
     |          Mulliken Center for Theoretical Chemistry        |     
     |                    University of Bonn                     |     
      -----------------------------------------------------------      

   * xtb version 6.5.1 (579679a) compiled by 'ehlert@majestix' on 2022-07-11

   xtb is free software: you can redistribute it and/or modify it under
   the terms of the GNU Lesser General Public License as published by
   the Free Software Foundation, either version 3 of the License, or
   (at your option) any later version.
   
   xtb is distributed in the hope that it will be useful,
   but WITHOUT ANY WARRANTY; without even the implied warranty of
   MERCHANTABILITY or FITNESS FOR A PARTICULAR PURPOSE.  See the
   GNU Lesser General Public License for more details.
   
   Cite this work as:
   * C. Bannwarth, E. Caldeweyher, S. Ehlert, A. Hansen, P. Pracht,
     J. Seibert, S. Spicher, S. Grimme, WIREs Comput. Mol. Sci., 2020, 11,
     e01493. DOI: 10.1002/wcms.1493
   
   for GFN2-xTB:
   * C. Bannwarth, S. Ehlert and S. Grimme., J. Chem. Theory Comput., 2019,
     15, 1652-1671. DOI: 10.1021/acs.jctc.8b01176
   for GFN1-xTB:
   * S. Grimme, C. Bannwarth, P. Shushkov, J. Chem. Theory Comput., 2017,
     13, 1989-2009. DOI: 10.1021/acs.jctc.7b00118
   for GFN0-xTB:
   * P. Pracht, E. Caldeweyher, S. Ehlert, S. Grimme, ChemRxiv, 2019, preprint.
     DOI: 10.26434/chemrxiv.8326202.v1
   for GFN-FF:
   * S. Spicher and S. Grimme, Angew. Chem. Int. Ed., 2020, 59, 15665-15673.
     DOI: 10.1002/anie.202004239
   
   for ALPB and GBSA implicit solvation:
   * S. Ehlert, M. Stahn, S. Spicher, S. Grimme, J. Chem. Theory Comput.,
     2021, 17, 4250-4261. DOI: 10.1021/acs.jctc.1c00471
   
   for DFT-D4:
   * E. Caldeweyher, C. Bannwarth and S. Grimme, J. Chem. Phys., 2017,
     147, 034112. DOI: 10.1063/1.4993215
   * E. Caldeweyher, S. Ehlert, A. Hansen, H. Neugebauer, S. Spicher,
     C. Bannwarth and S. Grimme, J. Chem. Phys., 2019, 150, 154122.
     DOI: 10.1063/1.5090222
   * E. Caldeweyher, J.-M. Mewes, S. Ehlert and S. Grimme, Phys. Chem. Chem. Phys.
     2020, 22, 8499-8512. DOI: 10.1039/D0CP00502A
   
   for sTDA-xTB:
   * S. Grimme and C. Bannwarth, J. Chem. Phys., 2016, 145, 054103.
     DOI: 10.1063/1.4959605
   
   in the mass-spec context:
   * V. Asgeirsson, C. Bauer and S. Grimme, Chem. Sci., 2017, 8, 4879.
     DOI: 10.1039/c7sc00601b
   * J. Koopman and S. Grimme, ACS Omega 2019, 4, 12, 15120-15133.
     DOI: 10.1021/acsomega.9b02011
   
   for metadynamics refer to:
   * S. Grimme, J. Chem. Theory Comput., 2019, 155, 2847-2862
     DOI: 10.1021/acs.jctc.9b00143
   
   for SPH calculations refer to:
   * S. Spicher and S. Grimme, J. Chem. Theory Comput., 2021, 17, 1701-1714
     DOI: 10.1021/acs.jctc.0c01306
   
   with help from (in alphabetical order)
   P. Atkinson, C. Bannwarth, F. Bohle, G. Brandenburg, E. Caldeweyher
   M. Checinski, S. Dohm, S. Ehlert, S. Ehrlich, I. Gerasimov, C. Hölzer
   A. Katbashev, J. Koopman, C. Lavigne, S. Lehtola, F. März, M. Müller,
   F. Musil, H. Neugebauer, J. Pisarek, C. Plett, P. Pracht, F. Pultar,
   J. Seibert, P. Shushkov, S. Spicher, M. Stahn, M. Steiner, T. Strunk,
   J. Stückrath, T. Rose, and J. Unsleber
   
 * started run on 2023/06/21 at 17:32:38.516     

           -------------------------------------------------
          |                Calculation Setup                |
           -------------------------------------------------

          program call               : /lustre/hpc/kemi/ree/PhD/git/ReactivityQM/dep/xtb-6.5.1/bin/xtb --gfn 1 /lustre/hpc/kemi/ree/PhD/git/ReactivityQM/calculations/R02methylcation/reac01prodN03/conf18/R02methylcation_reac01prodN03_conf18_gfn1.xyz --opt --vfukui --chrg 0 --uhf 0 --alpb DMSO
          hostname                   : node317
          coordinate file            : /lustre/hpc/kemi/ree/PhD/git/ReactivityQM/calculations/R02methylcation/reac01prodN03/conf18/R02methylcation_reac01prodN03_conf18_gfn1.xyz
          omp threads                :                     1

   ID    Z sym.   atoms
    1    6 C      1, 3, 5, 6, 8-11, 13, 15, 18, 19, 22, 24
    2    8 O      2, 4, 14, 20, 23, 25
    3    7 N      7, 12, 16, 17, 21
    4    1 H      26-42

           -------------------------------------------------
          |                 G F N 1 - x T B                 |
           -------------------------------------------------

        Reference                      10.1021/acs.jctc.7b00118
      * Hamiltonian:
        H0-scaling (s, p, d)           1.850000    2.250000    2.000000
        zeta-weighting                 0.000000
      * Dispersion:
        s8                             2.400000
        a1                             0.630000
        a2                             5.000000
        s9                             0.000000
      * Repulsion:
        kExp                           1.500000
        rExp                           1.000000
      * Coulomb:
        alpha                          2.000000
        third order                    atomic
        anisotropic                    false
      * Halogen bond correction:
        rad-scale                      1.300000
        damping                        0.440000

      * Solvation model:               ALPB
        Solvent                        DMSO
        Parameter file                 internal GFN1-xTB/ALPB
        Dielectric constant                4.6680E+01
        Reference state                gsolv [1 M gas/solution]
        Free energy shift                  7.6243E-03 Eh       4.7843E+00 kcal/mol
        Temperature                        2.9815E+02 K
        Density                            1.1000E+00 kg/L
        Solvent mass                       7.8130E+01 g/mol
        Interaction kernel             P16
        Born radius scaling (c1)           1.7672E+00
        Born radii integrator          GBOBC
        Born offset                        0.0000E+00 a0       0.0000E+00 AA
        H-bond correction              true
        Ion screening                  false
        Surface tension                    1.0000E-05 Eh       1.5569E+01 dyn/cm
        Grid points                               230 per atom

          ...................................................
          :                      SETUP                      :
          :.................................................:
          :  # basis functions                 134          :
          :  # atomic orbitals                 134          :
          :  # shells                           84          :
          :  # electrons                       134          :
          :  # halogen bonds                     0          :
          :  max. iterations                   250          :
          :  Hamiltonian                  GFN1-xTB          :
          :  restarted?                      false          :
          :  GBSA solvation                   true          :
          :  PC potential                    false          :
          :  electronic temp.          300.0000000     K    :
          :  accuracy                    1.0000000          :
          :  -> integral cutoff          0.2500000E+02      :
          :  -> integral neglect         0.1000000E-07      :
          :  -> SCF convergence          0.1000000E-05 Eh   :
          :  -> wf. convergence          0.2000000E-04 e    :
          :  Broyden damping             0.4000000          :
          ...................................................

 iter      E             dE          RMSdq      gap      omega  full diag
   1    -83.3644215 -0.833644E+02  0.844E+00    2.37       0.0  T
   2    -83.7302129 -0.365791E+00  0.508E+00    2.10       1.0  T
   3    -83.7193967  0.108162E-01  0.188E+00    2.22       1.0  T
   4    -83.7556531 -0.362563E-01  0.138E-01    2.15       1.0  T
   5    -83.7561920 -0.538901E-03  0.411E-02    2.18       1.0  T
   6    -83.7562133 -0.213282E-04  0.135E-02    2.18       1.1  T
   7    -83.7562168 -0.345430E-05  0.393E-03    2.18       3.9  T
   8    -83.7562172 -0.401960E-06  0.672E-04    2.18      23.0  T
   9    -83.7562172 -0.758499E-08  0.312E-04    2.18      49.4  T
  10    -83.7562172 -0.113182E-08  0.815E-05    2.18     189.3  T
  11    -83.7562172 -0.978844E-10  0.200E-05    2.18     771.3  T

   *** convergence criteria satisfied after 11 iterations ***

         #    Occupation            Energy/Eh            Energy/eV
      -------------------------------------------------------------
         1        2.0000           -0.8656449             -23.5554
       ...           ...                  ...                  ...
        61        2.0000           -0.4738568             -12.8943
        62        2.0000           -0.4636983             -12.6179
        63        2.0000           -0.4600759             -12.5193
        64        2.0000           -0.4560333             -12.4093
        65        2.0000           -0.4471287             -12.1670
        66        2.0000           -0.4450469             -12.1103
        67        2.0000           -0.4414448             -12.0123 (HOMO)
        68                         -0.3612484              -9.8301 (LUMO)
        69                         -0.3191570              -8.6847
        70                         -0.3028841              -8.2419
        71                         -0.2788510              -7.5879
        72                         -0.2602493              -7.0817
       ...                                ...                  ...
       134                          0.7580581              20.6278
      -------------------------------------------------------------
                  HL-Gap            0.0801964 Eh            2.1823 eV
             Fermi-level           -0.4013466 Eh          -10.9212 eV

 SCC (total)                   0 d,  0 h,  0 min,  0.165 sec
 SCC setup                      ...        0 min,  0.002 sec (  1.434%)
 Dispersion                     ...        0 min,  0.000 sec (  0.267%)
 classical contributions        ...        0 min,  0.000 sec (  0.087%)
 integral evaluation            ...        0 min,  0.035 sec ( 21.347%)
 iterations                     ...        0 min,  0.043 sec ( 26.115%)
 molecular gradient             ...        0 min,  0.082 sec ( 50.008%)
 printout                       ...        0 min,  0.001 sec (  0.703%)

         :::::::::::::::::::::::::::::::::::::::::::::::::::::
         ::                     SUMMARY                     ::
         :::::::::::::::::::::::::::::::::::::::::::::::::::::
         :: total energy             -82.986071998312 Eh    ::
         :: total w/o Gsasa/hb       -82.965274458541 Eh    ::
         :: gradient norm              0.112822772053 Eh/a0 ::
         :: HOMO-LUMO gap              2.182254089941 eV    ::
         ::.................................................::
         :: SCC energy               -83.756217171970 Eh    ::
         :: -> electrostatic           0.353934954647 Eh    ::
         :: -> Gsolv                  -0.055137592772 Eh    ::
         ::    -> Gelec               -0.034340053001 Eh    ::
         ::    -> Gsasa               -0.023951353656 Eh    ::
         ::    -> Ghb                 -0.004470465119 Eh    ::
         ::    -> Gshift               0.007624279005 Eh    ::
         :: repulsion energy           0.796403405624 Eh    ::
         :: dispersion energy         -0.026258231966 Eh    ::
         :: halogen bond corr.         0.000000000000 Eh    ::
         :: add. restraining           0.000000000000 Eh    ::
         :: total charge              -0.000000000000 e     ::
         :::::::::::::::::::::::::::::::::::::::::::::::::::::

      ----------------------------------------------------------- 
     |                   =====================                   |
     |                        A N C O P T                        |
     |                   =====================                   |
     |               Approximate Normal Coordinate               |
     |                Rational Function Optimizer                |
      ----------------------------------------------------------- 

          ...................................................
          :                      SETUP                      :
          :.................................................:
          :   optimization level            normal          :
          :   max. optcycles                   200          :
          :   ANC micro-cycles                  20          :
          :   degrees of freedom               120          :
          :.................................................:
          :   RF solver                   davidson          :
          :   write xtbopt.log                true          :
          :   linear?                        false          :
          :   energy convergence         0.5000000E-05 Eh   :
          :   grad. convergence          0.1000000E-02 Eh/α :
          :   maximium RF displ.         1.0000000          :
          :   Hlow (freq-cutoff)         0.1000000E-01      :
          :   Hmax (freq-cutoff)         5.0000000          :
          :   S6 in model hess.         20.0000000          :
          ...................................................

generating ANC from model Hessian ...
Using Lindh-Hessian (1995)
 Shifting diagonal of input Hessian by   9.808133514161195E-003
 Lowest  eigenvalues of input Hessian
    0.000000    0.000000    0.000000    0.000000    0.000000    0.000000
    0.010000    0.010076    0.010643    0.010776    0.011467    0.012398
    0.013210    0.014409    0.014530    0.015663    0.016331    0.016854
 Highest eigenvalues
    2.124861    2.147487    2.253597    2.279830    2.341778    2.416947
 

........................................................................
.............................. CYCLE    1 ..............................
........................................................................
   1    -83.7562172 -0.837562E+02  0.105E-05    2.18       0.0  T
   2    -83.7562172 -0.795808E-12  0.510E-06    2.18    3023.2  T
   3    -83.7562172 -0.142109E-13  0.292E-06    2.18    5275.8  T
     SCC iter.                  ...        0 min,  0.012 sec
     gradient                   ...        0 min,  0.082 sec
 * total energy  :   -82.9860720 Eh     change       -0.6338041E-11 Eh
   gradient norm :     0.1128227 Eh/α   predicted     0.0000000E+00 (-100.00%)
   displ. norm   :     0.2932138 α      lambda       -0.1453131E-01
   maximum displ.:     0.1553088 α      in ANC's #26, #27, #9, ...

........................................................................
.............................. CYCLE    2 ..............................
........................................................................
   1    -83.7741150 -0.837741E+02  0.680E-02    2.28       0.0  T
   2    -83.7743171 -0.202069E-03  0.364E-02    2.29       1.0  T
   3    -83.7743453 -0.281916E-04  0.153E-02    2.29       1.0  T
   4    -83.7743455 -0.242533E-06  0.267E-03    2.29       5.8  T
   5    -83.7743456 -0.539786E-07  0.644E-04    2.29      24.0  T
   6    -83.7743456 -0.612226E-08  0.255E-04    2.29      60.5  T
   7    -83.7743456 -0.974353E-09  0.646E-05    2.29     238.7  T
   8    -83.7743456 -0.464837E-10  0.147E-05    2.29    1052.3  T
     SCC iter.                  ...        0 min,  0.030 sec
     gradient                   ...        0 min,  0.082 sec
 * total energy  :   -82.9965641 Eh     change       -0.1049209E-01 Eh
   gradient norm :     0.0569131 Eh/α   predicted    -0.7897912E-02 ( -24.73%)
   displ. norm   :     0.3208196 α      lambda       -0.6427166E-02
   maximum displ.:     0.1531330 α      in ANC's #26, #9, #12, ...

........................................................................
.............................. CYCLE    3 ..............................
........................................................................
   1    -83.7854877 -0.837855E+02  0.607E-02    2.37       0.0  T
   2    -83.7856484 -0.160675E-03  0.324E-02    2.38       1.0  T
   3    -83.7856706 -0.221892E-04  0.136E-02    2.38       1.1  T
   4    -83.7856708 -0.227590E-06  0.272E-03    2.38       5.7  T
   5    -83.7856709 -0.584185E-07  0.582E-04    2.38      26.5  T
   6    -83.7856709 -0.425786E-08  0.218E-04    2.38      70.6  T
   7    -83.7856709 -0.583640E-09  0.703E-05    2.38     219.4  T
   8    -83.7856709 -0.554650E-10  0.163E-05    2.38     947.6  T
     SCC iter.                  ...        0 min,  0.030 sec
     gradient                   ...        0 min,  0.083 sec
 * total energy  :   -83.0004255 Eh     change       -0.3861397E-02 Eh
   gradient norm :     0.0170677 Eh/α   predicted    -0.3545511E-02 (  -8.18%)
   displ. norm   :     0.2201075 α      lambda       -0.1073915E-02
   maximum displ.:     0.1103007 α      in ANC's #9, #12, #26, ...

........................................................................
.............................. CYCLE    4 ..............................
........................................................................
   1    -83.7868290 -0.837868E+02  0.176E-02    2.40       0.0  T
   2    -83.7868403 -0.112318E-04  0.923E-03    2.40       1.7  T
   3    -83.7868417 -0.144165E-05  0.433E-03    2.40       3.6  T
   4    -83.7868417 -0.198118E-07  0.112E-03    2.40      13.8  T
   5    -83.7868417 -0.108332E-07  0.189E-04    2.40      81.6  T
   6    -83.7868417 -0.495092E-09  0.710E-05    2.40     217.4  T
     SCC iter.                  ...        0 min,  0.023 sec
     gradient                   ...        0 min,  0.082 sec
 * total energy  :   -83.0012173 Eh     change       -0.7917872E-03 Eh
   gradient norm :     0.0097479 Eh/α   predicted    -0.5630101E-03 ( -28.89%)
   displ. norm   :     0.2936602 α      lambda       -0.8109983E-03
   maximum displ.:     0.1562111 α      in ANC's #9, #12, #4, ...

........................................................................
.............................. CYCLE    5 ..............................
........................................................................
   1    -83.7868714 -0.837869E+02  0.148E-02    2.41       0.0  T
   2    -83.7868775 -0.605563E-05  0.682E-03    2.41       2.3  T
   3    -83.7868780 -0.490462E-06  0.370E-03    2.41       4.2  T
   4    -83.7868780 -0.254184E-07  0.113E-03    2.41      13.7  T
   5    -83.7868780 -0.116221E-07  0.161E-04    2.41      95.9  T
   6    -83.7868780 -0.574190E-09  0.563E-05    2.41     274.1  T
     SCC iter.                  ...        0 min,  0.023 sec
     gradient                   ...        0 min,  0.082 sec
 * total energy  :   -83.0017689 Eh     change       -0.5516282E-03 Eh
   gradient norm :     0.0085062 Eh/α   predicted    -0.4405210E-03 ( -20.14%)
   displ. norm   :     0.2486350 α      lambda       -0.3669735E-03
   maximum displ.:     0.1328105 α      in ANC's #9, #12, #4, ...

........................................................................
.............................. CYCLE    6 ..............................
........................................................................
   1    -83.7872236 -0.837872E+02  0.863E-03    2.41       0.0  T
   2    -83.7872257 -0.204701E-05  0.340E-03    2.41       4.5  T
   3    -83.7872258 -0.101910E-06  0.194E-03    2.41       8.0  T
   4    -83.7872258 -0.120554E-07  0.677E-04    2.41      22.8  T
   5    -83.7872258 -0.347927E-08  0.111E-04    2.41     139.2  T
   6    -83.7872258 -0.316106E-09  0.332E-05    2.41     464.8  T
     SCC iter.                  ...        0 min,  0.022 sec
     gradient                   ...        0 min,  0.120 sec
 * total energy  :   -83.0020407 Eh     change       -0.2718285E-03 Eh
   gradient norm :     0.0082884 Eh/α   predicted    -0.1948575E-03 ( -28.32%)
   displ. norm   :     0.2898758 α      lambda       -0.3270861E-03
   maximum displ.:     0.1415420 α      in ANC's #9, #4, #2, ...

........................................................................
.............................. CYCLE    7 ..............................
........................................................................
   1    -83.7878502 -0.837879E+02  0.732E-03    2.40       0.0  T
   2    -83.7878518 -0.155644E-05  0.325E-03    2.40       4.7  T
   3    -83.7878519 -0.100062E-06  0.172E-03    2.40       9.0  T
   4    -83.7878519 -0.106288E-07  0.611E-04    2.40      25.3  T
   5    -83.7878519 -0.232387E-08  0.104E-04    2.40     148.1  T
   6    -83.7878519 -0.213760E-09  0.300E-05    2.40     513.6  T
     SCC iter.                  ...        0 min,  0.023 sec
     gradient                   ...        0 min,  0.083 sec
 * total energy  :   -83.0022810 Eh     change       -0.2402350E-03 Eh
   gradient norm :     0.0071320 Eh/α   predicted    -0.1772899E-03 ( -26.20%)
   displ. norm   :     0.2777258 α      lambda       -0.2653936E-03
   maximum displ.:     0.1234192 α      in ANC's #4, #2, #9, ...

........................................................................
.............................. CYCLE    8 ..............................
........................................................................
   1    -83.7888799 -0.837889E+02  0.605E-03    2.39       0.0  T
   2    -83.7888809 -0.101888E-05  0.319E-03    2.39       4.8  T
   3    -83.7888810 -0.971933E-07  0.166E-03    2.39       9.3  T
   4    -83.7888810 -0.440644E-08  0.440E-04    2.39      35.1  T
   5    -83.7888810 -0.180229E-08  0.973E-05    2.39     158.6  T
   6    -83.7888810 -0.148830E-09  0.243E-05    2.39     634.4  T
     SCC iter.                  ...        0 min,  0.024 sec
     gradient                   ...        0 min,  0.083 sec
 * total energy  :   -83.0024801 Eh     change       -0.1991223E-03 Eh
   gradient norm :     0.0059363 Eh/α   predicted    -0.1429324E-03 ( -28.22%)
   displ. norm   :     0.2770918 α      lambda       -0.2317381E-03
   maximum displ.:     0.1360144 α      in ANC's #2, #4, #6, ...

........................................................................
.............................. CYCLE    9 ..............................
........................................................................
   1    -83.7897183 -0.837897E+02  0.561E-03    2.38       0.0  T
   2    -83.7897192 -0.869466E-06  0.294E-03    2.38       5.2  T
   3    -83.7897193 -0.845176E-07  0.158E-03    2.38       9.7  T
   4    -83.7897193 -0.215975E-08  0.335E-04    2.38      46.0  T
   5    -83.7897193 -0.156285E-08  0.749E-05    2.38     205.9  T
   6    -83.7897193 -0.897558E-10  0.212E-05    2.38     729.5  T
     SCC iter.                  ...        0 min,  0.023 sec
     gradient                   ...        0 min,  0.083 sec
 * total energy  :   -83.0026558 Eh     change       -0.1756930E-03 Eh
   gradient norm :     0.0060033 Eh/α   predicted    -0.1247689E-03 ( -28.98%)
   displ. norm   :     0.2926087 α      lambda       -0.2052007E-03
   maximum displ.:     0.1578885 α      in ANC's #2, #4, #6, ...

........................................................................
.............................. CYCLE   10 ..............................
........................................................................
   1    -83.7901641 -0.837902E+02  0.567E-03    2.38       0.0  T
   2    -83.7901653 -0.120230E-05  0.259E-03    2.38       6.0  T
   3    -83.7901653 -0.771082E-07  0.134E-03    2.38      11.5  T
   4    -83.7901653 -0.270124E-08  0.470E-04    2.38      32.8  T
   5    -83.7901653 -0.147128E-08  0.776E-05    2.38     199.0  T
   6    -83.7901653 -0.760849E-10  0.244E-05    2.38     631.9  T
     SCC iter.                  ...        0 min,  0.023 sec
     gradient                   ...        0 min,  0.084 sec
 * total energy  :   -83.0028100 Eh     change       -0.1542072E-03 Eh
   gradient norm :     0.0058601 Eh/α   predicted    -0.1113858E-03 ( -27.77%)
   displ. norm   :     0.2851985 α      lambda       -0.1635014E-03
   maximum displ.:     0.1653725 α      in ANC's #2, #4, #6, ...

........................................................................
.............................. CYCLE   11 ..............................
........................................................................
   1    -83.7899165 -0.837899E+02  0.535E-03    2.39       0.0  T
   2    -83.7899174 -0.887520E-06  0.252E-03    2.39       6.1  T
   3    -83.7899175 -0.602419E-07  0.128E-03    2.39      12.1  T
   4    -83.7899175 -0.610386E-08  0.417E-04    2.39      37.0  T
   5    -83.7899175 -0.691628E-09  0.815E-05    2.39     189.4  T
   6    -83.7899175 -0.980265E-10  0.229E-05    2.39     674.2  T
     SCC iter.                  ...        0 min,  0.023 sec
     gradient                   ...        0 min,  0.083 sec
 * total energy  :   -83.0029318 Eh     change       -0.1218424E-03 Eh
   gradient norm :     0.0052656 Eh/α   predicted    -0.8840044E-04 ( -27.45%)
   displ. norm   :     0.2495067 α      lambda       -0.1363789E-03
   maximum displ.:     0.1596244 α      in ANC's #2, #7, #4, ...

........................................................................
.............................. CYCLE   12 ..............................
........................................................................
   1    -83.7910965 -0.837911E+02  0.565E-03    2.40       0.0  T
   2    -83.7910977 -0.121327E-05  0.287E-03    2.40       5.4  T
   3    -83.7910978 -0.585373E-07  0.159E-03    2.40       9.7  T
   4    -83.7910978 -0.101477E-08  0.456E-04    2.40      33.8  T
   5    -83.7910978 -0.244081E-08  0.738E-05    2.40     209.1  T
   6    -83.7910978 -0.638920E-10  0.231E-05    2.40     669.1  T
     SCC iter.                  ...        0 min,  0.023 sec
     gradient                   ...        0 min,  0.084 sec
 * total energy  :   -83.0030217 Eh     change       -0.8988876E-04 Eh
   gradient norm :     0.0047841 Eh/α   predicted    -0.7243834E-04 ( -19.41%)
   displ. norm   :     0.2678679 α      lambda       -0.1129287E-03
   maximum displ.:     0.1659736 α      in ANC's #2, #4, #7, ...

........................................................................
.............................. CYCLE   13 ..............................
........................................................................
   1    -83.7888419 -0.837888E+02  0.842E-03    2.40       0.0  T
   2    -83.7888440 -0.209569E-05  0.383E-03    2.40       4.0  T
   3    -83.7888441 -0.142461E-06  0.219E-03    2.40       7.1  T
   4    -83.7888441 -0.128160E-07  0.565E-04    2.40      27.3  T
   5    -83.7888441 -0.236143E-08  0.130E-04    2.40     118.5  T
   6    -83.7888441 -0.414630E-09  0.329E-05    2.40     469.1  T
     SCC iter.                  ...        0 min,  0.023 sec
     gradient                   ...        0 min,  0.083 sec
 * total energy  :   -83.0030793 Eh     change       -0.5761731E-04 Eh
   gradient norm :     0.0061454 Eh/α   predicted    -0.6051711E-04 (   5.03%)
   displ. norm   :     0.1176343 α      lambda       -0.8875653E-04
   maximum displ.:     0.0756169 α      in ANC's #2, #7, #1, ...

........................................................................
.............................. CYCLE   14 ..............................
........................................................................
   1    -83.7909747 -0.837910E+02  0.571E-03    2.40       0.0  T
   2    -83.7909758 -0.109391E-05  0.292E-03    2.40       5.3  T
   3    -83.7909759 -0.119689E-06  0.157E-03    2.40       9.8  T
   4    -83.7909759 -0.380020E-08  0.364E-04    2.40      42.4  T
   5    -83.7909759 -0.804675E-09  0.767E-05    2.40     201.2  T
   6    -83.7909759 -0.154330E-09  0.216E-05    2.40     713.9  T
     SCC iter.                  ...        0 min,  0.023 sec
     gradient                   ...        0 min,  0.083 sec
 * total energy  :   -83.0031436 Eh     change       -0.6423838E-04 Eh
   gradient norm :     0.0040368 Eh/α   predicted    -0.4499283E-04 ( -29.96%)
   displ. norm   :     0.1937271 α      lambda       -0.1010385E-03
   maximum displ.:     0.1264693 α      in ANC's #2, #7, #1, ...

........................................................................
.............................. CYCLE   15 ..............................
........................................................................
   1    -83.7916065 -0.837916E+02  0.520E-03    2.40       0.0  T
   2    -83.7916077 -0.126583E-05  0.205E-03    2.40       7.5  T
   3    -83.7916078 -0.644326E-07  0.106E-03    2.40      14.5  T
   4    -83.7916078 -0.522311E-08  0.494E-04    2.40      31.2  T
   5    -83.7916078 -0.100586E-08  0.993E-05    2.40     155.4  T
   6    -83.7916078 -0.177593E-09  0.219E-05    2.40     703.8  T
     SCC iter.                  ...        0 min,  0.023 sec
     gradient                   ...        0 min,  0.083 sec
 * total energy  :   -83.0032167 Eh     change       -0.7310828E-04 Eh
   gradient norm :     0.0047031 Eh/α   predicted    -0.5241843E-04 ( -28.30%)
   displ. norm   :     0.2573898 α      lambda       -0.1019080E-03
   maximum displ.:     0.1645048 α      in ANC's #2, #7, #1, ...

........................................................................
.............................. CYCLE   16 ..............................
........................................................................
   1    -83.7920287 -0.837920E+02  0.438E-03    2.39       0.0  T
   2    -83.7920294 -0.643566E-06  0.181E-03    2.39       8.5  T
   3    -83.7920294 -0.409699E-07  0.932E-04    2.39      16.6  T
   4    -83.7920294 -0.119728E-08  0.335E-04    2.39      46.1  T
   5    -83.7920294 -0.952866E-09  0.602E-05    2.39     256.4  T
   6    -83.7920294 -0.415241E-10  0.154E-05    2.39     999.8  T
     SCC iter.                  ...        0 min,  0.023 sec
     gradient                   ...        0 min,  0.084 sec
 * total energy  :   -83.0032946 Eh     change       -0.7788333E-04 Eh
   gradient norm :     0.0046244 Eh/α   predicted    -0.5433221E-04 ( -30.24%)
   displ. norm   :     0.3151787 α      lambda       -0.1060665E-03
   maximum displ.:     0.2028810 α      in ANC's #2, #7, #1, ...

........................................................................
.............................. CYCLE   17 ..............................
........................................................................
   1    -83.7910199 -0.837910E+02  0.542E-03    2.38       0.0  T
   2    -83.7910209 -0.100569E-05  0.220E-03    2.38       7.0  T
   3    -83.7910210 -0.931876E-07  0.107E-03    2.38      14.4  T
   4    -83.7910210 -0.115941E-08  0.320E-04    2.38      48.2  T
   5    -83.7910210 -0.129481E-08  0.634E-05    2.38     243.2  T
   6    -83.7910210 -0.420073E-10  0.180E-05    2.38     854.9  T
     SCC iter.                  ...        0 min,  0.022 sec
     gradient                   ...        0 min,  0.096 sec
 * total energy  :   -83.0033717 Eh     change       -0.7709109E-04 Eh
   gradient norm :     0.0043973 Eh/α   predicted    -0.5830326E-04 ( -24.37%)
   displ. norm   :     0.2526458 α      lambda       -0.8310840E-04
   maximum displ.:     0.1589174 α      in ANC's #2, #3, #1, ...

........................................................................
.............................. CYCLE   18 ..............................
........................................................................
   1    -83.7911226 -0.837911E+02  0.526E-03    2.38       0.0  T
   2    -83.7911237 -0.114819E-05  0.218E-03    2.38       7.1  T
   3    -83.7911238 -0.959560E-07  0.106E-03    2.38      14.5  T
   4    -83.7911238 -0.176698E-08  0.379E-04    2.38      40.7  T
   5    -83.7911238 -0.888505E-09  0.744E-05    2.38     207.4  T
   6    -83.7911238 -0.996181E-10  0.170E-05    2.38     907.3  T
     SCC iter.                  ...        0 min,  0.022 sec
     gradient                   ...        0 min,  0.083 sec
 * total energy  :   -83.0034320 Eh     change       -0.6035665E-04 Eh
   gradient norm :     0.0040275 Eh/α   predicted    -0.4420742E-04 ( -26.76%)
   displ. norm   :     0.2393436 α      lambda       -0.7382984E-04
   maximum displ.:     0.1514110 α      in ANC's #2, #3, #1, ...

........................................................................
.............................. CYCLE   19 ..............................
........................................................................
   1    -83.7907647 -0.837908E+02  0.390E-03    2.38       0.0  T
   2    -83.7907653 -0.645236E-06  0.161E-03    2.38       9.6  T
   3    -83.7907654 -0.395958E-07  0.775E-04    2.38      19.9  T
   4    -83.7907654 -0.147858E-08  0.304E-04    2.38      50.7  T
   5    -83.7907654 -0.562935E-09  0.660E-05    2.38     233.8  T
   6    -83.7907654 -0.577813E-10  0.147E-05    2.38    1047.6  T
     SCC iter.                  ...        0 min,  0.022 sec
     gradient                   ...        0 min,  0.083 sec
 * total energy  :   -83.0034844 Eh     change       -0.5239426E-04 Eh
   gradient norm :     0.0035626 Eh/α   predicted    -0.3903063E-04 ( -25.51%)
   displ. norm   :     0.2128875 α      lambda       -0.7102836E-04
   maximum displ.:     0.1336276 α      in ANC's #2, #3, #1, ...

........................................................................
.............................. CYCLE   20 ..............................
........................................................................
   1    -83.7914195 -0.837914E+02  0.516E-03    2.38       0.0  T
   2    -83.7914206 -0.110460E-05  0.232E-03    2.38       6.6  T
   3    -83.7914207 -0.106773E-06  0.107E-03    2.38      14.4  T
   4    -83.7914207 -0.268756E-08  0.398E-04    2.38      38.8  T
   5    -83.7914207 -0.531799E-09  0.729E-05    2.38     211.7  T
   6    -83.7914207 -0.854499E-10  0.186E-05    2.38     831.3  T
     SCC iter.                  ...        0 min,  0.022 sec
     gradient                   ...        0 min,  0.083 sec
 * total energy  :   -83.0035309 Eh     change       -0.4648761E-04 Eh
   gradient norm :     0.0039840 Eh/α   predicted    -0.3712514E-04 ( -20.14%)
   displ. norm   :     0.2659696 α      lambda       -0.6848957E-04
   maximum displ.:     0.1750285 α      in ANC's #2, #1, #3, ...
 * RMSD in coord.:     0.5803350 α      energy gain  -0.1745890E-01 Eh

generating ANC from model Hessian ...
Using Lindh-Hessian (1995)
 Shifting diagonal of input Hessian by   9.793487177006665E-003
 Lowest  eigenvalues of input Hessian
    0.000000    0.000000    0.000000    0.000000    0.000000    0.000000
    0.010000    0.010081    0.010608    0.010840    0.011660    0.012192
    0.013380    0.014176    0.014339    0.016056    0.016275    0.016792
 Highest eigenvalues
    2.145734    2.184037    2.230085    2.380761    2.402203    2.409431
 

........................................................................
.............................. CYCLE   21 ..............................
........................................................................
   1    -83.7901280 -0.837901E+02  0.493E-03    2.39       0.0  T
   2    -83.7901286 -0.559514E-06  0.247E-03    2.39       6.3  T
   3    -83.7901286 -0.472758E-07  0.126E-03    2.39      12.2  T
   4    -83.7901286 -0.679573E-08  0.308E-04    2.39      50.1  T
   5    -83.7901286 -0.515328E-09  0.596E-05    2.39     258.8  T
   6    -83.7901286 -0.628830E-10  0.155E-05    2.39     992.4  T
     SCC iter.                  ...        0 min,  0.022 sec
     gradient                   ...        0 min,  0.083 sec
 * total energy  :   -83.0035730 Eh     change       -0.4211511E-04 Eh
   gradient norm :     0.0051679 Eh/α   predicted     0.0000000E+00 (-100.00%)
   displ. norm   :     0.0338327 α      lambda       -0.5410070E-04
   maximum displ.:     0.0194681 α      in ANC's #11, #1, #12, ...

........................................................................
.............................. CYCLE   22 ..............................
........................................................................
   1    -83.7913507 -0.837914E+02  0.376E-03    2.39       0.0  T
   2    -83.7913511 -0.359727E-06  0.197E-03    2.39       7.8  T
   3    -83.7913511 -0.358085E-07  0.106E-03    2.39      14.6  T
   4    -83.7913511 -0.288351E-08  0.241E-04    2.39      64.1  T
   5    -83.7913511 -0.490090E-09  0.603E-05    2.39     256.1  T
   6    -83.7913511 -0.726317E-10  0.133E-05    2.39    1162.6  T
     SCC iter.                  ...        0 min,  0.022 sec
     gradient                   ...        0 min,  0.084 sec
 * total energy  :   -83.0036162 Eh     change       -0.4321645E-04 Eh
   gradient norm :     0.0024621 Eh/α   predicted    -0.2806691E-04 ( -35.06%)
   displ. norm   :     0.0771084 α      lambda       -0.6235564E-04
   maximum displ.:     0.0430338 α      in ANC's #11, #1, #12, ...

........................................................................
.............................. CYCLE   23 ..............................
........................................................................
   1    -83.7923847 -0.837924E+02  0.479E-03    2.39       0.0  T
   2    -83.7923856 -0.866914E-06  0.233E-03    2.39       6.6  T
   3    -83.7923856 -0.744932E-07  0.118E-03    2.39      13.0  T
   4    -83.7923856 -0.195413E-08  0.414E-04    2.39      37.3  T
   5    -83.7923856 -0.110066E-08  0.743E-05    2.39     207.6  T
   6    -83.7923856 -0.993055E-10  0.177E-05    2.39     871.0  T
     SCC iter.                  ...        0 min,  0.022 sec
     gradient                   ...        0 min,  0.083 sec
 * total energy  :   -83.0036577 Eh     change       -0.4147038E-04 Eh
   gradient norm :     0.0020453 Eh/α   predicted    -0.3136389E-04 ( -24.37%)
   displ. norm   :     0.0774322 α      lambda       -0.3234729E-04
   maximum displ.:     0.0380304 α      in ANC's #11, #1, #12, ...

........................................................................
.............................. CYCLE   24 ..............................
........................................................................
   1    -83.7924822 -0.837925E+02  0.248E-03    2.39       0.0  T
   2    -83.7924825 -0.269856E-06  0.110E-03    2.39      14.0  T
   3    -83.7924825 -0.209071E-07  0.497E-04    2.39      31.1  T
   4    -83.7924825 -0.353808E-09  0.225E-04    2.39      68.6  T
   5    -83.7924825 -0.295799E-09  0.399E-05    2.39     386.8  T
   6    -83.7924825 -0.199663E-10  0.892E-06    2.39    1729.1  T
     SCC iter.                  ...        0 min,  0.021 sec
     gradient                   ...        0 min,  0.078 sec
 * total energy  :   -83.0036832 Eh     change       -0.2554009E-04 Eh
   gradient norm :     0.0028310 Eh/α   predicted    -0.1637066E-04 ( -35.90%)
   displ. norm   :     0.1442225 α      lambda       -0.5001656E-04
   maximum displ.:     0.0609910 α      in ANC's #11, #1, #12, ...

........................................................................
.............................. CYCLE   25 ..............................
........................................................................
   1    -83.7919748 -0.837920E+02  0.322E-03    2.39       0.0  T
   2    -83.7919751 -0.304115E-06  0.143E-03    2.39      10.8  T
   3    -83.7919751 -0.204525E-07  0.727E-04    2.39      21.2  T
   4    -83.7919751 -0.871665E-09  0.231E-04    2.39      66.8  T
   5    -83.7919751 -0.517517E-09  0.500E-05    2.39     308.7  T
   6    -83.7919751 -0.239879E-10  0.126E-05    2.39    1226.1  T
     SCC iter.                  ...        0 min,  0.018 sec
     gradient                   ...        0 min,  0.079 sec
 * total energy  :   -83.0037181 Eh     change       -0.3490512E-04 Eh
   gradient norm :     0.0032455 Eh/α   predicted    -0.2558552E-04 ( -26.70%)
   displ. norm   :     0.1226058 α      lambda       -0.3357756E-04
   maximum displ.:     0.0536470 α      in ANC's #1, #12, #11, ...

........................................................................
.............................. CYCLE   26 ..............................
........................................................................
   1    -83.7914597 -0.837915E+02  0.249E-03    2.40       0.0  T
   2    -83.7914599 -0.170588E-06  0.116E-03    2.40      13.3  T
   3    -83.7914599 -0.794250E-08  0.623E-04    2.40      24.8  T
   4    -83.7914599 -0.804150E-09  0.157E-04    2.40      98.0  T
   5    -83.7914599 -0.264677E-09  0.370E-05    2.40     417.3  T
     SCC iter.                  ...        0 min,  0.019 sec
     gradient                   ...        0 min,  0.079 sec
 * total energy  :   -83.0037423 Eh     change       -0.2418321E-04 Eh
   gradient norm :     0.0029495 Eh/α   predicted    -0.1706945E-04 ( -29.42%)
   displ. norm   :     0.1080355 α      lambda       -0.3254963E-04
   maximum displ.:     0.0512690 α      in ANC's #1, #12, #16, ...

........................................................................
.............................. CYCLE   27 ..............................
........................................................................
   1    -83.7913627 -0.837914E+02  0.287E-03    2.40       0.0  T
   2    -83.7913631 -0.392764E-06  0.132E-03    2.40      11.7  T
   3    -83.7913631 -0.296102E-07  0.637E-04    2.40      24.2  T
   4    -83.7913631 -0.737330E-09  0.274E-04    2.40      56.3  T
   5    -83.7913631 -0.324036E-09  0.445E-05    2.40     346.5  T
   6    -83.7913631 -0.354703E-10  0.126E-05    2.40    1225.4  T
     SCC iter.                  ...        0 min,  0.022 sec
     gradient                   ...        0 min,  0.079 sec
 * total energy  :   -83.0037662 Eh     change       -0.2388658E-04 Eh
   gradient norm :     0.0023345 Eh/α   predicted    -0.1646583E-04 ( -31.07%)
   displ. norm   :     0.1023061 α      lambda       -0.2930654E-04
   maximum displ.:     0.0522145 α      in ANC's #1, #12, #3, ...

........................................................................
.............................. CYCLE   28 ..............................
........................................................................
   1    -83.7916157 -0.837916E+02  0.289E-03    2.40       0.0  T
   2    -83.7916161 -0.395275E-06  0.134E-03    2.40      11.5  T
   3    -83.7916162 -0.354518E-07  0.570E-04    2.40      27.1  T
   4    -83.7916162 -0.686697E-09  0.258E-04    2.40      59.8  T
   5    -83.7916162 -0.280508E-09  0.434E-05    2.40     355.7  T
   6    -83.7916162 -0.228084E-10  0.105E-05    2.40    1470.8  T
     SCC iter.                  ...        0 min,  0.022 sec
     gradient                   ...        0 min,  0.080 sec
 * total energy  :   -83.0037874 Eh     change       -0.2119254E-04 Eh
   gradient norm :     0.0022805 Eh/α   predicted    -0.1482438E-04 ( -30.05%)
   displ. norm   :     0.1337630 α      lambda       -0.2601326E-04
   maximum displ.:     0.0706257 α      in ANC's #1, #12, #3, ...

........................................................................
.............................. CYCLE   29 ..............................
........................................................................
   1    -83.7915711 -0.837916E+02  0.206E-03    2.40       0.0  T
   2    -83.7915713 -0.182930E-06  0.101E-03    2.40      15.3  T
   3    -83.7915713 -0.201779E-07  0.411E-04    2.40      37.6  T
   4    -83.7915713 -0.454662E-09  0.152E-04    2.40     101.2  T
   5    -83.7915713 -0.111598E-09  0.281E-05    2.40     548.5  T
     SCC iter.                  ...        0 min,  0.019 sec
     gradient                   ...        0 min,  0.081 sec
 * total energy  :   -83.0038086 Eh     change       -0.2123074E-04 Eh
   gradient norm :     0.0026403 Eh/α   predicted    -0.1324240E-04 ( -37.63%)
   displ. norm   :     0.2216060 α      lambda       -0.4327215E-04
   maximum displ.:     0.1204575 α      in ANC's #1, #3, #12, ...

........................................................................
.............................. CYCLE   30 ..............................
........................................................................
   1    -83.7913101 -0.837913E+02  0.231E-03    2.40       0.0  T
   2    -83.7913103 -0.180824E-06  0.119E-03    2.40      13.0  T
   3    -83.7913103 -0.235684E-07  0.530E-04    2.40      29.1  T
   4    -83.7913103 -0.800071E-09  0.127E-04    2.40     121.2  T
   5    -83.7913103 -0.917453E-10  0.339E-05    2.40     455.7  T
     SCC iter.                  ...        0 min,  0.018 sec
     gradient                   ...        0 min,  0.080 sec
 * total energy  :   -83.0038414 Eh     change       -0.3278689E-04 Eh
   gradient norm :     0.0031634 Eh/α   predicted    -0.2270273E-04 ( -30.76%)
   displ. norm   :     0.2050748 α      lambda       -0.4972656E-04
   maximum displ.:     0.1185748 α      in ANC's #1, #3, #2, ...

........................................................................
.............................. CYCLE   31 ..............................
........................................................................
   1    -83.7918110 -0.837918E+02  0.223E-03    2.40       0.0  T
   2    -83.7918112 -0.125821E-06  0.111E-03    2.40      13.9  T
   3    -83.7918112 -0.536988E-08  0.566E-04    2.40      27.3  T
   4    -83.7918112 -0.956021E-09  0.148E-04    2.40     104.3  T
   5    -83.7918112 -0.218250E-09  0.329E-05    2.40     468.7  T
     SCC iter.                  ...        0 min,  0.019 sec
     gradient                   ...        0 min,  0.078 sec
 * total energy  :   -83.0038777 Eh     change       -0.3628062E-04 Eh
   gradient norm :     0.0029275 Eh/α   predicted    -0.2592715E-04 ( -28.54%)
   displ. norm   :     0.2603014 α      lambda       -0.4870554E-04
   maximum displ.:     0.1508685 α      in ANC's #1, #3, #12, ...

........................................................................
.............................. CYCLE   32 ..............................
........................................................................
   1    -83.7906494 -0.837906E+02  0.365E-03    2.39       0.0  T
   2    -83.7906496 -0.201241E-06  0.179E-03    2.39       8.6  T
   3    -83.7906496 -0.105383E-07  0.880E-04    2.39      17.5  T
   4    -83.7906496 -0.363529E-08  0.213E-04    2.39      72.4  T
   5    -83.7906496 -0.515200E-09  0.560E-05    2.39     275.8  T
   6    -83.7906496 -0.204921E-10  0.124E-05    2.39    1239.5  T
     SCC iter.                  ...        0 min,  0.022 sec
     gradient                   ...        0 min,  0.079 sec
 * total energy  :   -83.0039076 Eh     change       -0.2990306E-04 Eh
   gradient norm :     0.0040129 Eh/α   predicted    -0.2600628E-04 ( -13.03%)
   displ. norm   :     0.2127910 α      lambda       -0.8681677E-04
   maximum displ.:     0.1247477 α      in ANC's #1, #3, #2, ...

........................................................................
.............................. CYCLE   33 ..............................
........................................................................
   1    -83.7924577 -0.837925E+02  0.583E-03    2.39       0.0  T
   2    -83.7924587 -0.963173E-06  0.305E-03    2.39       5.1  T
   3    -83.7924588 -0.907635E-07  0.155E-03    2.39      10.0  T
   4    -83.7924588 -0.315721E-08  0.402E-04    2.39      38.4  T
   5    -83.7924588 -0.109688E-08  0.737E-05    2.39     209.5  T
   6    -83.7924588 -0.536886E-10  0.188E-05    2.39     819.7  T
     SCC iter.                  ...        0 min,  0.022 sec
     gradient                   ...        0 min,  0.080 sec
 * total energy  :   -83.0039449 Eh     change       -0.3732185E-04 Eh
   gradient norm :     0.0037741 Eh/α   predicted    -0.4537427E-04 (  21.58%)
   displ. norm   :     0.1144644 α      lambda       -0.2659356E-04
   maximum displ.:     0.0711433 α      in ANC's #1, #3, #12, ...

........................................................................
.............................. CYCLE   34 ..............................
........................................................................
   1    -83.7915660 -0.837916E+02  0.280E-03    2.39       0.0  T
   2    -83.7915661 -0.100757E-06  0.146E-03    2.39      10.6  T
   3    -83.7915661 -0.425237E-08  0.687E-04    2.39      22.5  T
   4    -83.7915661 -0.221976E-08  0.135E-04    2.39     114.2  T
   5    -83.7915661 -0.213632E-09  0.368E-05    2.39     419.0  T
     SCC iter.                  ...        0 min,  0.018 sec
     gradient                   ...        0 min,  0.079 sec
 * total energy  :   -83.0039626 Eh     change       -0.1768419E-04 Eh
   gradient norm :     0.0029958 Eh/α   predicted    -0.1347632E-04 ( -23.79%)
   displ. norm   :     0.0568046 α      lambda       -0.3760387E-04
   maximum displ.:     0.0298336 α      in ANC's #4, #1, #9, ...

........................................................................
.............................. CYCLE   35 ..............................
........................................................................
   1    -83.7919307 -0.837919E+02  0.313E-03    2.40       0.0  T
   2    -83.7919312 -0.484901E-06  0.145E-03    2.40      10.7  T
   3    -83.7919312 -0.210970E-07  0.752E-04    2.40      20.5  T
   4    -83.7919312 -0.241769E-09  0.305E-04    2.40      50.6  T
   5    -83.7919312 -0.740044E-09  0.498E-05    2.40     310.0  T
   6    -83.7919312 -0.350866E-10  0.138E-05    2.40    1119.1  T
     SCC iter.                  ...        0 min,  0.022 sec
     gradient                   ...        0 min,  0.078 sec
 * total energy  :   -83.0039848 Eh     change       -0.2223446E-04 Eh
   gradient norm :     0.0020454 Eh/α   predicted    -0.1886430E-04 ( -15.16%)
   displ. norm   :     0.0928719 α      lambda       -0.1773313E-04
   maximum displ.:     0.0608693 α      in ANC's #1, #3, #8, ...

........................................................................
.............................. CYCLE   36 ..............................
........................................................................
   1    -83.7918924 -0.837919E+02  0.145E-03    2.40       0.0  T
   2    -83.7918924 -0.689923E-07  0.723E-04    2.40      21.4  T
   3    -83.7918924 -0.211055E-08  0.407E-04    2.40      38.0  T
   4    -83.7918924 -0.514149E-10  0.939E-05    2.40     164.3  T
   5    -83.7918924 -0.176627E-09  0.193E-05    2.40     801.3  T
     SCC iter.                  ...        0 min,  0.018 sec
     gradient                   ...        0 min,  0.079 sec
 * total energy  :   -83.0039991 Eh     change       -0.1428858E-04 Eh
   gradient norm :     0.0022961 Eh/α   predicted    -0.8943797E-05 ( -37.41%)
   displ. norm   :     0.1545541 α      lambda       -0.2979797E-04
   maximum displ.:     0.1011165 α      in ANC's #1, #8, #3, ...

........................................................................
.............................. CYCLE   37 ..............................
........................................................................
   1    -83.7919941 -0.837920E+02  0.207E-03    2.40       0.0  T
   2    -83.7919942 -0.135104E-06  0.937E-04    2.40      16.5  T
   3    -83.7919943 -0.868499E-08  0.512E-04    2.40      30.1  T
   4    -83.7919943 -0.271811E-09  0.133E-04    2.40     115.7  T
   5    -83.7919943 -0.204466E-09  0.264E-05    2.40     584.5  T
     SCC iter.                  ...        0 min,  0.018 sec
     gradient                   ...        0 min,  0.079 sec
 * total energy  :   -83.0040212 Eh     change       -0.2205353E-04 Eh
   gradient norm :     0.0021511 Eh/α   predicted    -0.1525690E-04 ( -30.82%)
   displ. norm   :     0.1573303 α      lambda       -0.2372566E-04
   maximum displ.:     0.1059367 α      in ANC's #1, #3, #8, ...

........................................................................
.............................. CYCLE   38 ..............................
........................................................................
   1    -83.7918934 -0.837919E+02  0.183E-03    2.39       0.0  T
   2    -83.7918935 -0.134889E-06  0.861E-04    2.39      17.9  T
   3    -83.7918935 -0.165662E-07  0.359E-04    2.39      42.9  T
   4    -83.7918935 -0.909495E-10  0.118E-04    2.39     131.1  T
   5    -83.7918935 -0.639631E-10  0.220E-05    2.39     700.4  T
     SCC iter.                  ...        0 min,  0.018 sec
     gradient                   ...        0 min,  0.079 sec
 * total energy  :   -83.0040388 Eh     change       -0.1765992E-04 Eh
   gradient norm :     0.0017098 Eh/α   predicted    -0.1216120E-04 ( -31.14%)
   displ. norm   :     0.1985858 α      lambda       -0.2005267E-04
   maximum displ.:     0.1361854 α      in ANC's #1, #4, #9, ...

........................................................................
.............................. CYCLE   39 ..............................
........................................................................
   1    -83.7920288 -0.837920E+02  0.276E-03    2.39       0.0  T
   2    -83.7920290 -0.252846E-06  0.142E-03    2.39      10.9  T
   3    -83.7920291 -0.357485E-07  0.679E-04    2.39      22.7  T
   4    -83.7920291 -0.286988E-09  0.136E-04    2.39     113.6  T
   5    -83.7920291 -0.973159E-10  0.311E-05    2.39     496.9  T
     SCC iter.                  ...        0 min,  0.018 sec
     gradient                   ...        0 min,  0.079 sec
 * total energy  :   -83.0040572 Eh     change       -0.1840065E-04 Eh
   gradient norm :     0.0014109 Eh/α   predicted    -0.1020366E-04 ( -44.55%)
   displ. norm   :     0.1116723 α      lambda       -0.9403896E-05
   maximum displ.:     0.0814005 α      in ANC's #1, #3, #9, ...

........................................................................
.............................. CYCLE   40 ..............................
........................................................................
   1    -83.7918303 -0.837918E+02  0.175E-03    2.39       0.0  T
   2    -83.7918304 -0.616402E-07  0.794E-04    2.39      19.4  T
   3    -83.7918304 -0.377604E-08  0.421E-04    2.39      36.7  T
   4    -83.7918304 -0.864958E-09  0.112E-04    2.39     138.1  T
   5    -83.7918304 -0.154188E-09  0.263E-05    2.39     586.1  T
     SCC iter.                  ...        0 min,  0.018 sec
     gradient                   ...        0 min,  0.079 sec
 * total energy  :   -83.0040670 Eh     change       -0.9772983E-05 Eh
   gradient norm :     0.0016189 Eh/α   predicted    -0.4729396E-05 ( -51.61%)
   displ. norm   :     0.1174972 α      lambda       -0.1650131E-04
   maximum displ.:     0.0763333 α      in ANC's #1, #5, #9, ...

........................................................................
.............................. CYCLE   41 ..............................
........................................................................
   1    -83.7930558 -0.837931E+02  0.367E-03    2.39       0.0  T
   2    -83.7930561 -0.291047E-06  0.188E-03    2.39       8.2  T
   3    -83.7930561 -0.188361E-07  0.992E-04    2.39      15.6  T
   4    -83.7930561 -0.248843E-08  0.239E-04    2.39      64.6  T
   5    -83.7930561 -0.889656E-09  0.592E-05    2.39     260.5  T
   6    -83.7930561 -0.288338E-10  0.144E-05    2.39    1075.2  T
     SCC iter.                  ...        0 min,  0.022 sec
     gradient                   ...        0 min,  0.080 sec
 * total energy  :   -83.0040730 Eh     change       -0.5968838E-05 Eh
   gradient norm :     0.0020164 Eh/α   predicted    -0.8306146E-05 (  39.16%)
   displ. norm   :     0.0475610 α      lambda       -0.9145321E-05
   maximum displ.:     0.0331268 α      in ANC's #1, #3, #2, ...

........................................................................
.............................. CYCLE   42 ..............................
........................................................................
   1    -83.7924521 -0.837925E+02  0.152E-03    2.39       0.0  T
   2    -83.7924521 -0.287207E-07  0.794E-04    2.39      19.4  T
   3    -83.7924521 -0.158759E-08  0.402E-04    2.39      38.4  T
   4    -83.7924521 -0.878018E-09  0.661E-05    2.39     233.3  T
   5    -83.7924521 -0.432010E-10  0.137E-05    2.39    1122.5  T
     SCC iter.                  ...        0 min,  0.027 sec
     gradient                   ...        0 min,  0.076 sec
 * total energy  :   -83.0040798 Eh     change       -0.6830489E-05 Eh
   gradient norm :     0.0009297 Eh/α   predicted    -0.4585517E-05 ( -32.87%)
   displ. norm   :     0.0609287 α      lambda       -0.5960954E-05
   maximum displ.:     0.0417133 α      in ANC's #1, #3, #2, ...
 * RMSD in coord.:     0.3666339 α      energy gain  -0.5489263E-03 Eh

generating ANC from model Hessian ...
Using Lindh-Hessian (1995)
 Shifting diagonal of input Hessian by   9.790971431595987E-003
 Lowest  eigenvalues of input Hessian
    0.000000    0.000000    0.000000    0.000000    0.000000    0.000000
    0.010000    0.010088    0.010594    0.010828    0.011709    0.012038
    0.013414    0.014206    0.014342    0.016010    0.016254    0.016842
 Highest eigenvalues
    2.148143    2.185520    2.232068    2.387309    2.402922    2.409431
 

........................................................................
.............................. CYCLE   43 ..............................
........................................................................
   1    -83.7920604 -0.837921E+02  0.183E-03    2.39       0.0  T
   2    -83.7920605 -0.515302E-07  0.934E-04    2.39      16.5  T
   3    -83.7920605 -0.367314E-08  0.501E-04    2.39      30.8  T
   4    -83.7920605 -0.804079E-09  0.878E-05    2.39     175.8  T
   5    -83.7920605 -0.894573E-10  0.165E-05    2.39     936.8  T
     SCC iter.                  ...        0 min,  0.018 sec
     gradient                   ...        0 min,  0.079 sec
 * total energy  :   -83.0040840 Eh     change       -0.4197858E-05 Eh
   gradient norm :     0.0010542 Eh/α   predicted     0.0000000E+00 (-100.00%)
   displ. norm   :     0.0124852 α      lambda       -0.3033611E-05
   maximum displ.:     0.0083440 α      in ANC's #1, #4, #8, ...

........................................................................
.............................. CYCLE   44 ..............................
........................................................................
   1    -83.7924933 -0.837925E+02  0.134E-03    2.39       0.0  T
   2    -83.7924933 -0.148897E-07  0.701E-04    2.39      22.0  T
   3    -83.7924933 -0.311843E-09  0.278E-04    2.39      55.6  T
   4    -83.7924933 -0.448239E-09  0.578E-05    2.39     266.8  T
   5    -83.7924933 -0.347029E-10  0.127E-05    2.39    1210.6  T
     SCC iter.                  ...        0 min,  0.026 sec
     gradient                   ...        0 min,  0.078 sec
 * total energy  :   -83.0040866 Eh     change       -0.2533633E-05 Eh
   gradient norm :     0.0003029 Eh/α   predicted    -0.1528724E-05 ( -39.66%)
   displ. norm   :     0.0150354 α      lambda       -0.1020266E-05
   maximum displ.:     0.0106127 α      in ANC's #1, #4, #8, ...

   *** GEOMETRY OPTIMIZATION CONVERGED AFTER 44 ITERATIONS ***

------------------------------------------------------------------------
 total energy gain   :        -0.0180146 Eh      -11.3043 kcal/mol
 total RMSD          :         0.8576503 a0        0.4538 Å
 total power (kW/mol):        -1.0749365 (step)   -7.4207 (real)
------------------------------------------------------------------------

 ANCopt (total)                0 d,  0 h,  0 min,  6.374 sec
 optimizer setup                ...        0 min,  0.001 sec (  0.016%)
 model hessian                  ...        0 min,  0.090 sec (  1.410%)
 ANC generation                 ...        0 min,  0.007 sec (  0.116%)
 coordinate transformation      ...        0 min,  0.002 sec (  0.026%)
 single point calculation       ...        0 min,  6.247 sec ( 98.014%)
 optimization log               ...        0 min,  0.013 sec (  0.206%)
 hessian update                 ...        0 min,  0.002 sec (  0.024%)
 rational function              ...        0 min,  0.007 sec (  0.116%)

================
 final structure:
================
42
 xtb: 6.5.1 (579679a)
C            5.87851510347607        0.11988660768796       -0.76215067894055
O            4.78331518480416        0.78438328281616       -0.11125459216449
C            3.58159095154232        0.28302479489593       -0.29574015574921
O            3.32231265377008       -0.67650976099804       -0.97195687004578
C            2.48940078850414        1.10844579043382        0.44703754461259
C            3.06196990659168        1.86462596891112        1.64547052750632
N            1.51581821443180        0.14060196773210        0.89480600541126
C            0.54554949112712       -0.19034826277892        0.15123022410716
C           -0.35863256091555       -1.33528454445514        0.55370735901773
C            0.06123101767860       -2.55547053907836       -0.28044887936080
C           -0.22887592825227       -1.61624311667583        2.05312283414935
N           -1.73549658131940       -0.94158509878509        0.23811956544970
C           -2.79200856779943       -1.77123332785005        0.40595389310419
O           -2.72550660831465       -2.95793568043138        0.67213016637040
C           -4.08890984248692       -1.07580933080859        0.21326039337258
N           -5.28099311090669       -1.57942785634600        0.29359651445061
N           -6.15561963739606       -0.55919841656011        0.06915612867908
C           -5.44414969722621        0.50584190517044       -0.13287761590163
C           -5.91952315846797        1.87634729262607       -0.42039352462107
O           -4.12789328109644        0.24801448882304       -0.05509549289604
N            0.27316171074885        0.39113794789079       -1.08160607141931
C            0.89447481499713        1.50776467706406       -1.55384497020260
O            0.60142337383211        2.02437241086707       -2.60747635678713
C            1.98075972733200        2.06018825857026       -0.62224563702606
O            2.42592710455041        3.16763014384646       -0.76989985122748
H            5.78322388695809        0.22802230290172       -1.84406988577814
H            5.87880110649602       -0.93881251340997       -0.49735014916742
H            6.78469119882867        0.60447340668074       -0.40696520089168
H            3.55474027179447        1.16746520688074        2.31882447959446
H            2.25015499975192        2.36001894484672        2.17476918683434
H            3.77732463720028        2.61131225902291        1.30649093160527
H            1.13062090144213       -2.72049218750431       -0.15312528591998
H           -0.47870748215113       -3.44176144406034        0.04623477624807
H           -0.14674632401140       -2.37791033947534       -1.33386883548090
H            0.80538051126248       -1.86187609399705        2.28808410395812
H           -0.52037231023732       -0.73517671376363        2.62183453081222
H           -0.86906266063602       -2.45181969472743        2.33010030671415
H           -1.92786268682904        0.04323904762623        0.15586292906870
H           -5.53349741785334        2.56755142520367        0.32820746959846
H           -7.00646292208085        1.89758999376142       -0.41287810316678
H           -5.55363323510410        2.19853022342478       -1.39513691433615
H           -0.48643354403196        0.02642657402525       -1.63648179958114
 
 Bond Distances (Angstroems)
 ---------------------------
C1-O2=1.4369         C1-H26=1.0915        C1-H27=1.0913        C1-H28=1.0873        O2-C1=1.4369         O2-C3=1.3151         
C3-O2=1.3151         C3-O4=1.2022         C3-C5=1.5575         O4-C3=1.2022         C5-C3=1.5575         C5-C6=1.5284         
C5-N7=1.4440         C5-C24=1.5192        C6-C5=1.5284         C6-H29=1.0873        C6-H30=1.0884        C6-H31=1.0882        
N7-C5=1.4440         N7-C8=1.2664         C8-N7=1.2664         C8-C9=1.5134         C8-N21=1.3900        C9-C8=1.5134         
C9-C10=1.5365        C9-C11=1.5310        C9-N12=1.4664        C10-C9=1.5365        C10-H32=1.0895       C10-H33=1.0880       
C10-H34=1.0883       C11-C9=1.5310        C11-H35=1.0887       C11-H36=1.0884       C11-H37=1.0885       N12-C9=1.4664        
N12-C13=1.3538       N12-H38=1.0068       C13-N12=1.3538       C13-O14=1.2180       C13-C15=1.4841       O14-C13=1.2180       
C15-C13=1.4841       C15-N16=1.2966       C15-O20=1.3513       N16-C15=1.2966       N16-N17=1.3624       N17-N16=1.3624       
N17-C18=1.2967       C18-N17=1.2967       C18-C19=1.4788       C18-O20=1.3435       C19-C18=1.4788       C19-H39=1.0896       
C19-H40=1.0872       C19-H41=1.0899       O20-C15=1.3513       O20-C18=1.3435       N21-C8=1.3900        N21-C22=1.3623       
N21-H42=1.0089       C22-N21=1.3623       C22-O23=1.2095       C22-C24=1.5340       O23-C22=1.2095       C24-C5=1.5192        
C24-C22=1.5340       C24-O25=1.2027       O25-C24=1.2027       H26-C1=1.0915        H27-C1=1.0913        H28-C1=1.0873        
H29-C6=1.0873        H30-C6=1.0884        H31-C6=1.0882        H32-C10=1.0895       H33-C10=1.0880       H34-C10=1.0883       
H35-C11=1.0887       H36-C11=1.0884       H37-C11=1.0885       H38-N12=1.0068       H39-C19=1.0896       H40-C19=1.0872       
H41-C19=1.0899       H42-N21=1.0089       
 C  H  Rav=1.0888 sigma=0.0013  Rmin=1.0872  Rmax=1.0915    15
 C  C  Rav=1.5203 sigma=0.0238  Rmin=1.4788  Rmax=1.5575     9
 N  H  Rav=1.0079 sigma=0.0011  Rmin=1.0068  Rmax=1.0089     2
 N  C  Rav=1.3595 sigma=0.0672  Rmin=1.2664  Rmax=1.4664     8
 N  N  Rav=1.3624 sigma=0.0000  Rmin=1.3624  Rmax=1.3624     1
 O  C  Rav=1.2849 sigma=0.0834  Rmin=1.2022  Rmax=1.4369     8
 
 selected bond angles (degree)
 --------------------
H26-C1-O2=109.67               H27-C1-O2=109.81               H27-C1-H26=109.67              H28-C1-O2=106.33               
H28-C1-H26=110.64              H28-C1-H27=110.66              C3-O2-C1=117.17                O4-C3-O2=125.47                
C5-C3-O2=111.83                C5-C3-O4=122.68                C6-C5-C3=111.93                N7-C5-C3=105.39                
N7-C5-C6=109.94                C24-C5-C3=103.36               C24-C5-C6=111.55               C24-C5-N7=114.36               
H29-C6-C5=109.76               H30-C6-C5=109.09               H30-C6-H29=109.19              H31-C6-C5=109.97               
H31-C6-H29=109.57              H31-C6-H30=109.24              C8-N7-C5=120.64                C9-C8-N7=119.95                
N21-C8-N7=124.16               N21-C8-C9=115.80               C10-C9-C8=107.05               C11-C9-C8=110.40               
C11-C9-C10=111.27              N12-C9-C8=107.49               N12-C9-C10=110.67              N12-C9-C11=109.85              
H32-C10-C9=108.97              H33-C10-C9=110.38              H33-C10-H32=109.19             H34-C10-C9=110.10              
H34-C10-H32=108.99             H34-C10-H33=109.19             
 
 selected dihedral angles (degree)
 ---------------------------------
C3-O2-C1-H26= 66.44           C3-O2-C1-H27=305.86           C3-O2-C1-H28=186.10           O4-C3-O2-C1=359.31            
C5-C3-O2-C1=180.80            C6-C5-C3-O2=334.90            C6-C5-C3-O4=156.34            N7-C5-C3-O2=215.41            
N7-C5-C3-O4= 36.85            C24-C5-C3-O2= 95.08           C24-C5-C3-O4=276.51           H29-C6-C5-C3=304.03           
H29-C6-C5-N7= 60.80           H29-C6-C5-C24=188.76          H30-C6-C5-C3=184.43           H30-C6-C5-N7=301.20           
H30-C6-C5-C24= 69.15          H31-C6-C5-C3= 64.64           H31-C6-C5-N7=181.42           H31-C6-C5-C24=309.37          
C8-N7-C5-C3=271.14            C8-N7-C5-C6=150.35            C8-N7-C5-C24= 23.96           C9-C8-N7-C5=171.83            
N21-C8-N7-C5=355.26           C10-C9-C8-N7=258.12           C10-C9-C8-N21= 74.96          C11-C9-C8-N7= 19.38           
C11-C9-C8-N21=196.22          N12-C9-C8-N7=139.19           N12-C9-C8-N21=316.03          H32-C10-C9-C8= 53.64          
H32-C10-C9-C11=292.93         H32-C10-C9-N12=170.49         H33-C10-C9-C8=173.53          H33-C10-C9-C11= 52.82         
H33-C10-C9-N12=290.39         H34-C10-C9-C8=294.16          H34-C10-C9-C11=173.45         H34-C10-C9-N12= 51.01         
           -------------------------------------------------
          |                Final Singlepoint                |
           -------------------------------------------------

          ...................................................
          :                      SETUP                      :
          :.................................................:
          :  # basis functions                 134          :
          :  # atomic orbitals                 134          :
          :  # shells                           84          :
          :  # electrons                       134          :
          :  # halogen bonds                     0          :
          :  max. iterations                   250          :
          :  Hamiltonian                  GFN1-xTB          :
          :  restarted?                      false          :
          :  GBSA solvation                   true          :
          :  PC potential                    false          :
          :  electronic temp.          300.0000000     K    :
          :  accuracy                    1.0000000          :
          :  -> integral cutoff          0.2500000E+02      :
          :  -> integral neglect         0.1000000E-07      :
          :  -> SCF convergence          0.1000000E-05 Eh   :
          :  -> wf. convergence          0.2000000E-04 e    :
          :  Broyden damping             0.4000000          :
          ...................................................

 iter      E             dE          RMSdq      gap      omega  full diag
   1    -83.7924933 -0.837925E+02  0.250E-06    2.39       0.0  T
   2    -83.7924933 -0.568434E-13  0.115E-06    2.39   13407.2  T
   3    -83.7924933  0.284217E-13  0.545E-07    2.39   28335.5  T

   *** convergence criteria satisfied after 3 iterations ***

         #    Occupation            Energy/Eh            Energy/eV
      -------------------------------------------------------------
         1        2.0000           -0.8663970             -23.5759
       ...           ...                  ...                  ...
        61        2.0000           -0.4710225             -12.8172
        62        2.0000           -0.4647539             -12.6466
        63        2.0000           -0.4617145             -12.5639
        64        2.0000           -0.4588707             -12.4865
        65        2.0000           -0.4529241             -12.3247
        66        2.0000           -0.4501259             -12.2486
        67        2.0000           -0.4402432             -11.9796 (HOMO)
        68                         -0.3522544              -9.5853 (LUMO)
        69                         -0.3127591              -8.5106
        70                         -0.2967902              -8.0761
        71                         -0.2697208              -7.3395
        72                         -0.2573724              -7.0035
       ...                                ...                  ...
       134                          0.7598775              20.6773
      -------------------------------------------------------------
                  HL-Gap            0.0879888 Eh            2.3943 eV
             Fermi-level           -0.3962488 Eh          -10.7825 eV

 SCC (total)                   0 d,  0 h,  0 min,  0.127 sec
 SCC setup                      ...        0 min,  0.002 sec (  1.469%)
 Dispersion                     ...        0 min,  0.000 sec (  0.273%)
 classical contributions        ...        0 min,  0.000 sec (  0.091%)
 integral evaluation            ...        0 min,  0.034 sec ( 26.753%)
 iterations                     ...        0 min,  0.011 sec (  8.953%)
 molecular gradient             ...        0 min,  0.079 sec ( 61.742%)
 printout                       ...        0 min,  0.001 sec (  0.681%)

         :::::::::::::::::::::::::::::::::::::::::::::::::::::
         ::                     SUMMARY                     ::
         :::::::::::::::::::::::::::::::::::::::::::::::::::::
         :: total energy             -83.004086553435 Eh    ::
         :: total w/o Gsasa/hb       -82.983237396197 Eh    ::
         :: gradient norm              0.000306703072 Eh/a0 ::
         :: HOMO-LUMO gap              2.394297673371 eV    ::
         ::.................................................::
         :: SCC energy               -83.792493345395 Eh    ::
         :: -> electrostatic           0.355884252401 Eh    ::
         :: -> Gsolv                  -0.055460005121 Eh    ::
         ::    -> Gelec               -0.034610847883 Eh    ::
         ::    -> Gsasa               -0.024110840031 Eh    ::
         ::    -> Ghb                 -0.004362596212 Eh    ::
         ::    -> Gshift               0.007624279005 Eh    ::
         :: repulsion energy           0.815026209985 Eh    ::
         :: dispersion energy         -0.026619418025 Eh    ::
         :: halogen bond corr.         0.000000000000 Eh    ::
         :: add. restraining           0.000000000000 Eh    ::
         :: total charge               0.000000000000 e     ::
         :::::::::::::::::::::::::::::::::::::::::::::::::::::

           -------------------------------------------------
          |                Property Printout                |
           -------------------------------------------------

    * Orbital Energies and Occupations

         #    Occupation            Energy/Eh            Energy/eV
      -------------------------------------------------------------
         1        2.0000           -0.8663970             -23.5759
       ...           ...                  ...                  ...
        55        2.0000           -0.5114286             -13.9167
        56        2.0000           -0.5067871             -13.7904
        57        2.0000           -0.5058543             -13.7650
        58        2.0000           -0.5015993             -13.6492
        59        2.0000           -0.4915404             -13.3755
        60        2.0000           -0.4809821             -13.0882
        61        2.0000           -0.4710225             -12.8172
        62        2.0000           -0.4647539             -12.6466
        63        2.0000           -0.4617145             -12.5639
        64        2.0000           -0.4588707             -12.4865
        65        2.0000           -0.4529241             -12.3247
        66        2.0000           -0.4501259             -12.2486
        67        2.0000           -0.4402432             -11.9796 (HOMO)
        68                         -0.3522544              -9.5853 (LUMO)
        69                         -0.3127591              -8.5106
        70                         -0.2967902              -8.0761
        71                         -0.2697208              -7.3395
        72                         -0.2573724              -7.0035
        73                         -0.2244818              -6.1085
        74                         -0.2004726              -5.4551
        75                         -0.1466110              -3.9895
        76                         -0.1421919              -3.8692
        77                         -0.1278746              -3.4796
        78                         -0.1249488              -3.4000
       ...                                ...                  ...
       134                          0.7598775              20.6773
      -------------------------------------------------------------
                  HL-Gap            0.0879888 Eh            2.3943 eV
             Fermi-level           -0.3962488 Eh          -10.7825 eV

  Mulliken/CM5 charges         n(s)   n(p)   n(d)
     1C     0.15989  0.03829   0.986  2.854  0.000
     2O    -0.39621 -0.48688   1.682  4.714  0.000
     3C     0.58928  0.65717   0.973  2.438  0.000
     4O    -0.53856 -0.58450   1.721  4.817  0.000
     5C     0.09865  0.15387   1.074  2.828  0.000
     6C    -0.08576 -0.22308   1.014  3.072  0.000
     7N    -0.38365 -0.57320   1.537  3.847  0.000
     8C     0.29429  0.44647   1.021  2.685  0.000
     9C     0.15354  0.19375   1.065  2.782  0.000
    10C    -0.09987 -0.23921   1.020  3.080  0.000
    11C    -0.10149 -0.23976   1.017  3.084  0.000
    12N    -0.35446 -0.70927   1.436  3.918  0.000
    13C     0.47359  0.58142   0.977  2.550  0.000
    14O    -0.57001 -0.61512   1.726  4.844  0.000
    15C     0.33055  0.45627   1.008  2.662  0.000
    16N    -0.21952 -0.32344   1.566  3.654  0.000
    17N    -0.26672 -0.37441   1.564  3.703  0.000
    18C     0.39250  0.50112   1.008  2.600  0.000
    19C    -0.11227 -0.24972   1.012  3.100  0.000
    20O    -0.35874 -0.41613   1.697  4.662  0.000
    21N    -0.30865 -0.65464   1.434  3.874  0.000
    22C     0.46575  0.57219   0.998  2.536  0.000
    23O    -0.52323 -0.56222   1.724  4.800  0.000
    24C     0.36688  0.41407   1.081  2.552  0.000
    25O    -0.46760 -0.51396   1.728  4.740  0.000
    26H     0.06166  0.12273   0.938  0.000  0.000
    27H     0.06225  0.12436   0.938  0.000  0.000
    28H     0.06572  0.12609   0.934  0.000  0.000
    29H     0.05594  0.11364   0.944  0.000  0.000
    30H     0.05734  0.11394   0.943  0.000  0.000
    31H     0.06059  0.12112   0.939  0.000  0.000
    32H     0.05023  0.10650   0.950  0.000  0.000
    33H     0.06539  0.12560   0.935  0.000  0.000
    34H     0.04767  0.10633   0.952  0.000  0.000
    35H     0.04869  0.10665   0.951  0.000  0.000
    36H     0.04640  0.10434   0.954  0.000  0.000
    37H     0.05879  0.11799   0.941  0.000  0.000
    38H     0.26362  0.47402   0.736  0.000  0.000
    39H     0.08006  0.13467   0.920  0.000  0.000
    40H     0.07038  0.12615   0.930  0.000  0.000
    41H     0.08091  0.13541   0.919  0.000  0.000
    42H     0.28620  0.49138   0.714  0.000  0.000

Wiberg/Mayer (AO) data.
largest (>0.10) Wiberg bond orders for each atom

 ---------------------------------------------------------------------------
     #   Z sym  total        # sym  WBO       # sym  WBO       # sym  WBO
 ---------------------------------------------------------------------------
     1   6 C    3.852 --    28 H    0.985    27 H    0.980    26 H    0.979
                             2 O    0.874
     2   8 O    2.231 --     3 C    1.158     1 C    0.874     4 O    0.140
     3   6 C    3.845 --     4 O    1.695     2 O    1.158     5 C    0.864
     4   8 O    1.966 --     3 C    1.695     2 O    0.140
     5   6 C    3.964 --     6 C    0.982     7 N    0.981    24 C    0.948
                             3 C    0.864
     6   6 C    3.985 --    29 H    0.985    30 H    0.983    31 H    0.982
                             5 C    0.982
     7   7 N    3.028 --     8 C    1.759     5 C    0.981
     8   6 C    3.927 --     7 N    1.759    21 N    1.066     9 C    0.979
     9   6 C    3.933 --    11 C    0.990     8 C    0.979    10 C    0.975
                            12 N    0.924
    10   6 C    3.987 --    32 H    0.984    34 H    0.984    33 H    0.977
                             9 C    0.975
    11   6 C    3.988 --     9 C    0.990    36 H    0.985    35 H    0.983
                            37 H    0.982
    12   7 N    3.331 --    13 C    1.240     9 C    0.924    38 H    0.894
                            14 O    0.172
    13   6 C    3.915 --    14 O    1.597    12 N    1.240    15 C    0.993
    14   8 O    1.911 --    13 C    1.597    12 N    0.172
    15   6 C    3.872 --    16 N    1.622    20 O    1.046    13 C    0.993
    16   7 N    3.001 --    15 C    1.622    17 N    1.199
    17   7 N    2.982 --    18 C    1.610    16 N    1.199
    18   6 C    3.868 --    17 N    1.610    20 O    1.072    19 C    1.032
    19   6 C    3.986 --    18 C    1.032    40 H    0.982    39 H    0.963
                            41 H    0.962
    20   8 O    2.316 --    18 C    1.072    15 C    1.046
    21   7 N    3.430 --    22 C    1.186     8 C    1.066    42 H    0.880
                            23 O    0.149
    22   6 C    3.893 --    23 O    1.675    21 N    1.186    24 C    0.906
    23   8 O    1.959 --    22 C    1.675    21 N    0.149
    24   6 C    3.847 --    25 O    1.813     5 C    0.948    22 C    0.906
    25   8 O    2.027 --    24 C    1.813
    26   1 H    1.003 --     1 C    0.979
    27   1 H    1.004 --     1 C    0.980
    28   1 H    1.007 --     1 C    0.985
    29   1 H    1.003 --     6 C    0.985
    30   1 H    1.001 --     6 C    0.983
    31   1 H    1.008 --     6 C    0.982
    32   1 H    1.004 --    10 C    0.984
    33   1 H    1.011 --    10 C    0.977
    34   1 H    1.000 --    10 C    0.984
    35   1 H    1.009 --    11 C    0.983
    36   1 H    1.003 --    11 C    0.985
    37   1 H    1.005 --    11 C    0.982
    38   1 H    0.938 --    12 N    0.894
    39   1 H    0.997 --    19 C    0.963
    40   1 H    0.998 --    19 C    0.982
    41   1 H    0.996 --    19 C    0.962
    42   1 H    0.926 --    21 N    0.880
 ---------------------------------------------------------------------------

Topologies differ in total number of bonds
Writing topology from bond orders to xtbtopo.mol

 dipole moment from electron density (au)
     X       Y       Z   
   1.1294   1.6120   0.7103  total (Debye):    5.319

           -------------------------------------------------
          |                Geometry Summary                 |
           -------------------------------------------------

      molecular mass/u    :      351.3152409
   center of mass at/Å    :       -0.2491639       0.0407085      -0.0936977
  moments of inertia/u·Å² :        0.1097181E+04   0.4540932E+04   0.5116587E+04
rotational constants/cm⁻¹ :        0.1536449E-01   0.3712373E-02   0.3294703E-02

 * 36 selected distances

     #   Z          #   Z                                           value/Å
     1   6 C        2   8 O                                       1.4369011
     2   8 O        3   6 C                                       1.3151185
     3   6 C        4   8 O                                       1.2021652
     5   6 C        6   6 C                                       1.5283605
     7   7 N        8   6 C                                       1.2664338
     9   6 C       10   6 C                                       1.5365404 (max)
     9   6 C       11   6 C                                       1.5310198
     9   6 C       12   7 N                                       1.4664071
    12   7 N       13   6 C                                       1.3537734
    13   6 C       14   8 O                                       1.2180045
    15   6 C       16   7 N                                       1.2965910
    17   7 N       18   6 C                                       1.2966566
    18   6 C       19   6 C                                       1.4788275
    15   6 C       20   8 O                                       1.3513121
    18   6 C       20   8 O                                       1.3435238
     8   6 C       21   7 N                                       1.3900385
    21   7 N       22   6 C                                       1.3623124
    22   6 C       23   8 O                                       1.2095049
    24   6 C       25   8 O                                       1.2026652
     1   6 C       26   1 H                                       1.0914775
     1   6 C       27   1 H                                       1.0913127
     1   6 C       28   1 H                                       1.0872610
     6   6 C       29   1 H                                       1.0873185
     6   6 C       30   1 H                                       1.0884002
     6   6 C       31   1 H                                       1.0882004
    10   6 C       32   1 H                                       1.0895129
    10   6 C       33   1 H                                       1.0880108
    10   6 C       34   1 H                                       1.0883364
    11   6 C       35   1 H                                       1.0886822
    11   6 C       36   1 H                                       1.0884307
    11   6 C       37   1 H                                       1.0884595
    12   7 N       38   1 H                                       1.0068017 (min)
    19   6 C       39   1 H                                       1.0895791
    19   6 C       40   1 H                                       1.0871734
    19   6 C       41   1 H                                       1.0898634
    21   7 N       42   1 H                                       1.0089037

 * 5 distinct bonds (by element types)

   Z      Z             #   av. dist./Å        max./Å        min./Å
   1 H    6 C          15     1.0888012     1.0914775     1.0871734
   6 C    6 C           4     1.5186871     1.5365404     1.4788275
   1 H    7 N           2     1.0078527     1.0089037     1.0068017
   6 C    7 N           7     1.3474590     1.4664071     1.2664338
   6 C    8 O           8     1.2848994     1.4369011     1.2021652


optimized geometry written to: xtbopt.xyz


           -------------------------------------------------
          | TOTAL ENERGY              -83.004086553435 Eh   |
          | GRADIENT NORM               0.000306703072 Eh/α |
          | HOMO-LUMO GAP               2.394297673371 eV   |
           -------------------------------------------------

------------------------------------------------------------------------
 * finished run on 2023/06/21 at 17:32:45.403     
------------------------------------------------------------------------
 total:
 * wall-time:     0 d,  0 h,  0 min,  6.887 sec
 *  cpu-time:     0 d,  0 h,  0 min,  6.644 sec
 * ratio c/w:     0.965 speedup
 SCF:
 * wall-time:     0 d,  0 h,  0 min,  0.165 sec
 *  cpu-time:     0 d,  0 h,  0 min,  0.165 sec
 * ratio c/w:     0.996 speedup
 ANC optimizer:
 * wall-time:     0 d,  0 h,  0 min,  6.560 sec
 *  cpu-time:     0 d,  0 h,  0 min,  6.428 sec
 * ratio c/w:     0.980 speedup

