
                                 *****************
                                 * O   R   C   A *
                                 *****************

                                            #,                                       
                                            ###                                      
                                            ####                                     
                                            #####                                    
                                            ######                                   
                                           ########,                                 
                                     ,,################,,,,,                         
                               ,,#################################,,                 
                          ,,##########################################,,             
                       ,#########################################, ''#####,          
                    ,#############################################,,   '####,        
                  ,##################################################,,,,####,       
                ,###########''''           ''''###############################       
              ,#####''   ,,,,##########,,,,          '''####'''          '####       
            ,##' ,,,,###########################,,,                        '##       
           ' ,,###''''                  '''############,,,                           
         ,,##''                                '''############,,,,        ,,,,,,###''
      ,#''                                            '''#######################'''  
     '                                                          ''''####''''         
             ,#######,   #######,   ,#######,      ##                                
            ,#'     '#,  ##    ##  ,#'     '#,    #''#        ######   ,####,        
            ##       ##  ##   ,#'  ##            #'  '#       #        #'  '#        
            ##       ##  #######   ##           ,######,      #####,   #    #        
            '#,     ,#'  ##    ##  '#,     ,#' ,#      #,         ##   #,  ,#        
             '#######'   ##     ##  '#######'  #'      '#     #####' # '####'        



                  #######################################################
                  #                        -***-                        #
                  #          Department of theory and spectroscopy      #
                  #    Directorship and core code : Frank Neese         #
                  #        Max Planck Institute fuer Kohlenforschung    #
                  #                Kaiser Wilhelm Platz 1               #
                  #                 D-45470 Muelheim/Ruhr               #
                  #                      Germany                        #
                  #                                                     #
                  #                  All rights reserved                #
                  #                        -***-                        #
                  #######################################################


                         Program Version 5.0.1 -  RELEASE  -


 With contributions from (in alphabetic order):
   Daniel Aravena         : Magnetic Suceptibility
   Michael Atanasov       : Ab Initio Ligand Field Theory (pilot matlab implementation)
   Alexander A. Auer      : GIAO ZORA, VPT2 properties, NMR spectrum
   Ute Becker             : Parallelization
   Giovanni Bistoni       : ED, misc. LED, open-shell LED, HFLD
   Martin Brehm           : Molecular dynamics
   Dmytro Bykov           : SCF Hessian
   Vijay G. Chilkuri      : MRCI spin determinant printing, contributions to CSF-ICE
   Dipayan Datta          : RHF DLPNO-CCSD density
   Achintya Kumar Dutta   : EOM-CC, STEOM-CC
   Dmitry Ganyushin       : Spin-Orbit,Spin-Spin,Magnetic field MRCI
   Miquel Garcia          : C-PCM and meta-GGA Hessian, CC/C-PCM, Gaussian charge scheme
   Yang Guo               : DLPNO-NEVPT2, F12-NEVPT2, CIM, IAO-localization
   Andreas Hansen         : Spin unrestricted coupled pair/coupled cluster methods
   Benjamin Helmich-Paris : MC-RPA, TRAH-SCF, COSX integrals
   Lee Huntington         : MR-EOM, pCC
   Robert Izsak           : Overlap fitted RIJCOSX, COSX-SCS-MP3, EOM
   Marcus Kettner         : VPT2
   Christian Kollmar      : KDIIS, OOCD, Brueckner-CCSD(T), CCSD density, CASPT2, CASPT2-K
   Simone Kossmann        : Meta GGA functionals, TD-DFT gradient, OOMP2, MP2 Hessian
   Martin Krupicka        : Initial AUTO-CI
   Lucas Lang             : DCDCAS
   Marvin Lechner         : AUTO-CI (C++ implementation), FIC-MRCC
   Dagmar Lenk            : GEPOL surface, SMD
   Dimitrios Liakos       : Extrapolation schemes; Compound Job, initial MDCI parallelization
   Dimitrios Manganas     : Further ROCIS development; embedding schemes
   Dimitrios Pantazis     : SARC Basis sets
   Anastasios Papadopoulos: AUTO-CI, single reference methods and gradients
   Taras Petrenko         : DFT Hessian,TD-DFT gradient, ASA, ECA, R-Raman, ABS, FL, XAS/XES, NRVS
   Peter Pinski           : DLPNO-MP2, DLPNO-MP2 Gradient
   Christoph Reimann      : Effective Core Potentials
   Marius Retegan         : Local ZFS, SOC
   Christoph Riplinger    : Optimizer, TS searches, QM/MM, DLPNO-CCSD(T), (RO)-DLPNO pert. Triples
   Tobias Risthaus        : Range-separated hybrids, TD-DFT gradient, RPA, STAB
   Michael Roemelt        : Original ROCIS implementation
   Masaaki Saitow         : Open-shell DLPNO-CCSD energy and density
   Barbara Sandhoefer     : DKH picture change effects
   Avijit Sen             : IP-ROCIS
   Kantharuban Sivalingam : CASSCF convergence, NEVPT2, FIC-MRCI
   Bernardo de Souza      : ESD, SOC TD-DFT
   Georgi Stoychev        : AutoAux, RI-MP2 NMR, DLPNO-MP2 response
   Willem Van den Heuvel  : Paramagnetic NMR
   Boris Wezisla          : Elementary symmetry handling
   Frank Wennmohs         : Technical directorship


 We gratefully acknowledge several colleagues who have allowed us to
 interface, adapt or use parts of their codes:
   Stefan Grimme, W. Hujo, H. Kruse, P. Pracht,  : VdW corrections, initial TS optimization,
                  C. Bannwarth, S. Ehlert          DFT functionals, gCP, sTDA/sTD-DF
   Ed Valeev, F. Pavosevic, A. Kumar             : LibInt (2-el integral package), F12 methods
   Garnet Chan, S. Sharma, J. Yang, R. Olivares  : DMRG
   Ulf Ekstrom                                   : XCFun DFT Library
   Mihaly Kallay                                 : mrcc  (arbitrary order and MRCC methods)
   Jiri Pittner, Ondrej Demel                    : Mk-CCSD
   Frank Weinhold                                : gennbo (NPA and NBO analysis)
   Christopher J. Cramer and Donald G. Truhlar   : smd solvation model
   Lars Goerigk                                  : TD-DFT with DH, B97 family of functionals
   V. Asgeirsson, H. Jonsson                     : NEB implementation
   FAccTs GmbH                                   : IRC, NEB, NEB-TS, DLPNO-Multilevel, CI-OPT
                                                   MM, QMMM, 2- and 3-layer-ONIOM, Crystal-QMMM,
                                                   LR-CPCM, SF, NACMEs, symmetry and pop. for TD-DFT,
                                                   nearIR, NL-DFT gradient (VV10), updates on ESD,
                                                   ML-optimized integration grids
   S Lehtola, MJT Oliveira, MAL Marques          : LibXC Library
   Liviu Ungur et al                             : ANISO software


 Your calculation uses the libint2 library for the computation of 2-el integrals
 For citations please refer to: http://libint.valeyev.net

 Your ORCA version has been built with support for libXC version: 5.1.0
 For citations please refer to: https://tddft.org/programs/libxc/

 This ORCA versions uses:
   CBLAS   interface :  Fast vector & matrix operations
   LAPACKE interface :  Fast linear algebra routines
   SCALAPACK package :  Parallel linear algebra routines
   Shared memory     :  Shared parallel matrices
   BLAS/LAPACK       :  OpenBLAS 0.3.15  USE64BITINT DYNAMIC_ARCH NO_AFFINITY Zen SINGLE_THREADED
        Core in use  :  Zen
   Copyright (c) 2011-2014, The OpenBLAS Project


Your calculation utilizes the geometrical counterpoise correction gCP
Please cite in your paper:
H.Kruse, S. Grimme J.Chem.Phys., 136, (2012), 154101 
   

Your calculation utilizes the atom-pairwise dispersion correction
based on tight binding partial charges (D4)
Cite in your paper:
E.Caldeweyher, C.Bannwarth, S.Grimme, J.Chem.Phys., (2017), 147, 034112.
E.Caldeweyher, S.Ehlert, A.Hansen, H.Neugebauer, S.Grimme, J.Chem.Phys., (2018), in progress.
   

Your calculation utilizes the SMD solvation module
Please cite in your paper:
A.V. Marenich, C.J. Cramer, D.G. Truhlar J. Phys. Chem. B, 113, (2009), 6378 

================================================================================

----- Orbital basis set information -----
Your calculation utilizes the basis: def2-mTZVPP
   Stefan Grimme, Andreas Hansen, Sebastian Ehlert, and Jan-Michael Mewes 
   J. Chem. Phys. 154, 000000 (2021). DOI: 10.1063/5.0040021

----- AuxJ basis set information -----
Your calculation utilizes the basis: def2-mTZVPP/J
   Stefan Grimme, Andreas Hansen, Sebastian Ehlert, and Jan-Michael Mewes 
   J. Chem. Phys. 154, 000000 (2021). DOI: 10.1063/5.0040021

================================================================================
                                        WARNINGS
                       Please study these warnings very carefully!
================================================================================

Using LibXC functional ID 497 : Re-regularized SCAN exchange by Furness et al
[ 1]  J. W. Furness, A. D. Kaplan, J. Ning, J. P. Perdew, and J. Sun, J. Phys. Chem. Lett. 11, 8208 (2020)
[ 2]  J. W. Furness, A. D. Kaplan, J. Ning, J. P. Perdew, and J. Sun, J. Phys. Chem. Lett. 11, 9248 (2020)
Using LibXC functional ID 498 : Re-regularized SCAN correlation by Furness et al
[ 1]  J. W. Furness, A. D. Kaplan, J. Ning, J. P. Perdew, and J. Sun, J. Phys. Chem. Lett. 11, 8208 (2020)
[ 2]  J. W. Furness, A. D. Kaplan, J. Ning, J. P. Perdew, and J. Sun, J. Phys. Chem. Lett. 11, 9248 (2020)
Using LibXC functional ID 497 : Re-regularized SCAN exchange by Furness et al
[ 1]  J. W. Furness, A. D. Kaplan, J. Ning, J. P. Perdew, and J. Sun, J. Phys. Chem. Lett. 11, 8208 (2020)
[ 2]  J. W. Furness, A. D. Kaplan, J. Ning, J. P. Perdew, and J. Sun, J. Phys. Chem. Lett. 11, 9248 (2020)
Using LibXC functional ID 498 : Re-regularized SCAN correlation by Furness et al
[ 1]  J. W. Furness, A. D. Kaplan, J. Ning, J. P. Perdew, and J. Sun, J. Phys. Chem. Lett. 11, 8208 (2020)
[ 2]  J. W. Furness, A. D. Kaplan, J. Ning, J. P. Perdew, and J. Sun, J. Phys. Chem. Lett. 11, 9248 (2020)

INFO   : the flag for use of the SHARK integral package has been found!

================================================================================
                                       INPUT FILE
================================================================================
NAME = /lustre/hpc/kemi/ree/PhD/git/ReactivityQM/calculations/R03/reac01prodN01/conf06/gfn1/orca_calc.inp
|  1> # ORCA input file 
|  2> ! SP r2SCAN-3c CPCM 
|  3> 
|  4> %maxcore 1875.0 
|  5> %pal nprocs 4 end 
|  6> %cpcm smd true SMDsolvent "DMSO" end 
|  7> 
|  8> *xyz 1 1
|  9> C      -2.255215    0.896466    0.543423
| 10> N      -2.124986   -0.394637   -0.172801
| 11> C      -0.985106   -1.235635    0.320098
| 12> C       0.331286   -0.556465    0.049836
| 13> C       0.846350   -0.535057   -1.246125
| 14> C       2.060086    0.081048   -1.509610
| 15> C       2.742432    0.665289   -0.455916
| 16> F       3.914437    1.257393   -0.700884
| 17> C       2.259244    0.659770    0.841002
| 18> C       1.040961    0.043902    1.088361
| 19> H      -1.338271    1.463762    0.404299
| 20> H      -2.420215    0.691552    1.598139
| 21> H      -3.103012    1.429565    0.120844
| 22> H      -2.004538   -0.217045   -1.167151
| 23> H      -2.983961   -0.923645   -0.057308
| 24> H      -1.148011   -1.398411    1.385999
| 25> H      -1.060322   -2.185022   -0.212911
| 26> H       0.295637   -1.005186   -2.051126
| 27> H       2.470096    0.106203   -2.511049
| 28> H       2.821842    1.128770    1.637962
| 29> H       0.641264    0.027382    2.094918
| 30> **                         ****END OF INPUT****
================================================================================

                       ****************************
                       * Single Point Calculation *
                       ****************************

---------------------------------
CARTESIAN COORDINATES (ANGSTROEM)
---------------------------------
  C     -2.255215    0.896466    0.543423
  N     -2.124986   -0.394637   -0.172801
  C     -0.985106   -1.235635    0.320098
  C      0.331286   -0.556465    0.049836
  C      0.846350   -0.535057   -1.246125
  C      2.060086    0.081048   -1.509610
  C      2.742432    0.665289   -0.455916
  F      3.914437    1.257393   -0.700884
  C      2.259244    0.659770    0.841002
  C      1.040961    0.043902    1.088361
  H     -1.338271    1.463762    0.404299
  H     -2.420215    0.691552    1.598139
  H     -3.103012    1.429565    0.120844
  H     -2.004538   -0.217045   -1.167151
  H     -2.983961   -0.923645   -0.057308
  H     -1.148011   -1.398411    1.385999
  H     -1.060322   -2.185022   -0.212911
  H      0.295637   -1.005186   -2.051126
  H      2.470096    0.106203   -2.511049
  H      2.821842    1.128770    1.637962
  H      0.641264    0.027382    2.094918

----------------------------
CARTESIAN COORDINATES (A.U.)
----------------------------
  NO LB      ZA    FRAG     MASS         X           Y           Z
   0 C     6.0000    0    12.011   -4.261739    1.694075    1.026921
   1 N     7.0000    0    14.007   -4.015642   -0.745756   -0.326547
   2 C     6.0000    0    12.011   -1.861581   -2.335012    0.604898
   3 C     6.0000    0    12.011    0.626040   -1.051566    0.094176
   4 C     6.0000    0    12.011    1.599370   -1.011111   -2.354835
   5 C     6.0000    0    12.011    3.892998    0.153159   -2.852749
   6 C     6.0000    0    12.011    5.182445    1.257214   -0.861556
   7 F     9.0000    0    18.998    7.397214    2.376128   -1.324479
   8 C     6.0000    0    12.011    4.269352    1.246785    1.589263
   9 C     6.0000    0    12.011    1.967131    0.082963    2.056704
  10 H     1.0000    0     1.008   -2.528966    2.766109    0.764014
  11 H     1.0000    0     1.008   -4.573544    1.306844    3.020045
  12 H     1.0000    0     1.008   -5.863843    2.701486    0.228362
  13 H     1.0000    0     1.008   -3.788028   -0.410156   -2.205596
  14 H     1.0000    0     1.008   -5.638869   -1.745436   -0.108296
  15 H     1.0000    0     1.008   -2.169426   -2.642614    2.619159
  16 H     1.0000    0     1.008   -2.003718   -4.129093   -0.402343
  17 H     1.0000    0     1.008    0.558673   -1.899526   -3.876066
  18 H     1.0000    0     1.008    4.667805    0.200695   -4.745195
  19 H     1.0000    0     1.008    5.332509    2.133066    3.095300
  20 H     1.0000    0     1.008    1.211813    0.051744    3.958821

--------------------------------
INTERNAL COORDINATES (ANGSTROEM)
--------------------------------
 C      0   0   0     0.000000000000     0.00000000     0.00000000
 N      1   0   0     1.482188708372     0.00000000     0.00000000
 C      2   1   0     1.499851150816   113.35366603     0.00000000
 C      3   2   1     1.505722861355   110.64205066   295.44361998
 C      4   3   2     1.394727263690   119.77275605   284.86309232
 C      5   4   3     1.386421578722   120.44467754   180.29525729
 C      6   5   4     1.384631595564   118.31389941     0.23307064
 F      7   6   5     1.335736571284   118.67698289   179.80208889
 C      7   6   5     1.384014957083   122.64100156   359.83806186
 C      9   7   6     1.387333174257   118.38717180   359.92066911
 H      1   2   3     1.087182844846   108.57774165    60.18817819
 H      1   2   3     1.087032928688   108.54118577   300.00325794
 H      1   2   3     1.086980822393   107.93164622   180.13880020
 H      2   1   3     1.017240660644   109.30978264   237.91538805
 H      2   1   3     1.015394577363   108.93717437   120.60106359
 H      3   2   1     1.090494845014   106.94089995    57.57311497
 H      3   2   1     1.091371484191   105.95581379   174.55689620
 H      5   4   3     1.082743134363   119.75790274     0.12913251
 H      6   5   4     1.082414451514   121.18268181   180.10629657
 H      9   7   6     1.082415239732   120.44809086   180.08692964
 H     10   9   7     1.083137847394   119.76967513   180.06542962

---------------------------
INTERNAL COORDINATES (A.U.)
---------------------------
 C      0   0   0     0.000000000000     0.00000000     0.00000000
 N      1   0   0     2.800930737614     0.00000000     0.00000000
 C      2   1   0     2.834307916689   113.35366603     0.00000000
 C      3   2   1     2.845403841546   110.64205066   295.44361998
 C      4   3   2     2.635652559888   119.77275605   284.86309232
 C      5   4   3     2.619957089943   120.44467754   180.29525729
 C      6   5   4     2.616574511990   118.31389941     0.23307064
 F      7   6   5     2.524176306789   118.67698289   179.80208889
 C      7   6   5     2.615409234137   122.64100156   359.83806186
 C      9   7   6     2.621679755849   118.38717180   359.92066911
 H      1   2   3     2.054477834257   108.57774165    60.18817819
 H      1   2   3     2.054194533775   108.54118577   300.00325794
 H      1   2   3     2.054096067148   107.93164622   180.13880020
 H      2   1   3     1.922306260907   109.30978264   237.91538805
 H      2   1   3     1.918817669085   108.93717437   120.60106359
 H      3   2   1     2.060736607529   106.94089995    57.57311497
 H      3   2   1     2.062393215493   105.95581379   174.55689620
 H      5   4   3     2.046087997330   119.75790274     0.12913251
 H      6   5   4     2.045466876760   121.18268181   180.10629657
 H      9   7   6     2.045468366276   120.44809086   180.08692964
 H     10   9   7     2.046833896860   119.76967513   180.06542962

---------------------
BASIS SET INFORMATION
---------------------
There are 4 groups of distinct atoms

 Group   1 Type C   : 11s6p1d contracted to 5s3p1d pattern {62111/411/1}
 Group   2 Type N   : 11s6p2d contracted to 5s3p2d pattern {62111/411/11}
 Group   3 Type F   : 11s6p2d contracted to 5s3p2d pattern {62111/411/11}
 Group   4 Type H   : 4s1p contracted to 2s1p pattern {31/1}

Atom   0C    basis set group =>   1
Atom   1N    basis set group =>   2
Atom   2C    basis set group =>   1
Atom   3C    basis set group =>   1
Atom   4C    basis set group =>   1
Atom   5C    basis set group =>   1
Atom   6C    basis set group =>   1
Atom   7F    basis set group =>   3
Atom   8C    basis set group =>   1
Atom   9C    basis set group =>   1
Atom  10H    basis set group =>   4
Atom  11H    basis set group =>   4
Atom  12H    basis set group =>   4
Atom  13H    basis set group =>   4
Atom  14H    basis set group =>   4
Atom  15H    basis set group =>   4
Atom  16H    basis set group =>   4
Atom  17H    basis set group =>   4
Atom  18H    basis set group =>   4
Atom  19H    basis set group =>   4
Atom  20H    basis set group =>   4
---------------------------------
AUXILIARY/J BASIS SET INFORMATION
---------------------------------
There are 4 groups of distinct atoms

 Group   1 Type C   : 8s3p3d contracted to 6s3p3d pattern {311111/111/111}
 Group   2 Type N   : 8s3p3d contracted to 6s3p3d pattern {311111/111/111}
 Group   3 Type F   : 8s3p4d contracted to 6s3p4d pattern {311111/111/1111}
 Group   4 Type H   : 5s2p1d contracted to 3s1p1d pattern {311/2/1}

Atom   0C    basis set group =>   1
Atom   1N    basis set group =>   2
Atom   2C    basis set group =>   1
Atom   3C    basis set group =>   1
Atom   4C    basis set group =>   1
Atom   5C    basis set group =>   1
Atom   6C    basis set group =>   1
Atom   7F    basis set group =>   3
Atom   8C    basis set group =>   1
Atom   9C    basis set group =>   1
Atom  10H    basis set group =>   4
Atom  11H    basis set group =>   4
Atom  12H    basis set group =>   4
Atom  13H    basis set group =>   4
Atom  14H    basis set group =>   4
Atom  15H    basis set group =>   4
Atom  16H    basis set group =>   4
Atom  17H    basis set group =>   4
Atom  18H    basis set group =>   4
Atom  19H    basis set group =>   4
Atom  20H    basis set group =>   4


           ************************************************************
           *        Program running with 4 parallel MPI-processes     *
           *              working on a common directory               *
           ************************************************************
------------------------------------------------------------------------------
                           ORCA GTO INTEGRAL CALCULATION
                           -- RI-GTO INTEGRALS CHOSEN --
------------------------------------------------------------------------------
------------------------------------------------------------------------------
                   ___                                                        
                  /   \      - P O W E R E D   B Y -                         
                 /     \                                                     
                 |  |  |   _    _      __       _____    __    __             
                 |  |  |  | |  | |    /  \     |  _  \  |  |  /  |          
                  \  \/   | |  | |   /    \    | | | |  |  | /  /          
                 / \  \   | |__| |  /  /\  \   | |_| |  |  |/  /          
                |  |  |   |  __  | /  /__\  \  |    /   |      \           
                |  |  |   | |  | | |   __   |  |    \   |  |\   \          
                \     /   | |  | | |  |  |  |  | |\  \  |  | \   \       
                 \___/    |_|  |_| |__|  |__|  |_| \__\ |__|  \__/        
                                                                              
                      - O R C A' S   B I G   F R I E N D -                    
                                      &                                       
                       - I N T E G R A L  F E E D E R -                       
                                                                              
 v1 FN, 2020, v2 2021                                                         
------------------------------------------------------------------------------


Reading SHARK input file /lustre/hpc/kemi/ree/PhD/git/ReactivityQM/calculations/R03/reac01prodN01/conf06/gfn1/orca_calc.SHARKINP.tmp ... ok
----------------------
SHARK INTEGRAL PACKAGE
----------------------

Number of atoms                             ...     21
Number of basis functions                   ...    255
Number of shells                            ...    125
Maximum angular momentum                    ...      2
Integral batch strategy                     ... SHARK/LIBINT Hybrid
RI-J (if used) integral strategy            ... SPLIT-RIJ (Revised 2003 algorithm where possible)
Printlevel                                  ...      1
Contraction scheme used                     ... SEGMENTED contraction
Coulomb Range Separation                    ... NOT USED
Exchange Range Separation                   ... NOT USED
Finite Nucleus Model                        ... NOT USED
Auxiliary Coulomb fitting basis             ... AVAILABLE
   # of basis functions in Aux-J            ...    426
   # of shells in Aux-J                     ...    176
   Maximum angular momentum in Aux-J        ...      2
Auxiliary J/K fitting basis                 ... NOT available
Auxiliary Correlation fitting basis         ... NOT available
Auxiliary 'external' fitting basis          ... NOT available
Integral threshold                          ...     1.000000e-10
Primitive cut-off                           ...     1.000000e-11
Primitive pair pre-selection threshold      ...     1.000000e-11

Calculating pre-screening integrals         ... done (  0.1 sec) Dimension = 125
Organizing shell pair data                  ... done (  0.0 sec)
Shell pair information
Total number of shell pairs                 ...      7875
Shell pairs after pre-screening             ...      6758
Total number of primitive shell pairs       ...     28456
Primitive shell pairs kept                  ...     16899
          la=0 lb=0:   2195 shell pairs
          la=1 lb=0:   2556 shell pairs
          la=1 lb=1:    774 shell pairs
          la=2 lb=0:    735 shell pairs
          la=2 lb=1:    429 shell pairs
          la=2 lb=2:     69 shell pairs

Calculating one electron integrals          ... done (  0.0 sec)
Calculating RI/J V-Matrix + Cholesky decomp.... done (  0.0 sec)
Calculating Nuclear repulsion               ... done (  0.0 sec) ENN=    520.905587388115 Eh

SHARK setup successfully completed in   0.2 seconds

Maximum memory used throughout the entire GTOINT-calculation: 11.0 MB


           ************************************************************
           *        Program running with 4 parallel MPI-processes     *
           *              working on a common directory               *
           ************************************************************
-------------------------------------------------------------------------------
                                 ORCA SCF
-------------------------------------------------------------------------------

------------
SCF SETTINGS
------------
Hamiltonian:
 Density Functional     Method          .... DFT(GTOs)
  Functional kind                       .... Exchange
  Functional name                       .... Re-regularized SCAN exchange by Furness et al
  Functional family                     .... MGGA
  Functional refs                              
    [ 0] J. W. Furness, A. D. Kaplan, J. Ning, J. P. Perdew, and J. Sun, J. Phys. Chem. Lett. 11, 8208 (2020)
    [ 1] J. W. Furness, A. D. Kaplan, J. Ning, J. P. Perdew, and J. Sun, J. Phys. Chem. Lett. 11, 9248 (2020)
  Functional external parameters         .... 8
 Parameter  0 :         c1 parameter
 Parameter  1 :         c2 parameter
 Parameter  2 :          d parameter
 Parameter  3 :         k1 parameter
 Parameter  4 :       taur parameter
 Parameter  5 :     alphar parameter
 Parameter  6 :        eta parameter
 Parameter  7 :        dp2 parameter
  Functional kind                       .... Correlation
  Functional name                       .... Re-regularized SCAN correlation by Furness et al
  Functional family                     .... MGGA
  Functional refs                              
    [ 0] J. W. Furness, A. D. Kaplan, J. Ning, J. P. Perdew, and J. Sun, J. Phys. Chem. Lett. 11, 8208 (2020)
    [ 1] J. W. Furness, A. D. Kaplan, J. Ning, J. P. Perdew, and J. Sun, J. Phys. Chem. Lett. 11, 9248 (2020)
  Functional external parameters         .... 0
 Gradients option       PostSCFGGA      .... off
   Density functional embedding theory  .... OFF
 RI-approximation to the Coulomb term is turned on
   Number of AuxJ basis functions       .... 426


General Settings:
 Integral files         IntName         .... /lustre/hpc/kemi/ree/PhD/git/ReactivityQM/calculations/R03/reac01prodN01/conf06/gfn1/orca_calc
 Hartree-Fock type      HFTyp           .... RHF
 Total Charge           Charge          ....    1
 Multiplicity           Mult            ....    1
 Number of Electrons    NEL             ....   74
 Basis Dimension        Dim             ....  255
 Nuclear Repulsion      ENuc            ....    520.9055873881 Eh

Convergence Acceleration:
 DIIS                   CNVDIIS         .... on
   Start iteration      DIISMaxIt       ....    12
   Startup error        DIISStart       ....  0.200000
   # of expansion vecs  DIISMaxEq       ....     5
   Bias factor          DIISBfac        ....   1.050
   Max. coefficient     DIISMaxC        ....  10.000
 Trust-Rad. Augm. Hess. CNVTRAH         .... auto
   Auto Start mean grad. ratio tolernc. ....  1.125000
   Auto Start start iteration           ....    20
   Auto Start num. interpolation iter.  ....    10
   Max. Number of Micro iterations      ....    16
   Max. Number of Macro iterations      .... Maxiter - #DIIS iter
   Number of Davidson start vectors     ....     2
   Converg. threshold I  (grad. norm)   ....   5.000e-05
   Converg. threshold II (energy diff.) ....   1.000e-06
   Grad. Scal. Fac. for Micro threshold ....   0.100
   Minimum threshold for Micro iter.    ....   0.010
   NR start threshold (gradient norm)   ....   0.001
   Initial trust radius                 ....   0.400
   Minimum AH scaling param. (alpha)    ....   1.000
   Maximum AH scaling param. (alpha)    .... 1000.000
   Orbital update algorithm             .... Taylor
   White noise on init. David. guess    .... on
   Maximum white noise                  ....   0.010
   Quad. conv. algorithm                .... NR
   COSX micro iterations for RIJONX calc.... off
 SOSCF                  CNVSOSCF        .... on
   Start iteration      SOSCFMaxIt      ....   150
   Startup grad/error   SOSCFStart      ....  0.003300
 Level Shifting         CNVShift        .... on
   Level shift para.    LevelShift      ....    0.2500
   Turn off err/grad.   ShiftErr        ....    0.0010
 Zerner damping         CNVZerner       .... off
 Static damping         CNVDamp         .... on
   Fraction old density DampFac         ....    0.7000
   Max. Damping (<1)    DampMax         ....    0.9800
   Min. Damping (>=0)   DampMin         ....    0.0000
   Turn off err/grad.   DampErr         ....    0.1000
 Fernandez-Rico         CNVRico         .... off

SCF Procedure:
 Maximum # iterations   MaxIter         ....   125
 SCF integral mode      SCFMode         .... Direct
   Integral package                     .... SHARK and LIBINT hybrid scheme
 Reset frequency        DirectResetFreq ....    20
 Integral Threshold     Thresh          ....  1.000e-10 Eh
 Primitive CutOff       TCut            ....  1.000e-11 Eh

Convergence Tolerance:
 Convergence Check Mode ConvCheckMode   .... Total+1el-Energy
 Convergence forced     ConvForced      .... 0
 Energy Change          TolE            ....  1.000e-06 Eh
 1-El. energy change                    ....  1.000e-03 Eh
 Orbital Gradient       TolG            ....  5.000e-05
 Orbital Rotation angle TolX            ....  5.000e-05
 DIIS Error             TolErr          ....  1.000e-06


Diagonalization of the overlap matrix:
Smallest eigenvalue                        ... 3.101e-05
Time for diagonalization                   ...    0.010 sec
Threshold for overlap eigenvalues          ... 1.000e-08
Number of eigenvalues below threshold      ... 0
Time for construction of square roots      ...    0.019 sec
Total time needed                          ...    0.029 sec

Time for model grid setup =    0.150 sec

------------------------------
INITIAL GUESS: MODEL POTENTIAL
------------------------------
Loading Hartree-Fock densities                     ... done
Calculating cut-offs                               ... done
Initializing the effective Hamiltonian             ... done
Setting up the integral package (SHARK)            ... done
Starting the Coulomb interaction                   ... done (   0.1 sec)
Reading the grid                                   ... done
Mapping shells                                     ... done
Starting the XC term evaluation                    ... done (   0.1 sec)
  promolecular density results
     # of electrons  =     74.992524413
     EX              =    -60.766524748
     EC              =     -2.504865763
     EX+EC           =    -63.271390511
Transforming the Hamiltonian                       ... done (   0.0 sec)
Diagonalizing the Hamiltonian                      ... done (   0.0 sec)
Back transforming the eigenvectors                 ... done (   0.0 sec)
Now organizing SCF variables                       ... done
                      ------------------
                      INITIAL GUESS DONE (   0.4 sec)
                      ------------------
-------------------
DFT GRID GENERATION
-------------------

General Integration Accuracy     IntAcc      ... 4.388
Radial Grid Type                 RadialGrid  ... OptM3 with GC (2021)
Angular Grid (max. ang.)         AngularGrid ... 4 (Lebedev-302)
Angular grid pruning method      GridPruning ... 4 (adaptive)
Weight generation scheme         WeightScheme... Becke
Basis function cutoff            BFCut       ... 1.0000e-10
Integration weight cutoff        WCut        ... 1.0000e-14
Angular grids for H and He will be reduced by one unit
Partially contracted basis set               ... off
Rotationally invariant grid construction     ... off

Total number of grid points                  ...    95216
Total number of batches                      ...     1497
Average number of points per batch           ...       63
Average number of grid points per atom       ...     4534
Time for grid setup =    0.666 sec


--------------------
CPCM SOLVATION MODEL
--------------------
CPCM parameters:
  Epsilon                                         ...      46.8260
  Refrac                                          ...       1.4170
  Rsolv                                           ...       1.3000
  Surface type                                    ... GAUSSIAN VDW
  Epsilon function type                           ...         CPCM
Solvent:                                     ... DMSO
SMD-CDS solvent descriptors:
  Soln                                       ...    1.4170
  Soln25                                     ...    1.4773
  Sola                                       ...    0.0000
  Solb                                       ...    0.8800
  Solg                                       ...   61.7800
  Solc                                       ...    0.0000
  Solh                                       ...    0.0000
Radii:
 Radius for C  used is    3.4960 Bohr (=   1.8500 Ang.)
 Radius for N  used is    3.5716 Bohr (=   1.8900 Ang.)
 Radius for F  used is    3.2692 Bohr (=   1.7300 Ang.)
 Radius for H  used is    2.2677 Bohr (=   1.2000 Ang.)
Calculating surface                               ...        done! (  0.0s)
GEPOL surface points                              ...         1257
GEPOL Volume                                      ...    1033.7774
GEPOL Surface-area                                ...     632.6761
Calculating surface distance matrix               ...        done! (  0.0s)
Performing Cholesky decomposition & store         ...        done! (  0.0s)
Overall time for CPCM initialization              ...                 0.1s
--------------
SCF ITERATIONS
--------------
ITER       Energy         Delta-E        Max-DP      RMS-DP      [F,P]     Damp
               ***  Starting incremental Fock matrix formation  ***
  0   -465.6856847627   0.000000000000 0.02774158  0.00109190  0.1176041 0.7000
  1   -465.7566630297  -0.070978266997 0.01970593  0.00081176  0.0639246 0.7000
                               ***Turning on DIIS***
  2   -465.7873483940  -0.030685364314 0.03402748  0.00159495  0.0288650 0.0000
  3   -465.8312504031  -0.043902009136 0.01425834  0.00054055  0.0356172 0.0000
  4   -465.8430986986  -0.011848295449 0.00807550  0.00025407  0.0068766 0.0000
                      *** Initiating the SOSCF procedure ***
                           *** Shutting down DIIS ***
                      *** Re-Reading the Fockian *** 
                      *** Removing any level shift *** 
ITER      Energy       Delta-E        Grad      Rot      Max-DP    RMS-DP
  5   -465.84354195  -0.0004432530  0.000930  0.000930  0.003187  0.000113
               *** Restarting incremental Fock matrix formation ***
  6   -465.84357633  -0.0000343807  0.000190  0.000800  0.002139  0.000080
  7   -465.84357762  -0.0000012891  0.000278  0.000847  0.000601  0.000021
  8   -465.84357932  -0.0000016958  0.000157  0.000550  0.000351  0.000015
  9   -465.84357941  -0.0000000973  0.000071  0.000099  0.000092  0.000003
                 **** Energy Check signals convergence ****
              ***Rediagonalizing the Fockian in SOSCF/NRSCF***

               *****************************************************
               *                     SUCCESS                       *
               *           SCF CONVERGED AFTER  10 CYCLES          *
               *****************************************************


SMD CDS free energy correction energy :                 1.06353     Kcal/mol
Total Energy after SMD CDS correction =              -465.841884813 Eh

----------------
TOTAL SCF ENERGY
----------------

Total Energy       :         -465.84188481 Eh          -12676.20213 eV

Components:
Nuclear Repulsion  :          520.90558739 Eh           14174.56165 eV
Electronic Energy  :         -986.74747220 Eh          -26850.76379 eV
One Electron Energy:        -1652.95444672 Eh          -44979.17719 eV
Two Electron Energy:          666.20697452 Eh           18128.41341 eV
CPCM Dielectric    :           -0.11890726 Eh              -3.23563 eV
SMD CDS (Gcds)     :            0.00169484 Eh               0.04612 eV

Virial components:
Potential Energy   :         -929.69537538 Eh          -25298.29730 eV
Kinetic Energy     :          463.85349057 Eh           12622.09517 eV
Virial Ratio       :            2.00428669


DFT components:
N(Alpha)           :       37.000051617850 electrons
N(Beta)            :       37.000051617850 electrons
N(Total)           :       74.000103235699 electrons
E(X)               :      -62.113535513060 Eh       
E(C)               :       -2.392785789394 Eh       
E(XC)              :      -64.506321302454 Eh       
DFET-embed. en.    :        0.000000000000 Eh       
CPCM Solvation Model Properties:
Surface-charge          :           -1.03064440
Charge-correction       :            0.00443175 Eh               0.12059 eV
Free-energy (cav+disp)  :            0.00169484 Eh               0.04612 eV

---------------
SCF CONVERGENCE
---------------

  Last Energy change         ...   -2.4218e-07  Tolerance :   1.0000e-06
  Last MAX-Density change    ...    9.1839e-05  Tolerance :   1.0000e-05
  Last RMS-Density change    ...    3.4940e-06  Tolerance :   1.0000e-06
  Last Orbital Gradient      ...    1.3403e-05  Tolerance :   5.0000e-05
  Last Orbital Rotation      ...    5.0209e-05  Tolerance :   5.0000e-05

             **** THE GBW FILE WAS UPDATED (/lustre/hpc/kemi/ree/PhD/git/ReactivityQM/calculations/R03/reac01prodN01/conf06/gfn1/orca_calc.gbw) ****
             **** DENSITY /lustre/hpc/kemi/ree/PhD/git/ReactivityQM/calculations/R03/reac01prodN01/conf06/gfn1/orca_calc.scfp WAS UPDATED ****
             **** ENERGY FILE WAS UPDATED (/lustre/hpc/kemi/ree/PhD/git/ReactivityQM/calculations/R03/reac01prodN01/conf06/gfn1/orca_calc.en.tmp) ****
             **** THE GBW FILE WAS UPDATED (/lustre/hpc/kemi/ree/PhD/git/ReactivityQM/calculations/R03/reac01prodN01/conf06/gfn1/orca_calc.gbw) ****
             **** DENSITY /lustre/hpc/kemi/ree/PhD/git/ReactivityQM/calculations/R03/reac01prodN01/conf06/gfn1/orca_calc.scfp WAS UPDATED ****
----------------
ORBITAL ENERGIES
----------------

  NO   OCC          E(Eh)            E(eV) 
   0   2.0000     -24.509722      -666.9434 
   1   2.0000     -14.277588      -388.5129 
   2   2.0000     -10.127982      -275.5964 
   3   2.0000     -10.092581      -274.6331 
   4   2.0000     -10.076494      -274.1953 
   5   2.0000     -10.057916      -273.6898 
   6   2.0000     -10.052211      -273.5346 
   7   2.0000     -10.051774      -273.5227 
   8   2.0000     -10.048494      -273.4334 
   9   2.0000     -10.047869      -273.4164 
  10   2.0000      -1.203161       -32.7397 
  11   2.0000      -0.974211       -26.5096 
  12   2.0000      -0.844827       -22.9889 
  13   2.0000      -0.756769       -20.5927 
  14   2.0000      -0.735803       -20.0222 
  15   2.0000      -0.697395       -18.9771 
  16   2.0000      -0.656722       -17.8703 
  17   2.0000      -0.603917       -16.4334 
  18   2.0000      -0.582022       -15.8376 
  19   2.0000      -0.552492       -15.0341 
  20   2.0000      -0.523320       -14.2403 
  21   2.0000      -0.502714       -13.6795 
  22   2.0000      -0.477809       -13.0019 
  23   2.0000      -0.463511       -12.6128 
  24   2.0000      -0.443964       -12.0809 
  25   2.0000      -0.437550       -11.9063 
  26   2.0000      -0.416761       -11.3407 
  27   2.0000      -0.406490       -11.0612 
  28   2.0000      -0.391249       -10.6464 
  29   2.0000      -0.379323       -10.3219 
  30   2.0000      -0.374712       -10.1964 
  31   2.0000      -0.358420        -9.7531 
  32   2.0000      -0.347721        -9.4620 
  33   2.0000      -0.341881        -9.3031 
  34   2.0000      -0.319816        -8.7026 
  35   2.0000      -0.255044        -6.9401 
  36   2.0000      -0.238141        -6.4801 
  37   0.0000      -0.050747        -1.3809 
  38   0.0000      -0.044952        -1.2232 
  39   0.0000       0.048780         1.3274 
  40   0.0000       0.067351         1.8327 
  41   0.0000       0.083146         2.2625 
  42   0.0000       0.092693         2.5223 
  43   0.0000       0.102980         2.8022 
  44   0.0000       0.105930         2.8825 
  45   0.0000       0.112120         3.0509 
  46   0.0000       0.125363         3.4113 
  47   0.0000       0.129217         3.5162 
  48   0.0000       0.148450         4.0395 
  49   0.0000       0.150697         4.1007 
  50   0.0000       0.158395         4.3102 
  51   0.0000       0.162038         4.4093 
  52   0.0000       0.164733         4.4826 
  53   0.0000       0.188494         5.1292 
  54   0.0000       0.191181         5.2023 
  55   0.0000       0.200920         5.4673 
  56   0.0000       0.210623         5.7313 
  57   0.0000       0.218887         5.9562 
  58   0.0000       0.227288         6.1848 
  59   0.0000       0.240150         6.5348 
  60   0.0000       0.246156         6.6982 
  61   0.0000       0.252744         6.8775 
  62   0.0000       0.256583         6.9820 
  63   0.0000       0.266786         7.2596 
  64   0.0000       0.271288         7.3821 
  65   0.0000       0.295459         8.0398 
  66   0.0000       0.300833         8.1861 
  67   0.0000       0.304111         8.2753 
  68   0.0000       0.316273         8.6062 
  69   0.0000       0.324114         8.8196 
  70   0.0000       0.333814         9.0835 
  71   0.0000       0.337214         9.1760 
  72   0.0000       0.346934         9.4405 
  73   0.0000       0.358665         9.7598 
  74   0.0000       0.371935        10.1209 
  75   0.0000       0.378896        10.3103 
  76   0.0000       0.407850        11.0982 
  77   0.0000       0.416885        11.3440 
  78   0.0000       0.437346        11.9008 
  79   0.0000       0.452008        12.2998 
  80   0.0000       0.460358        12.5270 
  81   0.0000       0.472333        12.8528 
  82   0.0000       0.483448        13.1553 
  83   0.0000       0.493357        13.4249 
  84   0.0000       0.497431        13.5358 
  85   0.0000       0.516088        14.0435 
  86   0.0000       0.534955        14.5569 
  87   0.0000       0.540608        14.7107 
  88   0.0000       0.560419        15.2498 
  89   0.0000       0.569579        15.4990 
  90   0.0000       0.577008        15.7012 
  91   0.0000       0.585525        15.9329 
  92   0.0000       0.602109        16.3842 
  93   0.0000       0.622684        16.9441 
  94   0.0000       0.626570        17.0498 
  95   0.0000       0.643505        17.5107 
  96   0.0000       0.652592        17.7579 
  97   0.0000       0.667915        18.1749 
  98   0.0000       0.692844        18.8532 
  99   0.0000       0.697277        18.9739 
 100   0.0000       0.730763        19.8851 
 101   0.0000       0.735370        20.0104 
 102   0.0000       0.757483        20.6121 
 103   0.0000       0.841703        22.9039 
 104   0.0000       0.853891        23.2355 
 105   0.0000       0.866009        23.5653 
 106   0.0000       0.882029        24.0012 
 107   0.0000       0.894281        24.3346 
 108   0.0000       0.984863        26.7995 
 109   0.0000       0.993646        27.0385 
 110   0.0000       1.024800        27.8862 
 111   0.0000       1.047526        28.5046 
 112   0.0000       1.071648        29.1610 
 113   0.0000       1.087543        29.5935 
 114   0.0000       1.112425        30.2706 
 115   0.0000       1.129023        30.7223 
 116   0.0000       1.161238        31.5989 
 117   0.0000       1.164285        31.6818 
 118   0.0000       1.194316        32.4990 
 119   0.0000       1.212673        32.9985 
 120   0.0000       1.246095        33.9080 
 121   0.0000       1.251427        34.0531 
 122   0.0000       1.273111        34.6431 
 123   0.0000       1.303286        35.4642 
 124   0.0000       1.319688        35.9105 
 125   0.0000       1.325014        36.0555 
 126   0.0000       1.334052        36.3014 
 127   0.0000       1.345501        36.6129 
 128   0.0000       1.351370        36.7727 
 129   0.0000       1.355405        36.8824 
 130   0.0000       1.379206        37.5301 
 131   0.0000       1.401138        38.1269 
 132   0.0000       1.408181        38.3186 
 133   0.0000       1.414015        38.4773 
 134   0.0000       1.427971        38.8571 
 135   0.0000       1.446677        39.3661 
 136   0.0000       1.458638        39.6916 
 137   0.0000       1.459800        39.7232 
 138   0.0000       1.474530        40.1240 
 139   0.0000       1.484969        40.4081 
 140   0.0000       1.493189        40.6317 
 141   0.0000       1.502774        40.8926 
 142   0.0000       1.508514        41.0488 
 143   0.0000       1.513027        41.1716 
 144   0.0000       1.516551        41.2674 
 145   0.0000       1.530124        41.6368 
 146   0.0000       1.572165        42.7808 
 147   0.0000       1.580306        43.0023 
 148   0.0000       1.590659        43.2840 
 149   0.0000       1.609836        43.8059 
 150   0.0000       1.627808        44.2949 
 151   0.0000       1.638871        44.5960 
 152   0.0000       1.674391        45.5625 
 153   0.0000       1.689651        45.9777 
 154   0.0000       1.733310        47.1658 
 155   0.0000       1.762359        47.9562 
 156   0.0000       1.822807        49.6011 
 157   0.0000       1.846181        50.2371 
 158   0.0000       1.863359        50.7046 
 159   0.0000       1.877093        51.0783 
 160   0.0000       1.881281        51.1923 
 161   0.0000       1.897191        51.6252 
 162   0.0000       1.920193        52.2511 
 163   0.0000       1.954816        53.1932 
 164   0.0000       2.003785        54.5258 
 165   0.0000       2.021840        55.0171 
 166   0.0000       2.054937        55.9177 
 167   0.0000       2.060209        56.0611 
 168   0.0000       2.070713        56.3470 
 169   0.0000       2.084822        56.7309 
 170   0.0000       2.108931        57.3869 
 171   0.0000       2.112814        57.4926 
 172   0.0000       2.122398        57.7534 
 173   0.0000       2.160011        58.7769 
 174   0.0000       2.194750        59.7222 
 175   0.0000       2.211270        60.1717 
 176   0.0000       2.219931        60.4074 
 177   0.0000       2.235939        60.8430 
 178   0.0000       2.246387        61.1273 
 179   0.0000       2.280516        62.0560 
 180   0.0000       2.282838        62.1192 
 181   0.0000       2.291571        62.3568 
 182   0.0000       2.301704        62.6325 
 183   0.0000       2.302594        62.6568 
 184   0.0000       2.326154        63.2979 
 185   0.0000       2.333458        63.4966 
 186   0.0000       2.343003        63.7563 
 187   0.0000       2.353357        64.0381 
 188   0.0000       2.359509        64.2055 
 189   0.0000       2.376626        64.6713 
 190   0.0000       2.388231        64.9871 
 191   0.0000       2.392556        65.1048 
 192   0.0000       2.417671        65.7882 
 193   0.0000       2.444295        66.5126 
 194   0.0000       2.466502        67.1169 
 195   0.0000       2.478513        67.4438 
 196   0.0000       2.504915        68.1622 
 197   0.0000       2.537631        69.0524 
 198   0.0000       2.551194        69.4215 
 199   0.0000       2.586530        70.3831 
 200   0.0000       2.627683        71.5029 
 201   0.0000       2.677483        72.8580 
 202   0.0000       2.694164        73.3119 
 203   0.0000       2.701630        73.5151 
 204   0.0000       2.736041        74.4515 
 205   0.0000       2.766560        75.2819 
 206   0.0000       2.770430        75.3872 
 207   0.0000       2.834017        77.1175 
 208   0.0000       2.845496        77.4299 
 209   0.0000       2.911473        79.2252 
 210   0.0000       2.927927        79.6729 
 211   0.0000       2.951155        80.3050 
 212   0.0000       2.970448        80.8300 
 213   0.0000       2.986806        81.2751 
 214   0.0000       3.012576        81.9764 
 215   0.0000       3.108848        84.5960 
 216   0.0000       3.114646        84.7538 
 217   0.0000       3.125362        85.0454 
 218   0.0000       3.147362        85.6441 
 219   0.0000       3.167998        86.2056 
 220   0.0000       3.200283        87.0841 
 221   0.0000       3.209193        87.3266 
 222   0.0000       3.247419        88.3668 
 223   0.0000       3.280746        89.2736 
 224   0.0000       3.287302        89.4520 
 225   0.0000       3.345446        91.0342 
 226   0.0000       3.369996        91.7022 
 227   0.0000       3.395227        92.3888 
 228   0.0000       3.413131        92.8760 
 229   0.0000       3.425109        93.2019 
 230   0.0000       3.431996        93.3893 
 231   0.0000       3.462079        94.2080 
 232   0.0000       3.501128        95.2705 
 233   0.0000       3.528975        96.0283 
 234   0.0000       3.544429        96.4488 
 235   0.0000       3.605628        98.1141 
 236   0.0000       3.612882        98.3115 
 237   0.0000       3.683960       100.2457 
 238   0.0000       3.786970       103.0487 
 239   0.0000       3.905818       106.2827 
 240   0.0000       3.926995       106.8590 
 241   0.0000       4.046338       110.1065 
 242   0.0000       4.091268       111.3291 
 243   0.0000       4.300065       117.0107 
 244   0.0000       4.533522       123.3634 
 245   0.0000      21.407560       582.5293 
 246   0.0000      21.880304       595.3933 
 247   0.0000      21.952684       597.3629 
 248   0.0000      21.984349       598.2245 
 249   0.0000      22.059607       600.2724 
 250   0.0000      22.157904       602.9472 
 251   0.0000      22.186869       603.7354 
 252   0.0000      22.318031       607.3045 
 253   0.0000      31.879339       867.4809 
 254   0.0000      57.129100      1554.5619 

                    ********************************
                    * MULLIKEN POPULATION ANALYSIS *
                    ********************************

-----------------------
MULLIKEN ATOMIC CHARGES
-----------------------
   0 C :   -0.335315
   1 N :   -0.301574
   2 C :   -0.196949
   3 C :    0.003728
   4 C :   -0.158432
   5 C :   -0.299758
   6 C :    0.369493
   7 F :   -0.226826
   8 C :   -0.288953
   9 C :   -0.146583
  10 H :    0.201659
  11 H :    0.201340
  12 H :    0.195392
  13 H :    0.391486
  14 H :    0.380042
  15 H :    0.213957
  16 H :    0.208479
  17 H :    0.194215
  18 H :    0.200393
  19 H :    0.200282
  20 H :    0.193924
Sum of atomic charges:    1.0000000

--------------------------------
MULLIKEN REDUCED ORBITAL CHARGES
--------------------------------
  0 C s       :     3.329277  s :     3.329277
      pz      :     1.030129  p :     2.972510
      px      :     1.121831
      py      :     0.820549
      dz2     :     0.007724  d :     0.033528
      dxz     :     0.002591
      dyz     :     0.008442
      dx2y2   :     0.007031
      dxy     :     0.007741
  1 N s       :     3.401534  s :     3.401534
      pz      :     1.289491  p :     3.749642
      px      :     1.268262
      py      :     1.191890
      dz2     :     0.048672  d :     0.150399
      dxz     :     0.010509
      dyz     :     0.020092
      dx2y2   :     0.031195
      dxy     :     0.039931
  2 C s       :     3.293073  s :     3.293073
      pz      :     1.091328  p :     2.859218
      px      :     0.827108
      py      :     0.940782
      dz2     :     0.009216  d :     0.044658
      dxz     :     0.006613
      dyz     :     0.006106
      dx2y2   :     0.009828
      dxy     :     0.012895
  3 C s       :     3.161564  s :     3.161564
      pz      :     0.916227  p :     2.786903
      px      :     0.887569
      py      :     0.983108
      dz2     :     0.013213  d :     0.047805
      dxz     :     0.013608
      dyz     :     0.008781
      dx2y2   :     0.005744
      dxy     :     0.006460
  4 C s       :     3.207138  s :     3.207138
      pz      :     0.984304  p :     2.912440
      px      :     0.963299
      py      :     0.964836
      dz2     :     0.009536  d :     0.038855
      dxz     :     0.011239
      dyz     :     0.006566
      dx2y2   :     0.005440
      dxy     :     0.006074
  5 C s       :     3.254647  s :     3.254647
      pz      :     1.018911  p :     3.008467
      px      :     0.996645
      py      :     0.992911
      dz2     :     0.007250  d :     0.036644
      dxz     :     0.011587
      dyz     :     0.005816
      dx2y2   :     0.006148
      dxy     :     0.005843
  6 C s       :     3.098827  s :     3.098827
      pz      :     0.842758  p :     2.450206
      px      :     0.698391
      py      :     0.909058
      dz2     :     0.017792  d :     0.081474
      dxz     :     0.022301
      dyz     :     0.012053
      dx2y2   :     0.014876
      dxy     :     0.014452
  7 F s       :     3.912385  s :     3.912385
      pz      :     1.936769  p :     5.299280
      px      :     1.546523
      py      :     1.815987
      dz2     :     0.002742  d :     0.015162
      dxz     :     0.004516
      dyz     :     0.001658
      dx2y2   :     0.003044
      dxy     :     0.003202
  8 C s       :     3.246501  s :     3.246501
      pz      :     0.966072  p :     3.005870
      px      :     1.017442
      py      :     1.022357
      dz2     :     0.009403  d :     0.036581
      dxz     :     0.010725
      dyz     :     0.005894
      dx2y2   :     0.004831
      dxy     :     0.005727
  9 C s       :     3.197143  s :     3.197143
      pz      :     1.025566  p :     2.910523
      px      :     0.939084
      py      :     0.945873
      dz2     :     0.009297  d :     0.038916
      dxz     :     0.010726
      dyz     :     0.005192
      dx2y2   :     0.007063
      dxy     :     0.006638
 10 H s       :     0.779768  s :     0.779768
      pz      :     0.003347  p :     0.018572
      px      :     0.009780
      py      :     0.005445
 11 H s       :     0.780592  s :     0.780592
      pz      :     0.011576  p :     0.018068
      px      :     0.003767
      py      :     0.002725
 12 H s       :     0.786455  s :     0.786455
      pz      :     0.004293  p :     0.018153
      px      :     0.008634
      py      :     0.005226
 13 H s       :     0.579370  s :     0.579370
      pz      :     0.018977  p :     0.029144
      px      :     0.005003
      py      :     0.005164
 14 H s       :     0.590563  s :     0.590563
      pz      :     0.005218  p :     0.029395
      px      :     0.015470
      py      :     0.008707
 15 H s       :     0.768262  s :     0.768262
      pz      :     0.011745  p :     0.017782
      px      :     0.002778
      py      :     0.003258
 16 H s       :     0.773680  s :     0.773680
      pz      :     0.005014  p :     0.017841
      px      :     0.002812
      py      :     0.010015
 17 H s       :     0.786334  s :     0.786334
      pz      :     0.008357  p :     0.019451
      px      :     0.005681
      py      :     0.005413
 18 H s       :     0.780044  s :     0.780044
      pz      :     0.011362  p :     0.019563
      px      :     0.004506
      py      :     0.003696
 19 H s       :     0.780161  s :     0.780161
      pz      :     0.008271  p :     0.019558
      px      :     0.005747
      py      :     0.005540
 20 H s       :     0.786622  s :     0.786622
      pz      :     0.011349  p :     0.019454
      px      :     0.004494
      py      :     0.003612


                     *******************************
                     * LOEWDIN POPULATION ANALYSIS *
                     *******************************

----------------------
LOEWDIN ATOMIC CHARGES
----------------------
   0 C :   -0.092569
   1 N :   -0.586427
   2 C :    0.007596
   3 C :   -0.100039
   4 C :   -0.129697
   5 C :   -0.151157
   6 C :    0.210034
   7 F :   -0.286563
   8 C :   -0.153110
   9 C :   -0.133161
  10 H :    0.201104
  11 H :    0.199786
  12 H :    0.198452
  13 H :    0.307774
  14 H :    0.307255
  15 H :    0.212758
  16 H :    0.212970
  17 H :    0.190947
  18 H :    0.196655
  19 H :    0.196550
  20 H :    0.190843

-------------------------------
LOEWDIN REDUCED ORBITAL CHARGES
-------------------------------
  0 C s       :     2.902390  s :     2.902390
      pz      :     1.061412  p :     3.111201
      px      :     1.119925
      py      :     0.929864
      dz2     :     0.019642  d :     0.078978
      dxz     :     0.005350
      dyz     :     0.018735
      dx2y2   :     0.015562
      dxy     :     0.019689
  1 N s       :     3.124210  s :     3.124210
      pz      :     1.305250  p :     3.884468
      px      :     1.288953
      py      :     1.290266
      dz2     :     0.144894  d :     0.577749
      dxz     :     0.052355
      dyz     :     0.099425
      dx2y2   :     0.124892
      dxy     :     0.156182
  2 C s       :     2.856545  s :     2.856545
      pz      :     1.089790  p :     3.039226
      px      :     0.927463
      py      :     1.021974
      dz2     :     0.021525  d :     0.096633
      dxz     :     0.012731
      dyz     :     0.013372
      dx2y2   :     0.021664
      dxy     :     0.027341
  3 C s       :     2.862181  s :     2.862181
      pz      :     1.108327  p :     3.141213
      px      :     1.015517
      py      :     1.017369
      dz2     :     0.028264  d :     0.096645
      dxz     :     0.028585
      dyz     :     0.017329
      dx2y2   :     0.009895
      dxy     :     0.012573
  4 C s       :     2.899853  s :     2.899853
      pz      :     1.089763  p :     3.147536
      px      :     1.060437
      py      :     0.997335
      dz2     :     0.021001  d :     0.082308
      dxz     :     0.025777
      dyz     :     0.013364
      dx2y2   :     0.010232
      dxy     :     0.011934
  5 C s       :     2.902968  s :     2.902968
      pz      :     1.092696  p :     3.170270
      px      :     1.062203
      py      :     1.015370
      dz2     :     0.017542  d :     0.077919
      dxz     :     0.025303
      dyz     :     0.011395
      dx2y2   :     0.011772
      dxy     :     0.011907
  6 C s       :     2.792549  s :     2.792549
      pz      :     1.084892  p :     2.818656
      px      :     0.822809
      py      :     0.910955
      dz2     :     0.038323  d :     0.178761
      dxz     :     0.050268
      dyz     :     0.024205
      dx2y2   :     0.032213
      dxy     :     0.033752
  7 F s       :     3.730039  s :     3.730039
      pz      :     1.916395  p :     5.396195
      px      :     1.644516
      py      :     1.835283
      dz2     :     0.017897  d :     0.160329
      dxz     :     0.040578
      dyz     :     0.012579
      dx2y2   :     0.044624
      dxy     :     0.044651
  8 C s       :     2.903053  s :     2.903053
      pz      :     1.072008  p :     3.172308
      px      :     1.070908
      py      :     1.029392
      dz2     :     0.021119  d :     0.077749
      dxz     :     0.024062
      dyz     :     0.012089
      dx2y2   :     0.009074
      dxy     :     0.011405
  9 C s       :     2.902082  s :     2.902082
      pz      :     1.101327  p :     3.148516
      px      :     1.059866
      py      :     0.987323
      dz2     :     0.020826  d :     0.082563
      dxz     :     0.024094
      dyz     :     0.010465
      dx2y2   :     0.013610
      dxy     :     0.013569
 10 H s       :     0.755411  s :     0.755411
      pz      :     0.007653  p :     0.043485
      px      :     0.024252
      py      :     0.011580
 11 H s       :     0.757719  s :     0.757719
      pz      :     0.027656  p :     0.042495
      px      :     0.008424
      py      :     0.006414
 12 H s       :     0.759121  s :     0.759121
      pz      :     0.010420  p :     0.042427
      px      :     0.021101
      py      :     0.010905
 13 H s       :     0.610087  s :     0.610087
      pz      :     0.055416  p :     0.082139
      px      :     0.013062
      py      :     0.013661
 14 H s       :     0.610276  s :     0.610276
      pz      :     0.013367  p :     0.082469
      px      :     0.044865
      py      :     0.024237
 15 H s       :     0.744839  s :     0.744839
      pz      :     0.028778  p :     0.042403
      px      :     0.006502
      py      :     0.007123
 16 H s       :     0.744664  s :     0.744664
      pz      :     0.012638  p :     0.042366
      px      :     0.006331
      py      :     0.023397
 17 H s       :     0.763388  s :     0.763388
      pz      :     0.020133  p :     0.045665
      px      :     0.013099
      py      :     0.012433
 18 H s       :     0.757064  s :     0.757064
      pz      :     0.027606  p :     0.046280
      px      :     0.010363
      py      :     0.008312
 19 H s       :     0.757142  s :     0.757142
      pz      :     0.019893  p :     0.046307
      px      :     0.013464
      py      :     0.012951
 20 H s       :     0.763585  s :     0.763585
      pz      :     0.027598  p :     0.045572
      px      :     0.010123
      py      :     0.007851


                      *****************************
                      * MAYER POPULATION ANALYSIS *
                      *****************************

  NA   - Mulliken gross atomic population
  ZA   - Total nuclear charge
  QA   - Mulliken gross atomic charge
  VA   - Mayer's total valence
  BVA  - Mayer's bonded valence
  FA   - Mayer's free valence

  ATOM       NA         ZA         QA         VA         BVA        FA
  0 C      6.3353     6.0000    -0.3353     3.7712     3.7712    -0.0000
  1 N      7.3016     7.0000    -0.3016     3.4604     3.4604     0.0000
  2 C      6.1969     6.0000    -0.1969     3.6685     3.6685    -0.0000
  3 C      5.9963     6.0000     0.0037     3.6346     3.6346    -0.0000
  4 C      6.1584     6.0000    -0.1584     3.7931     3.7931     0.0000
  5 C      6.2998     6.0000    -0.2998     3.7840     3.7840     0.0000
  6 C      5.6305     6.0000     0.3695     3.7057     3.7057    -0.0000
  7 F      9.2268     9.0000    -0.2268     0.9681     0.9681     0.0000
  8 C      6.2890     6.0000    -0.2890     3.7771     3.7771    -0.0000
  9 C      6.1466     6.0000    -0.1466     3.7859     3.7859    -0.0000
 10 H      0.7983     1.0000     0.2017     0.9453     0.9453     0.0000
 11 H      0.7987     1.0000     0.2013     0.9448     0.9448    -0.0000
 12 H      0.8046     1.0000     0.1954     0.9488     0.9488    -0.0000
 13 H      0.6085     1.0000     0.3915     0.8525     0.8525    -0.0000
 14 H      0.6200     1.0000     0.3800     0.8600     0.8600    -0.0000
 15 H      0.7860     1.0000     0.2140     0.9413     0.9413    -0.0000
 16 H      0.7915     1.0000     0.2085     0.9429     0.9429    -0.0000
 17 H      0.8058     1.0000     0.1942     0.9546     0.9546     0.0000
 18 H      0.7996     1.0000     0.2004     0.9532     0.9532     0.0000
 19 H      0.7997     1.0000     0.2003     0.9532     0.9532    -0.0000
 20 H      0.8061     1.0000     0.1939     0.9543     0.9543    -0.0000

  Mayer bond orders larger than 0.100000
B(  0-C ,  1-N ) :   0.8981 B(  0-C , 10-H ) :   0.9358 B(  0-C , 11-H ) :   0.9421 
B(  0-C , 12-H ) :   0.9495 B(  1-N ,  2-C ) :   0.8664 B(  1-N , 13-H ) :   0.8380 
B(  1-N , 14-H ) :   0.8438 B(  2-C ,  3-C ) :   0.8611 B(  2-C , 15-H ) :   0.9709 
B(  2-C , 16-H ) :   0.9512 B(  3-C ,  4-C ) :   1.3877 B(  3-C ,  9-C ) :   1.3885 
B(  4-C ,  5-C ) :   1.3926 B(  4-C , 17-H ) :   0.9381 B(  5-C ,  6-C ) :   1.3914 
B(  5-C , 18-H ) :   0.9353 B(  6-C ,  7-F ) :   0.8915 B(  6-C ,  8-C ) :   1.3967 
B(  8-C ,  9-C ) :   1.3776 B(  8-C , 19-H ) :   0.9338 B(  9-C , 20-H ) :   0.9417 


-------
TIMINGS
-------

Total SCF time: 0 days 0 hours 0 min 17 sec 

Total time                  ....      17.022 sec
Sum of individual times     ....      16.697 sec  ( 98.1%)

Fock matrix formation       ....      15.436 sec  ( 90.7%)
  Split-RI-J                ....       1.670 sec  ( 10.8% of F)
  XC integration            ....       8.702 sec  ( 56.4% of F)
    Basis function eval.    ....       1.395 sec  ( 16.0% of XC)
    Density eval.           ....       2.608 sec  ( 30.0% of XC)
    XC-Functional eval.     ....       1.580 sec  ( 18.2% of XC)
    XC-Potential eval.      ....       2.635 sec  ( 30.3% of XC)
Diagonalization             ....       0.092 sec  (  0.5%)
Density matrix formation    ....       0.004 sec  (  0.0%)
Population analysis         ....       0.022 sec  (  0.1%)
Initial guess               ....       0.232 sec  (  1.4%)
Orbital Transformation      ....       0.000 sec  (  0.0%)
Orbital Orthonormalization  ....       0.000 sec  (  0.0%)
DIIS solution               ....       0.046 sec  (  0.3%)
SOSCF solution              ....       0.048 sec  (  0.3%)
Grid generation             ....       0.816 sec  (  4.8%)

Maximum memory used throughout the entire SCF-calculation: 46.9 MB


-------------------------------------------------------------------------------
                          DFT DISPERSION CORRECTION                            
                                                                               
                                 DFTD4 V2.5                                    
-------------------------------------------------------------------------------
The R2SCAN3C composite method is recognized
Using three-body term ABC
Active option DFTDOPT                   ...         5   

Starting D4
-------------------------   ----------------
Dispersion correction           -0.006943932
-------------------------   ----------------

------------------   -----------------
gCP correction             0.013450729
------------------   -----------------

-------------------------   --------------------
FINAL SINGLE POINT ENERGY      -465.835378015869
-------------------------   --------------------


                            ***************************************
                            *     ORCA property calculations      *
                            ***************************************

                                    ---------------------
                                    Active property flags
                                    ---------------------
   (+) Dipole Moment


------------------------------------------------------------------------------
                       ORCA ELECTRIC PROPERTIES CALCULATION
------------------------------------------------------------------------------

Dipole Moment Calculation                       ... on
Quadrupole Moment Calculation                   ... off
Polarizability Calculation                      ... off
GBWName                                         ... /lustre/hpc/kemi/ree/PhD/git/ReactivityQM/calculations/R03/reac01prodN01/conf06/gfn1/orca_calc.gbw
Electron density                                ... /lustre/hpc/kemi/ree/PhD/git/ReactivityQM/calculations/R03/reac01prodN01/conf06/gfn1/orca_calc.scfp
The origin for moment calculation is the CENTER OF MASS  = ( 1.472846,  0.238650 -0.254979)

-------------
DIPOLE MOMENT
-------------
                                X             Y             Z
Electronic contribution:     12.58308       2.01968      -2.88890
Nuclear contribution   :    -18.30948      -3.18170       3.08242
                        -----------------------------------------
Total Dipole Moment    :     -5.72640      -1.16202       0.19352
                        -----------------------------------------
Magnitude (a.u.)       :      5.84631
Magnitude (Debye)      :     14.86015



--------------------
Rotational spectrum 
--------------------
 
Rotational constants in cm-1:     0.105495     0.023802     0.022262 
Rotational constants in MHz :  3162.656661   713.566547   667.385494 

 Dipole components along the rotational axes: 
x,y,z [a.u.] :    -5.807481    -0.583937     0.334001 
x,y,z [Debye]:   -14.761445    -1.484251     0.848964 

 

Timings for individual modules:

Sum of individual times         ...       17.639 sec (=   0.294 min)
GTO integral calculation        ...        0.366 sec (=   0.006 min)   2.1 %
SCF iterations                  ...       17.273 sec (=   0.288 min)  97.9 %
                             ****ORCA TERMINATED NORMALLY****
TOTAL RUN TIME: 0 days 0 hours 0 minutes 18 seconds 468 msec
