      -----------------------------------------------------------      
     |                   =====================                   |     
     |                           x T B                           |     
     |                   =====================                   |     
     |                         S. Grimme                         |     
     |          Mulliken Center for Theoretical Chemistry        |     
     |                    University of Bonn                     |     
      -----------------------------------------------------------      

   * xtb version 6.5.1 (579679a) compiled by 'ehlert@majestix' on 2022-07-11

   xtb is free software: you can redistribute it and/or modify it under
   the terms of the GNU Lesser General Public License as published by
   the Free Software Foundation, either version 3 of the License, or
   (at your option) any later version.
   
   xtb is distributed in the hope that it will be useful,
   but WITHOUT ANY WARRANTY; without even the implied warranty of
   MERCHANTABILITY or FITNESS FOR A PARTICULAR PURPOSE.  See the
   GNU Lesser General Public License for more details.
   
   Cite this work as:
   * C. Bannwarth, E. Caldeweyher, S. Ehlert, A. Hansen, P. Pracht,
     J. Seibert, S. Spicher, S. Grimme, WIREs Comput. Mol. Sci., 2020, 11,
     e01493. DOI: 10.1002/wcms.1493
   
   for GFN2-xTB:
   * C. Bannwarth, S. Ehlert and S. Grimme., J. Chem. Theory Comput., 2019,
     15, 1652-1671. DOI: 10.1021/acs.jctc.8b01176
   for GFN1-xTB:
   * S. Grimme, C. Bannwarth, P. Shushkov, J. Chem. Theory Comput., 2017,
     13, 1989-2009. DOI: 10.1021/acs.jctc.7b00118
   for GFN0-xTB:
   * P. Pracht, E. Caldeweyher, S. Ehlert, S. Grimme, ChemRxiv, 2019, preprint.
     DOI: 10.26434/chemrxiv.8326202.v1
   for GFN-FF:
   * S. Spicher and S. Grimme, Angew. Chem. Int. Ed., 2020, 59, 15665-15673.
     DOI: 10.1002/anie.202004239
   
   for ALPB and GBSA implicit solvation:
   * S. Ehlert, M. Stahn, S. Spicher, S. Grimme, J. Chem. Theory Comput.,
     2021, 17, 4250-4261. DOI: 10.1021/acs.jctc.1c00471
   
   for DFT-D4:
   * E. Caldeweyher, C. Bannwarth and S. Grimme, J. Chem. Phys., 2017,
     147, 034112. DOI: 10.1063/1.4993215
   * E. Caldeweyher, S. Ehlert, A. Hansen, H. Neugebauer, S. Spicher,
     C. Bannwarth and S. Grimme, J. Chem. Phys., 2019, 150, 154122.
     DOI: 10.1063/1.5090222
   * E. Caldeweyher, J.-M. Mewes, S. Ehlert and S. Grimme, Phys. Chem. Chem. Phys.
     2020, 22, 8499-8512. DOI: 10.1039/D0CP00502A
   
   for sTDA-xTB:
   * S. Grimme and C. Bannwarth, J. Chem. Phys., 2016, 145, 054103.
     DOI: 10.1063/1.4959605
   
   in the mass-spec context:
   * V. Asgeirsson, C. Bauer and S. Grimme, Chem. Sci., 2017, 8, 4879.
     DOI: 10.1039/c7sc00601b
   * J. Koopman and S. Grimme, ACS Omega 2019, 4, 12, 15120-15133.
     DOI: 10.1021/acsomega.9b02011
   
   for metadynamics refer to:
   * S. Grimme, J. Chem. Theory Comput., 2019, 155, 2847-2862
     DOI: 10.1021/acs.jctc.9b00143
   
   for SPH calculations refer to:
   * S. Spicher and S. Grimme, J. Chem. Theory Comput., 2021, 17, 1701-1714
     DOI: 10.1021/acs.jctc.0c01306
   
   with help from (in alphabetical order)
   P. Atkinson, C. Bannwarth, F. Bohle, G. Brandenburg, E. Caldeweyher
   M. Checinski, S. Dohm, S. Ehlert, S. Ehrlich, I. Gerasimov, C. Hölzer
   A. Katbashev, J. Koopman, C. Lavigne, S. Lehtola, F. März, M. Müller,
   F. Musil, H. Neugebauer, J. Pisarek, C. Plett, P. Pracht, F. Pultar,
   J. Seibert, P. Shushkov, S. Spicher, M. Stahn, M. Steiner, T. Strunk,
   J. Stückrath, T. Rose, and J. Unsleber
   
 * started run on 2023/06/20 at 15:13:50.941     

           -------------------------------------------------
          |                Calculation Setup                |
           -------------------------------------------------

          program call               : /lustre/hpc/kemi/ree/PhD/git/ReactivityQM/dep/xtb-6.5.1/bin/xtb --gfn 1 /lustre/hpc/kemi/ree/PhD/git/ReactivityQM/calculations/R03/reac01prodN01/conf06/R03_reac01prodN01_conf06_gfn1.xyz --opt --vfukui --chrg 1 --uhf 0 --alpb DMSO
          hostname                   : node068
          coordinate file            : /lustre/hpc/kemi/ree/PhD/git/ReactivityQM/calculations/R03/reac01prodN01/conf06/R03_reac01prodN01_conf06_gfn1.xyz
          omp threads                :                     1

   ID    Z sym.   atoms
    1    6 C      1, 3-7, 9, 10
    2    7 N      2
    3    9 F      8
    4    1 H      11-21

           -------------------------------------------------
          |                 G F N 1 - x T B                 |
           -------------------------------------------------

        Reference                      10.1021/acs.jctc.7b00118
      * Hamiltonian:
        H0-scaling (s, p, d)           1.850000    2.250000    2.000000
        zeta-weighting                 0.000000
      * Dispersion:
        s8                             2.400000
        a1                             0.630000
        a2                             5.000000
        s9                             0.000000
      * Repulsion:
        kExp                           1.500000
        rExp                           1.000000
      * Coulomb:
        alpha                          2.000000
        third order                    atomic
        anisotropic                    false
      * Halogen bond correction:
        rad-scale                      1.300000
        damping                        0.440000

      * Solvation model:               ALPB
        Solvent                        DMSO
        Parameter file                 internal GFN1-xTB/ALPB
        Dielectric constant                4.6680E+01
        Reference state                gsolv [1 M gas/solution]
        Free energy shift                  7.6243E-03 Eh       4.7843E+00 kcal/mol
        Temperature                        2.9815E+02 K
        Density                            1.1000E+00 kg/L
        Solvent mass                       7.8130E+01 g/mol
        Interaction kernel             P16
        Born radius scaling (c1)           1.7672E+00
        Born radii integrator          GBOBC
        Born offset                        0.0000E+00 a0       0.0000E+00 AA
        H-bond correction              true
        Ion screening                  false
        Surface tension                    1.0000E-05 Eh       1.5569E+01 dyn/cm
        Grid points                               230 per atom

          ...................................................
          :                      SETUP                      :
          :.................................................:
          :  # basis functions                  62          :
          :  # atomic orbitals                  62          :
          :  # shells                           42          :
          :  # electrons                        54          :
          :  # halogen bonds                     0          :
          :  max. iterations                   250          :
          :  Hamiltonian                  GFN1-xTB          :
          :  restarted?                      false          :
          :  GBSA solvation                   true          :
          :  PC potential                    false          :
          :  electronic temp.          300.0000000     K    :
          :  accuracy                    1.0000000          :
          :  -> integral cutoff          0.2500000E+02      :
          :  -> integral neglect         0.1000000E-07      :
          :  -> SCF convergence          0.1000000E-05 Eh   :
          :  -> wf. convergence          0.2000000E-04 e    :
          :  Broyden damping             0.4000000          :
          ...................................................

 iter      E             dE          RMSdq      gap      omega  full diag
   1    -31.1630827 -0.311631E+02  0.855E+00    4.28       0.0  T
   2    -31.2306116 -0.675290E-01  0.511E+00    4.52       1.0  T
   3    -31.2316417 -0.103010E-02  0.724E-01    4.49       1.0  T
   4    -31.2330622 -0.142045E-02  0.882E-02    4.50       1.0  T
   5    -31.2331585 -0.963111E-04  0.241E-02    4.50       1.0  T
   6    -31.2331637 -0.520595E-05  0.836E-03    4.50       2.6  T
   7    -31.2331642 -0.447700E-06  0.200E-03    4.50      10.9  T
   8    -31.2331642 -0.133477E-07  0.308E-04    4.50      70.7  T
   9    -31.2331642 -0.890083E-09  0.735E-05    4.50     297.0  T
  10    -31.2331642 -0.565876E-10  0.212E-05    4.50    1028.5  T

   *** convergence criteria satisfied after 10 iterations ***

         #    Occupation            Energy/Eh            Energy/eV
      -------------------------------------------------------------
         1        2.0000           -0.8859918             -24.1091
       ...           ...                  ...                  ...
        21        2.0000           -0.5519556             -15.0195
        22        2.0000           -0.5348868             -14.5550
        23        2.0000           -0.5310812             -14.4515
        24        2.0000           -0.5189551             -14.1215
        25        2.0000           -0.4880314             -13.2800
        26        2.0000           -0.4708123             -12.8115
        27        2.0000           -0.4578122             -12.4577 (HOMO)
        28                         -0.2924218              -7.9572 (LUMO)
        29                         -0.2897436              -7.8843
        30                         -0.1850353              -5.0351
        31                         -0.1758774              -4.7859
        32                         -0.1682832              -4.5792
       ...                                ...                  ...
        62                          0.6305819              17.1590
      -------------------------------------------------------------
                  HL-Gap            0.1653904 Eh            4.5005 eV
             Fermi-level           -0.3751170 Eh          -10.2075 eV

 SCC (total)                   0 d,  0 h,  0 min,  0.043 sec
 SCC setup                      ...        0 min,  0.001 sec (  1.634%)
 Dispersion                     ...        0 min,  0.000 sec (  0.209%)
 classical contributions        ...        0 min,  0.000 sec (  0.082%)
 integral evaluation            ...        0 min,  0.008 sec ( 19.349%)
 iterations                     ...        0 min,  0.019 sec ( 44.087%)
 molecular gradient             ...        0 min,  0.015 sec ( 34.127%)
 printout                       ...        0 min,  0.000 sec (  0.468%)

         :::::::::::::::::::::::::::::::::::::::::::::::::::::
         ::                     SUMMARY                     ::
         :::::::::::::::::::::::::::::::::::::::::::::::::::::
         :: total energy             -30.826225972659 Eh    ::
         :: total w/o Gsasa/hb       -30.812850672199 Eh    ::
         :: gradient norm              0.052127909417 Eh/a0 ::
         :: HOMO-LUMO gap              4.500501305184 eV    ::
         ::.................................................::
         :: SCC energy               -31.233164178137 Eh    ::
         :: -> electrostatic           0.139197423164 Eh    ::
         :: -> Gsolv                  -0.101424666552 Eh    ::
         ::    -> Gelec               -0.088049366091 Eh    ::
         ::    -> Gsasa               -0.014501575450 Eh    ::
         ::    -> Ghb                 -0.006498004015 Eh    ::
         ::    -> Gshift               0.007624279005 Eh    ::
         :: repulsion energy           0.417080837196 Eh    ::
         :: dispersion energy         -0.010142631718 Eh    ::
         :: halogen bond corr.         0.000000000000 Eh    ::
         :: add. restraining           0.000000000000 Eh    ::
         :: total charge               1.000000000000 e     ::
         :::::::::::::::::::::::::::::::::::::::::::::::::::::

      ----------------------------------------------------------- 
     |                   =====================                   |
     |                        A N C O P T                        |
     |                   =====================                   |
     |               Approximate Normal Coordinate               |
     |                Rational Function Optimizer                |
      ----------------------------------------------------------- 

          ...................................................
          :                      SETUP                      :
          :.................................................:
          :   optimization level            normal          :
          :   max. optcycles                   200          :
          :   ANC micro-cycles                  20          :
          :   degrees of freedom                57          :
          :.................................................:
          :   RF solver                   davidson          :
          :   write xtbopt.log                true          :
          :   linear?                        false          :
          :   energy convergence         0.5000000E-05 Eh   :
          :   grad. convergence          0.1000000E-02 Eh/α :
          :   maximium RF displ.         1.0000000          :
          :   Hlow (freq-cutoff)         0.1000000E-01      :
          :   Hmax (freq-cutoff)         5.0000000          :
          :   S6 in model hess.         20.0000000          :
          ...................................................

generating ANC from model Hessian ...
Using Lindh-Hessian (1995)
 Shifting diagonal of input Hessian by   8.401576922550823E-003
 Lowest  eigenvalues of input Hessian
    0.000000    0.000000    0.000000    0.000000    0.000000    0.000000
    0.010000    0.010278    0.012609    0.016484    0.021974    0.024160
    0.026797    0.028783    0.033914    0.036531    0.054380    0.058979
 Highest eigenvalues
    1.476432    1.606642    1.780556    1.895322    1.997159    2.151011
 

........................................................................
.............................. CYCLE    1 ..............................
........................................................................
   1    -31.2331642 -0.312332E+02  0.104E-05    4.50       0.0  T
   2    -31.2331642 -0.252243E-12  0.553E-06    4.50    3943.8  T
   3    -31.2331642 -0.110134E-12  0.892E-07    4.50   24477.6  T
     SCC iter.                  ...        0 min,  0.002 sec
     gradient                   ...        0 min,  0.010 sec
 * total energy  :   -30.8262260 Eh     change       -0.2462031E-11 Eh
   gradient norm :     0.0521279 Eh/α   predicted     0.0000000E+00 (-100.00%)
   displ. norm   :     0.2381804 α      lambda       -0.5692921E-02
   maximum displ.:     0.1532470 α      in ANC's #13, #4, #18, ...

........................................................................
.............................. CYCLE    2 ..............................
........................................................................
   1    -31.2380234 -0.312380E+02  0.403E-02    4.53       0.0  T
   2    -31.2380361 -0.126989E-04  0.202E-02    4.53       1.1  T
   3    -31.2380366 -0.454942E-06  0.836E-03    4.53       2.6  T
   4    -31.2380366 -0.177798E-07  0.169E-03    4.53      12.9  T
   5    -31.2380366 -0.125018E-07  0.429E-04    4.53      50.9  T
   6    -31.2380366 -0.171012E-08  0.110E-04    4.53     199.0  T
   7    -31.2380366 -0.126938E-09  0.172E-05    4.53    1269.3  T
     SCC iter.                  ...        0 min,  0.004 sec
     gradient                   ...        0 min,  0.010 sec
 * total energy  :   -30.8299599 Eh     change       -0.3733949E-02 Eh
   gradient norm :     0.0234984 Eh/α   predicted    -0.3008655E-02 ( -19.42%)
   displ. norm   :     0.1319946 α      lambda       -0.1043012E-02
   maximum displ.:     0.0733561 α      in ANC's #4, #13, #18, ...

........................................................................
.............................. CYCLE    3 ..............................
........................................................................
   1    -31.2411664 -0.312412E+02  0.243E-02    4.54       0.0  T
   2    -31.2411760 -0.965857E-05  0.107E-02    4.53       2.0  T
   3    -31.2411764 -0.399844E-06  0.515E-03    4.53       4.2  T
   4    -31.2411764 -0.269349E-07  0.176E-03    4.53      12.4  T
   5    -31.2411764 -0.638752E-08  0.421E-04    4.53      51.9  T
   6    -31.2411764 -0.167351E-08  0.946E-05    4.53     230.7  T
   7    -31.2411764 -0.753069E-10  0.112E-05    4.53    1942.4  T
     SCC iter.                  ...        0 min,  0.003 sec
     gradient                   ...        0 min,  0.010 sec
 * total energy  :   -30.8305442 Eh     change       -0.5842557E-03 Eh
   gradient norm :     0.0070759 Eh/α   predicted    -0.5307460E-03 (  -9.16%)
   displ. norm   :     0.0577207 α      lambda       -0.8701382E-04
   maximum displ.:     0.0351349 α      in ANC's #4, #2, #1, ...

........................................................................
.............................. CYCLE    4 ..............................
........................................................................
   1    -31.2417741 -0.312418E+02  0.733E-03    4.53       0.0  T
   2    -31.2417754 -0.131661E-05  0.313E-03    4.53       7.0  T
   3    -31.2417755 -0.619813E-07  0.147E-03    4.53      14.8  T
   4    -31.2417755 -0.678531E-08  0.685E-04    4.53      31.9  T
   5    -31.2417755 -0.933717E-09  0.161E-04    4.53     135.8  T
   6    -31.2417755 -0.137938E-09  0.370E-05    4.53     589.6  T
     SCC iter.                  ...        0 min,  0.003 sec
     gradient                   ...        0 min,  0.010 sec
 * total energy  :   -30.8306054 Eh     change       -0.6122794E-04 Eh
   gradient norm :     0.0025094 Eh/α   predicted    -0.4366265E-04 ( -28.69%)
   displ. norm   :     0.0640472 α      lambda       -0.3959198E-04
   maximum displ.:     0.0385528 α      in ANC's #2, #1, #4, ...

........................................................................
.............................. CYCLE    5 ..............................
........................................................................
   1    -31.2418546 -0.312419E+02  0.523E-03    4.53       0.0  T
   2    -31.2418552 -0.648827E-06  0.236E-03    4.52       9.3  T
   3    -31.2418553 -0.322759E-07  0.117E-03    4.52      18.7  T
   4    -31.2418553 -0.333374E-08  0.518E-04    4.52      42.1  T
   5    -31.2418553 -0.513527E-09  0.114E-04    4.52     191.3  T
   6    -31.2418553 -0.944524E-10  0.259E-05    4.52     843.5  T
     SCC iter.                  ...        0 min,  0.003 sec
     gradient                   ...        0 min,  0.010 sec
 * total energy  :   -30.8306301 Eh     change       -0.2473077E-04 Eh
   gradient norm :     0.0011365 Eh/α   predicted    -0.1988174E-04 ( -19.61%)
   displ. norm   :     0.0605659 α      lambda       -0.1009771E-04
   maximum displ.:     0.0389442 α      in ANC's #2, #1, #3, ...

........................................................................
.............................. CYCLE    6 ..............................
........................................................................
   1    -31.2417259 -0.312417E+02  0.194E-03    4.52       0.0  T
   2    -31.2417260 -0.704588E-07  0.823E-04    4.52      26.5  T
   3    -31.2417260 -0.349111E-08  0.423E-04    4.52      51.5  T
   4    -31.2417260 -0.354689E-09  0.169E-04    4.52     129.0  T
   5    -31.2417260 -0.573586E-10  0.404E-05    4.52     539.9  T
     SCC iter.                  ...        0 min,  0.003 sec
     gradient                   ...        0 min,  0.010 sec
 * total energy  :   -30.8306410 Eh     change       -0.1083024E-04 Eh
   gradient norm :     0.0015813 Eh/α   predicted    -0.5057364E-05 ( -53.30%)
   displ. norm   :     0.0576704 α      lambda       -0.8819840E-05
   maximum displ.:     0.0362184 α      in ANC's #2, #1, #3, ...

........................................................................
.............................. CYCLE    7 ..............................
........................................................................
   1    -31.2416562 -0.312417E+02  0.122E-03    4.52       0.0  T
   2    -31.2416562 -0.377860E-07  0.567E-04    4.52      38.5  T
   3    -31.2416562 -0.210541E-08  0.253E-04    4.52      86.2  T
   4    -31.2416562 -0.223825E-09  0.127E-04    4.52     171.6  T
   5    -31.2416562 -0.425437E-10  0.283E-05    4.52     771.9  T
     SCC iter.                  ...        0 min,  0.003 sec
     gradient                   ...        0 min,  0.010 sec
 * total energy  :   -30.8306511 Eh     change       -0.1009012E-04 Eh
   gradient norm :     0.0008853 Eh/α   predicted    -0.4421291E-05 ( -56.18%)
   displ. norm   :     0.0655856 α      lambda       -0.6280959E-05
   maximum displ.:     0.0418556 α      in ANC's #2, #1, #3, ...

........................................................................
.............................. CYCLE    8 ..............................
........................................................................
   1    -31.2417218 -0.312417E+02  0.128E-03    4.52       0.0  T
   2    -31.2417218 -0.493358E-07  0.630E-04    4.52      34.6  T
   3    -31.2417218 -0.299735E-08  0.301E-04    4.52      72.6  T
   4    -31.2417218 -0.264592E-09  0.148E-04    4.52     147.0  T
   5    -31.2417218 -0.479474E-10  0.271E-05    4.52     805.8  T
     SCC iter.                  ...        0 min,  0.002 sec
     gradient                   ...        0 min,  0.010 sec
 * total energy  :   -30.8306570 Eh     change       -0.5978045E-05 Eh
   gradient norm :     0.0004302 Eh/α   predicted    -0.3147089E-05 ( -47.36%)
   displ. norm   :     0.0236987 α      lambda       -0.1080225E-05
   maximum displ.:     0.0166237 α      in ANC's #2, #5, #1, ...

........................................................................
.............................. CYCLE    9 ..............................
........................................................................
   1    -31.2418136 -0.312418E+02  0.579E-04    4.52       0.0  T
   2    -31.2418136 -0.716645E-08  0.222E-04    4.52      98.2  T
   3    -31.2418136 -0.345882E-09  0.108E-04    4.52     202.5  T
   4    -31.2418136 -0.268550E-10  0.529E-05    4.52     412.5  T
     SCC iter.                  ...        0 min,  0.002 sec
     gradient                   ...        0 min,  0.010 sec
 * total energy  :   -30.8306581 Eh     change       -0.1076595E-05 Eh
   gradient norm :     0.0002059 Eh/α   predicted    -0.5428600E-06 ( -49.58%)
   displ. norm   :     0.0109600 α      lambda       -0.3723333E-06
   maximum displ.:     0.0083167 α      in ANC's #2, #5, #8, ...

   *** GEOMETRY OPTIMIZATION CONVERGED AFTER 9 ITERATIONS ***

------------------------------------------------------------------------
 total energy gain   :        -0.0044321 Eh       -2.7812 kcal/mol
 total RMSD          :         0.1158072 a0        0.0613 Å
 total power (kW/mol):        -1.2929532 (step)  -67.7029 (real)
------------------------------------------------------------------------

 ANCopt (total)                0 d,  0 h,  0 min,  0.172 sec
 optimizer setup                ...        0 min,  0.001 sec (  0.318%)
 model hessian                  ...        0 min,  0.005 sec (  2.679%)
 ANC generation                 ...        0 min,  0.000 sec (  0.243%)
 coordinate transformation      ...        0 min,  0.000 sec (  0.030%)
 single point calculation       ...        0 min,  0.164 sec ( 95.450%)
 optimization log               ...        0 min,  0.001 sec (  0.861%)
 hessian update                 ...        0 min,  0.000 sec (  0.034%)
 rational function              ...        0 min,  0.000 sec (  0.195%)

================
 final structure:
================
21
 xtb: 6.5.1 (579679a)
C           -2.25521542596684        0.89646600190451        0.54342317245476
N           -2.12498607683347       -0.39463713423807       -0.17280051469170
C           -0.98510631145820       -1.23563450799191        0.32009795408769
C            0.33128642626767       -0.55646521365094        0.04983570799436
C            0.84635009232109       -0.53505693730167       -1.24612456439548
C            2.06008584101451        0.08104831966787       -1.50961006142363
C            2.74243199040964        0.66528857483038       -0.45591636745462
F            3.91443703531899        1.25739261844092       -0.70088377107714
C            2.25924449305351        0.65976972814288        0.84100179344272
C            1.04096123548457        0.04390164289575        1.08836081139534
H           -1.33827146662716        1.46376194304155        0.40429855426132
H           -2.42021547286025        0.69155186837165        1.59813889076611
H           -3.10301194319078        1.42956498213663        0.12084404814015
H           -2.00453754410905       -0.21704500570969       -1.16715085364220
H           -2.98396075111184       -0.92364493377345       -0.05730779099038
H           -1.14801085390680       -1.39841135588579        1.38599859920872
H           -1.06032246601709       -2.18502247445568       -0.21291088886518
H            0.29563712848347       -1.00518603021447       -2.05112630072264
H            2.47009636467082        0.10620338391402       -2.51104941442699
H            2.82184243203574        1.12876986356376        1.63796183074282
H            0.64126427302168        0.02738166631145        2.09491816519597
 
 Bond Distances (Angstroems)
 ---------------------------
C1-N2=1.4822         C1-H11=1.0872        C1-H12=1.0870        C1-H13=1.0870        N2-C1=1.4822         N2-C3=1.4999         
N2-H14=1.0172        N2-H15=1.0154        C3-N2=1.4999         C3-C4=1.5057         C3-H16=1.0905        C3-H17=1.0914        
C4-C3=1.5057         C4-C5=1.3947         C4-C10=1.3938        C5-C4=1.3947         C5-C6=1.3864         C5-H18=1.0827        
C6-C5=1.3864         C6-C7=1.3846         C6-H19=1.0824        C7-C6=1.3846         C7-F8=1.3357         C7-C9=1.3840         
F8-C7=1.3357         C9-C7=1.3840         C9-C10=1.3873        C9-H20=1.0824        C10-C4=1.3938        C10-C9=1.3873        
C10-H21=1.0831       H11-C1=1.0872        H12-C1=1.0870        H13-C1=1.0870        H14-N2=1.0172        H15-N2=1.0154        
H16-C3=1.0905        H17-C3=1.0914        H18-C5=1.0827        H19-C6=1.0824        H20-C9=1.0824        H21-C10=1.0831       
 C  H  Rav=1.0860 sigma=0.0033  Rmin=1.0824  Rmax=1.0914     9
 C  C  Rav=1.4052 sigma=0.0412  Rmin=1.3840  Rmax=1.5057     7
 N  H  Rav=1.0163 sigma=0.0009  Rmin=1.0154  Rmax=1.0172     2
 N  C  Rav=1.4910 sigma=0.0088  Rmin=1.4822  Rmax=1.4999     2
 F  C  Rav=1.3357 sigma=0.0000  Rmin=1.3357  Rmax=1.3357     1
 
 selected bond angles (degree)
 --------------------
H11-C1-N2=108.58               H12-C1-N2=108.54               H12-C1-H11=110.52              H13-C1-N2=107.93               
H13-C1-H11=110.62              H13-C1-H12=110.56              C3-N2-C1=113.35                H14-N2-C1=109.31               
H14-N2-C3=109.22               H15-N2-C1=108.94               H15-N2-C3=108.26               H15-N2-H14=107.60              
C4-C3-N2=110.64                H16-C3-N2=106.94               H16-C3-C4=111.92               H17-C3-N2=105.96               
H17-C3-C4=111.41               H17-C3-H16=109.71              C5-C4-C3=119.77                C10-C4-C3=120.38               
C10-C4-C5=119.85               C6-C5-C4=120.44                H18-C5-C4=119.76               H18-C5-C6=119.80               
C7-C6-C5=118.31                H19-C6-C5=121.18               H19-C6-C7=120.50               F8-C7-C6=118.68                
C9-C7-C6=122.64                C9-C7-F8=118.68                C10-C9-C7=118.39               H20-C9-C7=120.45               
H20-C9-C10=121.16              C9-C10-C4=120.36               H21-C10-C4=119.87              H21-C10-C9=119.77              
 
 selected dihedral angles (degree)
 ---------------------------------
C3-N2-C1-H11= 60.19           C3-N2-C1-H12=300.00           C3-N2-C1-H13=180.14           H14-N2-C1-H11=298.10          
H14-N2-C1-H12=177.92          H14-N2-C1-H13= 58.05          H15-N2-C1-H11=180.79          H15-N2-C1-H12= 60.60          
H15-N2-C1-H13=300.74          C4-C3-N2-C1=295.44            C4-C3-N2-H14= 57.58           C4-C3-N2-H15=174.46           
H16-C3-N2-C1= 57.57           H16-C3-N2-H14=179.71          H16-C3-N2-H15=296.59          H17-C3-N2-C1=174.56           
H17-C3-N2-H14=296.69          H17-C3-N2-H15= 53.58          C5-C4-C3-N2=284.86            C5-C4-C3-H16=165.70           
C5-C4-C3-H17= 42.46           C10-C4-C3-N2=105.23           C10-C4-C3-H16=346.07          C10-C4-C3-H17=222.82          
C6-C5-C4-C3=180.30            C6-C5-C4-C10=359.93           H18-C5-C4-C3=  0.13           H18-C5-C4-C10=179.77          
C7-C6-C5-C4=  0.23            C7-C6-C5-H18=180.40           H19-C6-C5-C4=180.11           H19-C6-C5-H18=  0.27          
F8-C7-C6-C5=179.80            F8-C7-C6-H19=359.93           C9-C7-C6-C5=359.84            C9-C7-C6-H19=179.96           
C10-C9-C7-C6=359.92           C10-C9-C7-F8=179.96           H20-C9-C7-C6=180.09           H20-C9-C7-F8=  0.12           
C9-C10-C4-C3=179.45           C9-C10-C4-C5=359.82           H21-C10-C4-C3=359.64          H21-C10-C4-C5=180.00          
C4-C10-C9-C7=  0.25           C4-C10-C9-H20=180.08          H21-C10-C9-C7=180.07          H21-C10-C9-H20=359.90         
           -------------------------------------------------
          |                Final Singlepoint                |
           -------------------------------------------------

          ...................................................
          :                      SETUP                      :
          :.................................................:
          :  # basis functions                  62          :
          :  # atomic orbitals                  62          :
          :  # shells                           42          :
          :  # electrons                        54          :
          :  # halogen bonds                     0          :
          :  max. iterations                   250          :
          :  Hamiltonian                  GFN1-xTB          :
          :  restarted?                      false          :
          :  GBSA solvation                   true          :
          :  PC potential                    false          :
          :  electronic temp.          300.0000000     K    :
          :  accuracy                    1.0000000          :
          :  -> integral cutoff          0.2500000E+02      :
          :  -> integral neglect         0.1000000E-07      :
          :  -> SCF convergence          0.1000000E-05 Eh   :
          :  -> wf. convergence          0.2000000E-04 e    :
          :  Broyden damping             0.4000000          :
          ...................................................

 iter      E             dE          RMSdq      gap      omega  full diag
   1    -31.2418136 -0.312418E+02  0.992E-06    4.52       0.0  T
   2    -31.2418136 -0.799361E-12  0.471E-06    4.52    4631.6  T
   3    -31.2418136 -0.603961E-13  0.206E-06    4.52   10578.8  T

   *** convergence criteria satisfied after 3 iterations ***

         #    Occupation            Energy/Eh            Energy/eV
      -------------------------------------------------------------
         1        2.0000           -0.8853327             -24.0911
       ...           ...                  ...                  ...
        21        2.0000           -0.5543224             -15.0839
        22        2.0000           -0.5352426             -14.5647
        23        2.0000           -0.5312868             -14.4570
        24        2.0000           -0.5182158             -14.1014
        25        2.0000           -0.4924950             -13.4015
        26        2.0000           -0.4714697             -12.8293
        27        2.0000           -0.4597671             -12.5109 (HOMO)
        28                         -0.2935149              -7.9869 (LUMO)
        29                         -0.2917760              -7.9396
        30                         -0.1831860              -4.9847
        31                         -0.1730140              -4.7080
        32                         -0.1688447              -4.5945
       ...                                ...                  ...
        62                          0.6265011              17.0480
      -------------------------------------------------------------
                  HL-Gap            0.1662523 Eh            4.5240 eV
             Fermi-level           -0.3766410 Eh          -10.2489 eV

 SCC (total)                   0 d,  0 h,  0 min,  0.017 sec
 SCC setup                      ...        0 min,  0.000 sec (  2.253%)
 Dispersion                     ...        0 min,  0.000 sec (  0.249%)
 classical contributions        ...        0 min,  0.000 sec (  0.111%)
 integral evaluation            ...        0 min,  0.005 sec ( 28.841%)
 iterations                     ...        0 min,  0.002 sec (  9.319%)
 molecular gradient             ...        0 min,  0.010 sec ( 58.271%)
 printout                       ...        0 min,  0.000 sec (  0.884%)

         :::::::::::::::::::::::::::::::::::::::::::::::::::::
         ::                     SUMMARY                     ::
         :::::::::::::::::::::::::::::::::::::::::::::::::::::
         :: total energy             -30.830658111378 Eh    ::
         :: total w/o Gsasa/hb       -30.817282559314 Eh    ::
         :: gradient norm              0.000208508174 Eh/a0 ::
         :: HOMO-LUMO gap              4.523954335301 eV    ::
         ::.................................................::
         :: SCC energy               -31.241813616936 Eh    ::
         :: -> electrostatic           0.141396319953 Eh    ::
         :: -> Gsolv                  -0.102480102135 Eh    ::
         ::    -> Gelec               -0.089104550071 Eh    ::
         ::    -> Gsasa               -0.014444563197 Eh    ::
         ::    -> Ghb                 -0.006555267873 Eh    ::
         ::    -> Gshift               0.007624279005 Eh    ::
         :: repulsion energy           0.421408197329 Eh    ::
         :: dispersion energy         -0.010252691771 Eh    ::
         :: halogen bond corr.         0.000000000000 Eh    ::
         :: add. restraining           0.000000000000 Eh    ::
         :: total charge               1.000000000000 e     ::
         :::::::::::::::::::::::::::::::::::::::::::::::::::::

           -------------------------------------------------
          |                Property Printout                |
           -------------------------------------------------

    * Orbital Energies and Occupations

         #    Occupation            Energy/Eh            Energy/eV
      -------------------------------------------------------------
         1        2.0000           -0.8853327             -24.0911
       ...           ...                  ...                  ...
        15        2.0000           -0.5961169             -16.2212
        16        2.0000           -0.5818130             -15.8319
        17        2.0000           -0.5658531             -15.3976
        18        2.0000           -0.5643068             -15.3556
        19        2.0000           -0.5612691             -15.2729
        20        2.0000           -0.5585291             -15.1983
        21        2.0000           -0.5543224             -15.0839
        22        2.0000           -0.5352426             -14.5647
        23        2.0000           -0.5312868             -14.4570
        24        2.0000           -0.5182158             -14.1014
        25        2.0000           -0.4924950             -13.4015
        26        2.0000           -0.4714697             -12.8293
        27        2.0000           -0.4597671             -12.5109 (HOMO)
        28                         -0.2935149              -7.9869 (LUMO)
        29                         -0.2917760              -7.9396
        30                         -0.1831860              -4.9847
        31                         -0.1730140              -4.7080
        32                         -0.1688447              -4.5945
        33                         -0.1611744              -4.3858
        34                         -0.1383695              -3.7652
        35                         -0.1216379              -3.3099
        36                         -0.1121796              -3.0526
        37                         -0.1058305              -2.8798
        38                         -0.0989485              -2.6925
       ...                                ...                  ...
        62                          0.6265011              17.0480
      -------------------------------------------------------------
                  HL-Gap            0.1662523 Eh            4.5240 eV
             Fermi-level           -0.3766410 Eh          -10.2489 eV

  Mulliken/CM5 charges         n(s)   n(p)   n(d)
     1C     0.01911 -0.08272   1.011  2.970  0.000
     2N    -0.19023 -0.72474   1.468  3.722  0.000
     3C     0.05340 -0.00370   1.037  2.910  0.000
     4C    -0.03210 -0.04395   1.079  2.953  0.000
     5C    -0.02886 -0.08202   1.065  2.964  0.000
     6C    -0.05408 -0.10499   1.060  2.994  0.000
     7C     0.25763  0.26922   1.047  2.696  0.000
     8F    -0.25735 -0.28188   1.825  5.432  0.000
     9C    -0.05539 -0.10633   1.060  2.995  0.000
    10C    -0.02415 -0.07790   1.065  2.959  0.000
    11H     0.08123  0.14450   0.919  0.000  0.000
    12H     0.08920  0.15089   0.911  0.000  0.000
    13H     0.09537  0.15639   0.905  0.000  0.000
    14H     0.29532  0.48589   0.705  0.000  0.000
    15H     0.30756  0.49772   0.692  0.000  0.000
    16H     0.08457  0.15031   0.915  0.000  0.000
    17H     0.09083  0.15597   0.909  0.000  0.000
    18H     0.05881  0.11675   0.941  0.000  0.000
    19H     0.07503  0.13211   0.925  0.000  0.000
    20H     0.07467  0.13176   0.925  0.000  0.000
    21H     0.05943  0.11673   0.941  0.000  0.000

Wiberg/Mayer (AO) data.
largest (>0.10) Wiberg bond orders for each atom

 ---------------------------------------------------------------------------
     #   Z sym  total        # sym  WBO       # sym  WBO       # sym  WBO
 ---------------------------------------------------------------------------
     1   6 C    3.898 --    12 H    0.984    11 H    0.984    13 H    0.981
                             2 N    0.922
     2   7 N    3.605 --     1 C    0.922     3 C    0.894    14 H    0.893
                            15 H    0.888
     3   6 C    3.902 --     4 C    1.008    16 H    0.975    17 H    0.968
                             2 N    0.894
     4   6 C    3.984 --    10 C    1.414     5 C    1.411     3 C    1.008
     5   6 C    3.993 --     6 C    1.450     4 C    1.411    18 H    0.969
                             9 C    0.109
     6   6 C    3.991 --     5 C    1.450     7 C    1.394    19 H    0.967
                            10 C    0.108
     7   6 C    3.866 --     9 C    1.398     6 C    1.394     8 F    0.941
     8   9 F    1.074 --     7 C    0.941
     9   6 C    3.991 --    10 C    1.444     7 C    1.398    20 H    0.967
                             5 C    0.109
    10   6 C    3.993 --     9 C    1.444     4 C    1.414    21 H    0.969
                             6 C    0.108
    11   1 H    0.999 --     1 C    0.984
    12   1 H    0.991 --     1 C    0.984
    13   1 H    0.989 --     1 C    0.981
    14   1 H    0.921 --     2 N    0.893
    15   1 H    0.909 --     2 N    0.888
    16   1 H    0.994 --     3 C    0.975
    17   1 H    0.993 --     3 C    0.968
    18   1 H    0.995 --     5 C    0.969
    19   1 H    0.995 --     6 C    0.967
    20   1 H    0.995 --     9 C    0.967
    21   1 H    0.997 --    10 C    0.969
 ---------------------------------------------------------------------------

Topologies differ in total number of bonds
Writing topology from bond orders to xtbtopo.mol

 dipole moment from electron density (au)
     X       Y       Z   
  -4.3232  -0.9642  -0.1605  total (Debye):   11.266

           -------------------------------------------------
          |                Geometry Summary                 |
           -------------------------------------------------

      molecular mass/u    :      140.1783418
   center of mass at/Å    :        0.7794190       0.1262950      -0.1349331
  moments of inertia/u·Å² :        0.1597911E+03   0.7082355E+03   0.7572421E+03
rotational constants/cm⁻¹ :        0.1054979E+00   0.2380230E-01   0.2226188E-01

 * 20 selected distances

     #   Z          #   Z                                           value/Å
     1   6 C        2   7 N                                       1.4821888
     2   7 N        3   6 C                                       1.4998506 (max)
     4   6 C        5   6 C                                       1.3947266
     5   6 C        6   6 C                                       1.3864217
     6   6 C        7   6 C                                       1.3846313
     7   6 C        8   9 F                                       1.3357366
     7   6 C        9   6 C                                       1.3840151
     4   6 C       10   6 C                                       1.3937767
     9   6 C       10   6 C                                       1.3873336
     1   6 C       11   1 H                                       1.0871830
     1   6 C       12   1 H                                       1.0870328
     1   6 C       13   1 H                                       1.0869806
     2   7 N       14   1 H                                       1.0172412
     2   7 N       15   1 H                                       1.0153943 (min)
     3   6 C       16   1 H                                       1.0904947
     3   6 C       17   1 H                                       1.0913724
     5   6 C       18   1 H                                       1.0827438
     6   6 C       19   1 H                                       1.0824151
     9   6 C       20   1 H                                       1.0824154
    10   6 C       21   1 H                                       1.0831383

 * 5 distinct bonds (by element types)

   Z      Z             #   av. dist./Å        max./Å        min./Å
   1 H    6 C           9     1.0859751     1.0913724     1.0824151
   6 C    6 C           6     1.3884841     1.3947266     1.3840151
   1 H    7 N           2     1.0163177     1.0172412     1.0153943
   6 C    7 N           2     1.4910197     1.4998506     1.4821888
   6 C    9 F           1     1.3357366     1.3357366     1.3357366


optimized geometry written to: xtbopt.xyz


           -------------------------------------------------
          | TOTAL ENERGY              -30.830658111378 Eh   |
          | GRADIENT NORM               0.000208508174 Eh/α |
          | HOMO-LUMO GAP               4.523954335301 eV   |
           -------------------------------------------------

------------------------------------------------------------------------
 * finished run on 2023/06/20 at 15:13:51.228     
------------------------------------------------------------------------
 total:
 * wall-time:     0 d,  0 h,  0 min,  0.287 sec
 *  cpu-time:     0 d,  0 h,  0 min,  0.237 sec
 * ratio c/w:     0.827 speedup
 SCF:
 * wall-time:     0 d,  0 h,  0 min,  0.043 sec
 *  cpu-time:     0 d,  0 h,  0 min,  0.032 sec
 * ratio c/w:     0.743 speedup
 ANC optimizer:
 * wall-time:     0 d,  0 h,  0 min,  0.192 sec
 *  cpu-time:     0 d,  0 h,  0 min,  0.189 sec
 * ratio c/w:     0.983 speedup

