      -----------------------------------------------------------      
     |                   =====================                   |     
     |                           x T B                           |     
     |                   =====================                   |     
     |                         S. Grimme                         |     
     |          Mulliken Center for Theoretical Chemistry        |     
     |                    University of Bonn                     |     
      -----------------------------------------------------------      

   * xtb version 6.5.1 (579679a) compiled by 'ehlert@majestix' on 2022-07-11

   xtb is free software: you can redistribute it and/or modify it under
   the terms of the GNU Lesser General Public License as published by
   the Free Software Foundation, either version 3 of the License, or
   (at your option) any later version.
   
   xtb is distributed in the hope that it will be useful,
   but WITHOUT ANY WARRANTY; without even the implied warranty of
   MERCHANTABILITY or FITNESS FOR A PARTICULAR PURPOSE.  See the
   GNU Lesser General Public License for more details.
   
   Cite this work as:
   * C. Bannwarth, E. Caldeweyher, S. Ehlert, A. Hansen, P. Pracht,
     J. Seibert, S. Spicher, S. Grimme, WIREs Comput. Mol. Sci., 2020, 11,
     e01493. DOI: 10.1002/wcms.1493
   
   for GFN2-xTB:
   * C. Bannwarth, S. Ehlert and S. Grimme., J. Chem. Theory Comput., 2019,
     15, 1652-1671. DOI: 10.1021/acs.jctc.8b01176
   for GFN1-xTB:
   * S. Grimme, C. Bannwarth, P. Shushkov, J. Chem. Theory Comput., 2017,
     13, 1989-2009. DOI: 10.1021/acs.jctc.7b00118
   for GFN0-xTB:
   * P. Pracht, E. Caldeweyher, S. Ehlert, S. Grimme, ChemRxiv, 2019, preprint.
     DOI: 10.26434/chemrxiv.8326202.v1
   for GFN-FF:
   * S. Spicher and S. Grimme, Angew. Chem. Int. Ed., 2020, 59, 15665-15673.
     DOI: 10.1002/anie.202004239
   
   for ALPB and GBSA implicit solvation:
   * S. Ehlert, M. Stahn, S. Spicher, S. Grimme, J. Chem. Theory Comput.,
     2021, 17, 4250-4261. DOI: 10.1021/acs.jctc.1c00471
   
   for DFT-D4:
   * E. Caldeweyher, C. Bannwarth and S. Grimme, J. Chem. Phys., 2017,
     147, 034112. DOI: 10.1063/1.4993215
   * E. Caldeweyher, S. Ehlert, A. Hansen, H. Neugebauer, S. Spicher,
     C. Bannwarth and S. Grimme, J. Chem. Phys., 2019, 150, 154122.
     DOI: 10.1063/1.5090222
   * E. Caldeweyher, J.-M. Mewes, S. Ehlert and S. Grimme, Phys. Chem. Chem. Phys.
     2020, 22, 8499-8512. DOI: 10.1039/D0CP00502A
   
   for sTDA-xTB:
   * S. Grimme and C. Bannwarth, J. Chem. Phys., 2016, 145, 054103.
     DOI: 10.1063/1.4959605
   
   in the mass-spec context:
   * V. Asgeirsson, C. Bauer and S. Grimme, Chem. Sci., 2017, 8, 4879.
     DOI: 10.1039/c7sc00601b
   * J. Koopman and S. Grimme, ACS Omega 2019, 4, 12, 15120-15133.
     DOI: 10.1021/acsomega.9b02011
   
   for metadynamics refer to:
   * S. Grimme, J. Chem. Theory Comput., 2019, 155, 2847-2862
     DOI: 10.1021/acs.jctc.9b00143
   
   for SPH calculations refer to:
   * S. Spicher and S. Grimme, J. Chem. Theory Comput., 2021, 17, 1701-1714
     DOI: 10.1021/acs.jctc.0c01306
   
   with help from (in alphabetical order)
   P. Atkinson, C. Bannwarth, F. Bohle, G. Brandenburg, E. Caldeweyher
   M. Checinski, S. Dohm, S. Ehlert, S. Ehrlich, I. Gerasimov, C. Hölzer
   A. Katbashev, J. Koopman, C. Lavigne, S. Lehtola, F. März, M. Müller,
   F. Musil, H. Neugebauer, J. Pisarek, C. Plett, P. Pracht, F. Pultar,
   J. Seibert, P. Shushkov, S. Spicher, M. Stahn, M. Steiner, T. Strunk,
   J. Stückrath, T. Rose, and J. Unsleber
   
 * started run on 2023/06/21 at 17:32:58.935     

           -------------------------------------------------
          |                Calculation Setup                |
           -------------------------------------------------

          program call               : /lustre/hpc/kemi/ree/PhD/git/ReactivityQM/dep/xtb-6.5.1/bin/xtb --gfn 1 /lustre/hpc/kemi/ree/PhD/git/ReactivityQM/calculations/R02oxygendeprot/reac01prodN14/conf17/R02oxygendeprot_reac01prodN14_conf17_gfn1.xyz --opt --vfukui --chrg 0 --uhf 0 --alpb DMSO
          hostname                   : node070
          coordinate file            : /lustre/hpc/kemi/ree/PhD/git/ReactivityQM/calculations/R02oxygendeprot/reac01prodN14/conf17/R02oxygendeprot_reac01prodN14_conf17_gfn1.xyz
          omp threads                :                     1

   ID    Z sym.   atoms
    1    6 C      1, 3, 5, 6, 8, 9, 12-15, 17, 19, 22, 23
    2    8 O      2, 4, 7, 10, 18, 24
    3    7 N      11, 16, 20, 21, 25
    4    1 H      26-42

           -------------------------------------------------
          |                 G F N 1 - x T B                 |
           -------------------------------------------------

        Reference                      10.1021/acs.jctc.7b00118
      * Hamiltonian:
        H0-scaling (s, p, d)           1.850000    2.250000    2.000000
        zeta-weighting                 0.000000
      * Dispersion:
        s8                             2.400000
        a1                             0.630000
        a2                             5.000000
        s9                             0.000000
      * Repulsion:
        kExp                           1.500000
        rExp                           1.000000
      * Coulomb:
        alpha                          2.000000
        third order                    atomic
        anisotropic                    false
      * Halogen bond correction:
        rad-scale                      1.300000
        damping                        0.440000

      * Solvation model:               ALPB
        Solvent                        DMSO
        Parameter file                 internal GFN1-xTB/ALPB
        Dielectric constant                4.6680E+01
        Reference state                gsolv [1 M gas/solution]
        Free energy shift                  7.6243E-03 Eh       4.7843E+00 kcal/mol
        Temperature                        2.9815E+02 K
        Density                            1.1000E+00 kg/L
        Solvent mass                       7.8130E+01 g/mol
        Interaction kernel             P16
        Born radius scaling (c1)           1.7672E+00
        Born radii integrator          GBOBC
        Born offset                        0.0000E+00 a0       0.0000E+00 AA
        H-bond correction              true
        Ion screening                  false
        Surface tension                    1.0000E-05 Eh       1.5569E+01 dyn/cm
        Grid points                               230 per atom

          ...................................................
          :                      SETUP                      :
          :.................................................:
          :  # basis functions                 134          :
          :  # atomic orbitals                 134          :
          :  # shells                           84          :
          :  # electrons                       134          :
          :  # halogen bonds                     0          :
          :  max. iterations                   250          :
          :  Hamiltonian                  GFN1-xTB          :
          :  restarted?                      false          :
          :  GBSA solvation                   true          :
          :  PC potential                    false          :
          :  electronic temp.          300.0000000     K    :
          :  accuracy                    1.0000000          :
          :  -> integral cutoff          0.2500000E+02      :
          :  -> integral neglect         0.1000000E-07      :
          :  -> SCF convergence          0.1000000E-05 Eh   :
          :  -> wf. convergence          0.2000000E-04 e    :
          :  Broyden damping             0.4000000          :
          ...................................................

 iter      E             dE          RMSdq      gap      omega  full diag
   1    -83.2060191 -0.832060E+02  0.845E+00    0.90       0.0  T
   2    -83.4117817 -0.205763E+00  0.538E+00    0.36       1.0  T
   3    -83.4210032 -0.922152E-02  0.292E+00    0.94       1.0  T
   4    -83.5941782 -0.173175E+00  0.112E+00    0.77       1.0  T
   5    -83.6344051 -0.402270E-01  0.419E-01    0.19       1.0  T
   6    -83.3748116  0.259594E+00  0.184E+00    0.37       1.0  T
   7    -83.6403669 -0.265555E+00  0.316E-01    0.17       1.0  T
   8    -83.6463927 -0.602574E-02  0.105E-01    0.13       1.0  T
   9    -83.6376143  0.877841E-02  0.343E-01    0.18       1.0  T
  10    -83.6467361 -0.912188E-02  0.540E-02    0.12       1.0  T
  11    -83.6469653 -0.229136E-03  0.288E-02    0.12       1.0  T
  12    -83.6469450  0.202996E-04  0.271E-02    0.12       1.0  T
  13    -83.6469956 -0.506581E-04  0.125E-02    0.12       1.2  T
  14    -83.6470003 -0.465071E-05  0.975E-03    0.12       1.6  T
  15    -83.6470078 -0.753996E-05  0.275E-03    0.12       5.6  T
  16    -83.6470084 -0.589519E-06  0.772E-04    0.12      20.0  T
  17    -83.6470084 -0.417566E-07  0.317E-04    0.12      48.7  T
  18    -83.6470084 -0.768530E-08  0.324E-05    0.12     476.0  T
  19    -83.6470084 -0.419504E-10  0.108E-05    0.12    1424.8  T

   *** convergence criteria satisfied after 19 iterations ***

         #    Occupation            Energy/Eh            Energy/eV
      -------------------------------------------------------------
         1        2.0000           -0.8671717             -23.5969
       ...           ...                  ...                  ...
        61        2.0000           -0.4752497             -12.9322
        62        2.0000           -0.4680982             -12.7376
        63        2.0000           -0.4638031             -12.6207
        64        2.0000           -0.4493938             -12.2286
        65        2.0000           -0.4476470             -12.1811
        66        2.0000           -0.4431939             -12.0599
        67        1.8159           -0.4208003             -11.4506 (HOMO)
        68        0.1841           -0.4164513             -11.3322 (LUMO)
        69                         -0.3220306              -8.7629
        70                         -0.3138337              -8.5398
        71                         -0.2983811              -8.1194
        72                         -0.2615894              -7.1182
       ...                                ...                  ...
       134                          0.6861148              18.6701
      -------------------------------------------------------------
                  HL-Gap            0.0043490 Eh            0.1183 eV
             Fermi-level           -0.4186258 Eh          -11.3914 eV

 SCC (total)                   0 d,  0 h,  0 min,  0.181 sec
 SCC setup                      ...        0 min,  0.002 sec (  0.979%)
 Dispersion                     ...        0 min,  0.000 sec (  0.150%)
 classical contributions        ...        0 min,  0.000 sec (  0.049%)
 integral evaluation            ...        0 min,  0.026 sec ( 14.201%)
 iterations                     ...        0 min,  0.097 sec ( 53.582%)
 molecular gradient             ...        0 min,  0.055 sec ( 30.380%)
 printout                       ...        0 min,  0.001 sec (  0.646%)

         :::::::::::::::::::::::::::::::::::::::::::::::::::::
         ::                     SUMMARY                     ::
         :::::::::::::::::::::::::::::::::::::::::::::::::::::
         :: total energy             -82.899279171115 Eh    ::
         :: total w/o Gsasa/hb       -82.878664503826 Eh    ::
         :: gradient norm              0.138820718259 Eh/a0 ::
         :: HOMO-LUMO gap              0.118341029050 eV    ::
         ::.................................................::
         :: SCC energy               -83.647008449867 Eh    ::
         :: -> electrostatic           0.389104926681 Eh    ::
         :: -> Gsolv                  -0.066947344648 Eh    ::
         ::    -> Gelec               -0.046332677359 Eh    ::
         ::    -> Gsasa               -0.024199037536 Eh    ::
         ::    -> Ghb                 -0.004039908758 Eh    ::
         ::    -> Gshift               0.007624279005 Eh    ::
         :: repulsion energy           0.773682436074 Eh    ::
         :: dispersion energy         -0.025953157322 Eh    ::
         :: halogen bond corr.         0.000000000000 Eh    ::
         :: add. restraining           0.000000000000 Eh    ::
         :: total charge               0.000000000012 e     ::
         :::::::::::::::::::::::::::::::::::::::::::::::::::::

      ----------------------------------------------------------- 
     |                   =====================                   |
     |                        A N C O P T                        |
     |                   =====================                   |
     |               Approximate Normal Coordinate               |
     |                Rational Function Optimizer                |
      ----------------------------------------------------------- 

          ...................................................
          :                      SETUP                      :
          :.................................................:
          :   optimization level            normal          :
          :   max. optcycles                   200          :
          :   ANC micro-cycles                  20          :
          :   degrees of freedom               120          :
          :.................................................:
          :   RF solver                   davidson          :
          :   write xtbopt.log                true          :
          :   linear?                        false          :
          :   energy convergence         0.5000000E-05 Eh   :
          :   grad. convergence          0.1000000E-02 Eh/α :
          :   maximium RF displ.         1.0000000          :
          :   Hlow (freq-cutoff)         0.1000000E-01      :
          :   Hmax (freq-cutoff)         5.0000000          :
          :   S6 in model hess.         20.0000000          :
          ...................................................

generating ANC from model Hessian ...
Using Lindh-Hessian (1995)
 Shifting diagonal of input Hessian by   9.797940101432298E-003
 Lowest  eigenvalues of input Hessian
    0.000000    0.000000    0.000000    0.000000    0.000000    0.000000
    0.010000    0.010011    0.010896    0.011242    0.011737    0.012227
    0.012598    0.013880    0.014301    0.015998    0.016604    0.017629
 Highest eigenvalues
    1.967488    2.138999    2.147955    2.187643    2.331531    2.346904
 

........................................................................
.............................. CYCLE    1 ..............................
........................................................................
   1    -83.6470084 -0.836470E+02  0.197E-06    0.12       0.0  T
   2    -83.6470084  0.235900E-10  0.168E-05    0.12     918.9  T
   3    -83.6470084 -0.239595E-10  0.544E-07    0.12   28364.6  T
     SCC iter.                  ...        0 min,  0.016 sec
     gradient                   ...        0 min,  0.056 sec
 * total energy  :   -82.8992792 Eh     change       -0.7389644E-11 Eh
   gradient norm :     0.1388205 Eh/α   predicted     0.0000000E+00 (-100.00%)
   displ. norm   :     0.3430418 α      lambda       -0.2069937E-01
   maximum displ.:     0.1209029 α      in ANC's #22, #26, #25, ...

........................................................................
.............................. CYCLE    2 ..............................
........................................................................
   1    -83.6745052 -0.836745E+02  0.111E-01    0.29       0.0  T
   2    -83.6688562  0.564899E-02  0.268E-01    0.25       1.0  T
   3    -83.6738140 -0.495779E-02  0.128E-01    0.30       1.0  T
   4    -83.6749526 -0.113858E-02  0.446E-02    0.29       1.0  T
   5    -83.6750717 -0.119052E-03  0.456E-03    0.28       3.4  T
   6    -83.6750704  0.123744E-05  0.471E-03    0.28       3.3  T
   7    -83.6750723 -0.190832E-05  0.635E-04    0.28      24.3  T
   8    -83.6750724 -0.281106E-07  0.147E-04    0.28     104.9  T
   9    -83.6750724 -0.940375E-09  0.260E-05    0.28     592.7  T
     SCC iter.                  ...        0 min,  0.045 sec
     gradient                   ...        0 min,  0.055 sec
 * total energy  :   -82.9154397 Eh     change       -0.1616057E-01 Eh
   gradient norm :     0.0840968 Eh/α   predicted    -0.1159089E-01 ( -28.28%)
   displ. norm   :     0.4642071 α      lambda       -0.1668265E-01
   maximum displ.:     0.1672827 α      in ANC's #22, #19, #25, ...

........................................................................
.............................. CYCLE    3 ..............................
........................................................................
   1    -83.7015477 -0.837015E+02  0.140E-01    0.50       0.0  T
   2    -83.6998086  0.173910E-02  0.207E-01    0.60       1.0  T
   3    -83.7030017 -0.319311E-02  0.370E-02    0.53       1.0  T
   4    -83.7029725  0.292066E-04  0.325E-02    0.54       1.0  T
   5    -83.7030080 -0.355245E-04  0.849E-03    0.53       1.8  T
   6    -83.7030136 -0.563557E-05  0.157E-03    0.53       9.8  T
   7    -83.7030137 -0.388323E-07  0.752E-04    0.53      20.5  T
   8    -83.7030137 -0.398065E-07  0.233E-04    0.53      66.3  T
   9    -83.7030137 -0.343071E-08  0.473E-05    0.53     326.0  T
  10    -83.7030137 -0.785860E-10  0.982E-06    0.53    1571.6  T
     SCC iter.                  ...        0 min,  0.055 sec
     gradient                   ...        0 min,  0.065 sec
 * total energy  :   -82.9251740 Eh     change       -0.9734229E-02 Eh
   gradient norm :     0.0264491 Eh/α   predicted    -0.1013879E-01 (   4.16%)
   displ. norm   :     0.3389054 α      lambda       -0.3018815E-02
   maximum displ.:     0.1521876 α      in ANC's #19, #17, #6, ...

........................................................................
.............................. CYCLE    4 ..............................
........................................................................
   1    -83.7021382 -0.837021E+02  0.829E-02    0.59       0.0  T
   2    -83.7013468  0.791441E-03  0.131E-01    0.65       1.0  T
   3    -83.7027357 -0.138896E-02  0.160E-02    0.61       1.0  T
   4    -83.7027362 -0.468124E-06  0.112E-02    0.61       1.4  T
   5    -83.7027404 -0.418139E-05  0.185E-03    0.61       8.3  T
   6    -83.7027407 -0.309796E-06  0.232E-04    0.61      66.6  T
   7    -83.7027407 -0.969550E-09  0.100E-04    0.61     153.7  T
   8    -83.7027407 -0.372097E-09  0.281E-05    0.61     549.8  T
     SCC iter.                  ...        0 min,  0.049 sec
     gradient                   ...        0 min,  0.064 sec
 * total energy  :   -82.9275705 Eh     change       -0.2396518E-02 Eh
   gradient norm :     0.0197202 Eh/α   predicted    -0.1684859E-02 ( -29.70%)
   displ. norm   :     0.5354650 α      lambda       -0.3279909E-02
   maximum displ.:     0.2408404 α      in ANC's #19, #6, #13, ...

........................................................................
.............................. CYCLE    5 ..............................
........................................................................
   1    -83.6983325 -0.836983E+02  0.110E-01    0.67       0.0  T
   2    -83.6975775  0.754923E-03  0.143E-01    0.74       1.0  T
   3    -83.6992694 -0.169190E-02  0.132E-02    0.70       1.2  T
   4    -83.6992693  0.144367E-06  0.897E-03    0.70       1.7  T
   5    -83.6992710 -0.171043E-05  0.224E-03    0.69       6.9  T
   6    -83.6992714 -0.417083E-06  0.277E-04    0.70      55.8  T
   7    -83.6992714 -0.113683E-08  0.103E-04    0.70     149.9  T
   8    -83.6992714 -0.502268E-09  0.375E-05    0.70     411.5  T
     SCC iter.                  ...        0 min,  0.048 sec
     gradient                   ...        0 min,  0.064 sec
 * total energy  :   -82.9299249 Eh     change       -0.2354446E-02 Eh
   gradient norm :     0.0246709 Eh/α   predicted    -0.2110122E-02 ( -10.38%)
   displ. norm   :     0.4586585 α      lambda       -0.1933807E-02
   maximum displ.:     0.1822760 α      in ANC's #19, #8, #6, ...

........................................................................
.............................. CYCLE    6 ..............................
........................................................................
   1    -83.7003769 -0.837004E+02  0.749E-02    0.73       0.0  T
   2    -83.7001052  0.271712E-03  0.864E-02    0.77       1.0  T
   3    -83.7007552 -0.650057E-03  0.103E-02    0.75       1.5  T
   4    -83.7007605 -0.521902E-05  0.369E-03    0.75       4.2  T
   5    -83.7007604  0.633132E-07  0.143E-03    0.75      10.8  T
   6    -83.7007605 -0.866457E-07  0.201E-04    0.75      76.7  T
   7    -83.7007605 -0.117556E-08  0.843E-05    0.75     183.0  T
   8    -83.7007605 -0.368601E-09  0.297E-05    0.75     519.2  T
     SCC iter.                  ...        0 min,  0.048 sec
     gradient                   ...        0 min,  0.065 sec
 * total energy  :   -82.9314222 Eh     change       -0.1497264E-02 Eh
   gradient norm :     0.0234835 Eh/α   predicted    -0.1170309E-02 ( -21.84%)
   displ. norm   :     0.4901060 α      lambda       -0.1976558E-02
   maximum displ.:     0.2195131 α      in ANC's #8, #6, #13, ...

........................................................................
.............................. CYCLE    7 ..............................
........................................................................
   1    -83.7079079 -0.837079E+02  0.643E-02    0.77       0.0  T
   2    -83.7077527  0.155213E-03  0.657E-02    0.80       1.0  T
   3    -83.7081421 -0.389469E-03  0.156E-02    0.78       1.0  T
   4    -83.7081523 -0.102063E-04  0.646E-03    0.78       2.4  T
   5    -83.7081528 -0.482904E-06  0.162E-03    0.78       9.5  T
   6    -83.7081529 -0.975154E-07  0.198E-04    0.78      77.7  T
   7    -83.7081529 -0.124260E-08  0.712E-05    0.78     216.7  T
     SCC iter.                  ...        0 min,  0.042 sec
     gradient                   ...        0 min,  0.061 sec
 * total energy  :   -82.9329526 Eh     change       -0.1530405E-02 Eh
   gradient norm :     0.0150413 Eh/α   predicted    -0.1225658E-02 ( -19.91%)
   displ. norm   :     0.5334331 α      lambda       -0.1597308E-02
   maximum displ.:     0.2643440 α      in ANC's #8, #3, #6, ...

........................................................................
.............................. CYCLE    8 ..............................
........................................................................
   1    -83.7132597 -0.837133E+02  0.471E-02    0.83       0.0  T
   2    -83.7131907  0.690182E-04  0.465E-02    0.84       1.0  T
   3    -83.7133905 -0.199780E-03  0.118E-02    0.83       1.3  T
   4    -83.7133960 -0.550949E-05  0.504E-03    0.83       3.1  T
   5    -83.7133964 -0.383397E-06  0.142E-03    0.83      10.9  T
   6    -83.7133964 -0.665004E-07  0.175E-04    0.83      88.2  T
   7    -83.7133964 -0.867487E-09  0.560E-05    0.83     275.7  T
     SCC iter.                  ...        0 min,  0.035 sec
     gradient                   ...        0 min,  0.055 sec
 * total energy  :   -82.9342099 Eh     change       -0.1257309E-02 Eh
   gradient norm :     0.0133331 Eh/α   predicted    -0.1025899E-02 ( -18.41%)
   displ. norm   :     0.5468468 α      lambda       -0.1317719E-02
   maximum displ.:     0.2774122 α      in ANC's #8, #3, #6, ...

........................................................................
.............................. CYCLE    9 ..............................
........................................................................
   1    -83.7173185 -0.837173E+02  0.345E-02    0.88       0.0  T
   2    -83.7173009  0.175745E-04  0.296E-02    0.89       1.0  T
   3    -83.7173810 -0.800932E-04  0.113E-02    0.88       1.4  T
   4    -83.7173860 -0.497193E-05  0.455E-03    0.88       3.4  T
   5    -83.7173863 -0.328734E-06  0.111E-03    0.88      13.9  T
   6    -83.7173863 -0.319767E-07  0.135E-04    0.88     114.0  T
   7    -83.7173863 -0.524253E-09  0.462E-05    0.88     333.7  T
     SCC iter.                  ...        0 min,  0.034 sec
     gradient                   ...        0 min,  0.055 sec
 * total energy  :   -82.9352541 Eh     change       -0.1044148E-02 Eh
   gradient norm :     0.0131616 Eh/α   predicted    -0.8558830E-03 ( -18.03%)
   displ. norm   :     0.5854281 α      lambda       -0.1178268E-02
   maximum displ.:     0.3245550 α      in ANC's #3, #8, #13, ...

........................................................................
.............................. CYCLE   10 ..............................
........................................................................
   1    -83.7190278 -0.837190E+02  0.317E-02    0.94       0.0  T
   2    -83.7190487 -0.209405E-04  0.184E-02    0.94       1.0  T
   3    -83.7190692 -0.205082E-04  0.126E-02    0.94       1.2  T
   4    -83.7190771 -0.792159E-05  0.452E-03    0.94       3.4  T
   5    -83.7190772 -0.451682E-07  0.102E-03    0.94      15.2  T
   6    -83.7190772 -0.205856E-07  0.185E-04    0.94      83.4  T
   7    -83.7190772 -0.793676E-09  0.484E-05    0.94     318.6  T
     SCC iter.                  ...        0 min,  0.036 sec
     gradient                   ...        0 min,  0.057 sec
 * total energy  :   -82.9361159 Eh     change       -0.8617960E-03 Eh
   gradient norm :     0.0155603 Eh/α   predicted    -0.7910361E-03 (  -8.21%)
   displ. norm   :     0.5722944 α      lambda       -0.1127478E-02
   maximum displ.:     0.3240104 α      in ANC's #3, #8, #21, ...

........................................................................
.............................. CYCLE   11 ..............................
........................................................................
   1    -83.7186933 -0.837187E+02  0.342E-02    0.99       0.0  T
   2    -83.7187268 -0.335356E-04  0.231E-02    0.99       1.0  T
   3    -83.7187581 -0.312499E-04  0.127E-02    0.98       1.2  T
   4    -83.7187648 -0.671468E-05  0.561E-03    0.99       2.7  T
   5    -83.7187649 -0.938388E-07  0.129E-03    0.98      12.0  T
   6    -83.7187649 -0.221220E-07  0.271E-04    0.98      57.0  T
   7    -83.7187649 -0.260358E-08  0.799E-05    0.98     193.2  T
   8    -83.7187649 -0.109125E-09  0.266E-05    0.98     581.1  T
     SCC iter.                  ...        0 min,  0.041 sec
     gradient                   ...        0 min,  0.058 sec
 * total energy  :   -82.9367569 Eh     change       -0.6410803E-03 Eh
   gradient norm :     0.0176102 Eh/α   predicted    -0.7483684E-03 (  16.74%)
   displ. norm   :     0.4040304 α      lambda       -0.9253534E-03
   maximum displ.:     0.3148393 α      in ANC's #3, #8, #13, ...

........................................................................
.............................. CYCLE   12 ..............................
........................................................................
   1    -83.7274069 -0.837274E+02  0.287E-02    1.02       0.0  T
   2    -83.7274356 -0.286847E-04  0.147E-02    1.01       1.1  T
   3    -83.7274371 -0.146192E-05  0.845E-03    1.01       1.8  T
   4    -83.7274352  0.184058E-05  0.526E-03    1.01       2.9  T
   5    -83.7274374 -0.213272E-05  0.109E-03    1.01      14.1  T
   6    -83.7274374 -0.607969E-07  0.112E-04    1.01     138.3  T
   7    -83.7274374 -0.568420E-09  0.340E-05    1.01     453.8  T
     SCC iter.                  ...        0 min,  0.036 sec
     gradient                   ...        0 min,  0.057 sec
 * total energy  :   -82.9372308 Eh     change       -0.4738356E-03 Eh
   gradient norm :     0.0178075 Eh/α   predicted    -0.5382092E-03 (  13.59%)
   displ. norm   :     0.5198718 α      lambda       -0.1100804E-02
   maximum displ.:     0.3670016 α      in ANC's #3, #8, #19, ...

........................................................................
.............................. CYCLE   13 ..............................
........................................................................
   1    -83.7140002 -0.837140E+02  0.451E-02    1.06       0.0  T
   2    -83.7140547 -0.544935E-04  0.208E-02    1.06       1.0  T
   3    -83.7140681 -0.134418E-04  0.138E-02    1.05       1.1  T
   4    -83.7140763 -0.813072E-05  0.629E-03    1.06       2.5  T
   5    -83.7140768 -0.536174E-06  0.983E-04    1.06      15.7  T
   6    -83.7140768 -0.275420E-07  0.231E-04    1.06      66.7  T
   7    -83.7140768 -0.154368E-08  0.764E-05    1.06     201.9  T
   8    -83.7140768 -0.963070E-10  0.244E-05    1.06     632.4  T
     SCC iter.                  ...        0 min,  0.041 sec
     gradient                   ...        0 min,  0.057 sec
 * total energy  :   -82.9375613 Eh     change       -0.3305586E-03 Eh
   gradient norm :     0.0265384 Eh/α   predicted    -0.6991561E-03 ( 111.51%)
   displ. norm   :     0.2070000 α      lambda       -0.1048752E-02
   maximum displ.:     0.0942393 α      in ANC's #5, #6, #7, ...

........................................................................
.............................. CYCLE   14 ..............................
........................................................................
   1    -83.7232910 -0.837233E+02  0.282E-02    1.06       0.0  T
   2    -83.7232842  0.680579E-05  0.327E-02    1.07       1.0  T
   3    -83.7233561 -0.719046E-04  0.829E-03    1.06       1.9  T
   4    -83.7233558  0.322803E-06  0.492E-03    1.06       3.1  T
   5    -83.7233564 -0.569629E-06  0.399E-04    1.06      38.7  T
   6    -83.7233564 -0.520315E-08  0.998E-05    1.06     154.6  T
   7    -83.7233564 -0.262091E-09  0.339E-05    1.06     455.1  T
     SCC iter.                  ...        0 min,  0.036 sec
     gradient                   ...        0 min,  0.058 sec
 * total energy  :   -82.9381417 Eh     change       -0.5803999E-03 Eh
   gradient norm :     0.0196494 Eh/α   predicted    -0.5468497E-03 (  -5.78%)
   displ. norm   :     0.3372738 α      lambda       -0.9454139E-03
   maximum displ.:     0.2339157 α      in ANC's #3, #6, #8, ...

........................................................................
.............................. CYCLE   15 ..............................
........................................................................
   1    -83.7257872 -0.837258E+02  0.332E-02    1.07       0.0  T
   2    -83.7258114 -0.241180E-04  0.219E-02    1.07       1.0  T
   3    -83.7258427 -0.313539E-04  0.103E-02    1.07       1.5  T
   4    -83.7258470 -0.432104E-05  0.434E-03    1.07       3.6  T
   5    -83.7258471 -0.202402E-07  0.824E-04    1.07      18.7  T
   6    -83.7258471 -0.121465E-07  0.238E-04    1.07      64.9  T
   7    -83.7258471 -0.122394E-08  0.680E-05    1.07     226.9  T
   8    -83.7258471 -0.644178E-10  0.178E-05    1.07     868.5  T
     SCC iter.                  ...        0 min,  0.041 sec
     gradient                   ...        0 min,  0.058 sec
 * total energy  :   -82.9386067 Eh     change       -0.4650168E-03 Eh
   gradient norm :     0.0151230 Eh/α   predicted    -0.5264897E-03 (  13.22%)
   displ. norm   :     0.3971539 α      lambda       -0.6688801E-03
   maximum displ.:     0.3003230 α      in ANC's #3, #6, #12, ...

........................................................................
.............................. CYCLE   16 ..............................
........................................................................
   1    -83.7246894 -0.837247E+02  0.261E-02    1.08       0.0  T
   2    -83.7246900 -0.663592E-06  0.225E-02    1.09       1.0  T
   3    -83.7247288 -0.387401E-04  0.618E-03    1.08       2.5  T
   4    -83.7247297 -0.933016E-06  0.282E-03    1.09       5.5  T
   5    -83.7247298 -0.764354E-07  0.396E-04    1.08      38.9  T
   6    -83.7247298 -0.322709E-08  0.148E-04    1.08     104.0  T
   7    -83.7247298 -0.238430E-09  0.482E-05    1.08     319.9  T
     SCC iter.                  ...        0 min,  0.037 sec
     gradient                   ...        0 min,  0.059 sec
 * total energy  :   -82.9391076 Eh     change       -0.5008239E-03 Eh
   gradient norm :     0.0104396 Eh/α   predicted    -0.3871990E-03 ( -22.69%)
   displ. norm   :     0.4260546 α      lambda       -0.6463978E-03
   maximum displ.:     0.2331862 α      in ANC's #3, #6, #7, ...

........................................................................
.............................. CYCLE   17 ..............................
........................................................................
   1    -83.7237984 -0.837238E+02  0.412E-02    1.10       0.0  T
   2    -83.7238188 -0.203531E-04  0.362E-02    1.11       1.0  T
   3    -83.7239206 -0.101821E-03  0.645E-03    1.10       2.4  T
   4    -83.7239222 -0.164830E-05  0.355E-03    1.10       4.4  T
   5    -83.7239224 -0.117872E-06  0.808E-04    1.10      19.1  T
   6    -83.7239224 -0.132439E-07  0.216E-04    1.10      71.4  T
   7    -83.7239224 -0.781071E-09  0.696E-05    1.10     221.7  T
   8    -83.7239224 -0.653131E-10  0.205E-05    1.10     752.5  T
     SCC iter.                  ...        0 min,  0.041 sec
     gradient                   ...        0 min,  0.059 sec
 * total energy  :   -82.9394911 Eh     change       -0.3835550E-03 Eh
   gradient norm :     0.0128804 Eh/α   predicted    -0.3818736E-03 (  -0.44%)
   displ. norm   :     0.3274261 α      lambda       -0.4350655E-03
   maximum displ.:     0.1636802 α      in ANC's #3, #6, #7, ...

........................................................................
.............................. CYCLE   18 ..............................
........................................................................
   1    -83.7230336 -0.837230E+02  0.239E-02    1.12       0.0  T
   2    -83.7230429 -0.935034E-05  0.172E-02    1.12       1.0  T
   3    -83.7230640 -0.210836E-04  0.682E-03    1.12       2.3  T
   4    -83.7230656 -0.156598E-05  0.309E-03    1.12       5.0  T
   5    -83.7230656 -0.817599E-08  0.369E-04    1.12      41.8  T
   6    -83.7230656 -0.304809E-08  0.124E-04    1.12     124.8  T
   7    -83.7230656 -0.338588E-09  0.400E-05    1.12     385.3  T
     SCC iter.                  ...        0 min,  0.036 sec
     gradient                   ...        0 min,  0.058 sec
 * total energy  :   -82.9396534 Eh     change       -0.1622881E-03 Eh
   gradient norm :     0.0173317 Eh/α   predicted    -0.2408596E-03 (  48.41%)
   displ. norm   :     0.3107559 α      lambda       -0.5358267E-03
   maximum displ.:     0.1670503 α      in ANC's #7, #6, #4, ...

........................................................................
.............................. CYCLE   19 ..............................
........................................................................
   1    -83.7260077 -0.837260E+02  0.239E-02    1.11       0.0  T
   2    -83.7260241 -0.164797E-04  0.192E-02    1.11       1.0  T
   3    -83.7260514 -0.272140E-04  0.603E-03    1.11       2.6  T
   4    -83.7260524 -0.100386E-05  0.311E-03    1.11       5.0  T
   5    -83.7260524 -0.405065E-07  0.944E-04    1.11      16.3  T
   6    -83.7260524 -0.193714E-07  0.168E-04    1.11      91.7  T
   7    -83.7260524 -0.790862E-09  0.453E-05    1.11     340.8  T
     SCC iter.                  ...        0 min,  0.037 sec
     gradient                   ...        0 min,  0.059 sec
 * total energy  :   -82.9399467 Eh     change       -0.2933110E-03 Eh
   gradient norm :     0.0113115 Eh/α   predicted    -0.2937909E-03 (   0.16%)
   displ. norm   :     0.2648905 α      lambda       -0.4041723E-03
   maximum displ.:     0.1244132 α      in ANC's #3, #12, #7, ...

........................................................................
.............................. CYCLE   20 ..............................
........................................................................
   1    -83.7233803 -0.837234E+02  0.257E-02    1.11       0.0  T
   2    -83.7233833 -0.294035E-05  0.232E-02    1.12       1.0  T
   3    -83.7234273 -0.440678E-04  0.601E-03    1.12       2.6  T
   4    -83.7234279 -0.562783E-06  0.299E-03    1.12       5.2  T
   5    -83.7234279 -0.106840E-07  0.505E-04    1.12      30.6  T
   6    -83.7234279 -0.530783E-08  0.127E-04    1.12     121.9  T
   7    -83.7234279 -0.436955E-09  0.390E-05    1.12     396.0  T
     SCC iter.                  ...        0 min,  0.036 sec
     gradient                   ...        0 min,  0.057 sec
 * total energy  :   -82.9401339 Eh     change       -0.1871476E-03 Eh
   gradient norm :     0.0122845 Eh/α   predicted    -0.2162677E-03 (  15.56%)
   displ. norm   :     0.2665715 α      lambda       -0.4350680E-03
   maximum displ.:     0.1342524 α      in ANC's #7, #4, #6, ...
 * RMSD in coord.:     0.8471469 α      energy gain  -0.4085470E-01 Eh

generating ANC from model Hessian ...
Using Lindh-Hessian (1995)
 Shifting diagonal of input Hessian by   9.798213775683819E-003
 Lowest  eigenvalues of input Hessian
    0.000000    0.000000    0.000000    0.000000    0.000000    0.000000
    0.010000    0.010051    0.010936    0.011126    0.011679    0.012253
    0.012740    0.013635    0.014297    0.015563    0.016470    0.016821
 Highest eigenvalues
    2.059003    2.198904    2.205655    2.293832    2.400561    2.414833
 

........................................................................
.............................. CYCLE   21 ..............................
........................................................................
   1    -83.7274867 -0.837275E+02  0.324E-02    1.11       0.0  T
   2    -83.7274814  0.528696E-05  0.339E-02    1.12       1.0  T
   3    -83.7275718 -0.903239E-04  0.512E-03    1.12       3.0  T
   4    -83.7275717  0.459203E-07  0.319E-03    1.12       4.8  T
   5    -83.7275719 -0.160194E-06  0.441E-04    1.12      35.0  T
   6    -83.7275719 -0.352152E-08  0.112E-04    1.12     138.0  T
   7    -83.7275719 -0.214655E-09  0.335E-05    1.12     460.0  T
     SCC iter.                  ...        0 min,  0.035 sec
     gradient                   ...        0 min,  0.056 sec
 * total energy  :   -82.9403326 Eh     change       -0.1986792E-03 Eh
   gradient norm :     0.0141727 Eh/α   predicted     0.0000000E+00 (-100.00%)
   displ. norm   :     0.0734931 α      lambda       -0.2980227E-03
   maximum displ.:     0.0337892 α      in ANC's #3, #23, #5, ...

........................................................................
.............................. CYCLE   22 ..............................
........................................................................
   1    -83.7269654 -0.837270E+02  0.984E-03    1.12       0.0  T
   2    -83.7269684 -0.298708E-05  0.420E-03    1.12       3.7  T
   3    -83.7269689 -0.449920E-06  0.305E-03    1.12       5.1  T
   4    -83.7269690 -0.898170E-07  0.127E-03    1.12      12.2  T
   5    -83.7269690 -0.729945E-07  0.367E-04    1.12      42.0  T
   6    -83.7269690 -0.595716E-08  0.435E-05    1.12     354.4  T
   7    -83.7269690 -0.440963E-10  0.155E-05    1.12     994.7  T
     SCC iter.                  ...        0 min,  0.035 sec
     gradient                   ...        0 min,  0.056 sec
 * total energy  :   -82.9405549 Eh     change       -0.2223539E-03 Eh
   gradient norm :     0.0061976 Eh/α   predicted    -0.1498169E-03 ( -32.62%)
   displ. norm   :     0.1536211 α      lambda       -0.2683193E-03
   maximum displ.:     0.0794844 α      in ANC's #3, #5, #23, ...

........................................................................
.............................. CYCLE   23 ..............................
........................................................................
   1    -83.7265857 -0.837266E+02  0.197E-02    1.12       0.0  T
   2    -83.7265873 -0.165929E-05  0.148E-02    1.12       1.0  T
   3    -83.7266071 -0.198073E-04  0.504E-03    1.12       3.1  T
   4    -83.7266079 -0.769524E-06  0.234E-03    1.12       6.6  T
   5    -83.7266080 -0.653585E-07  0.389E-04    1.12      39.7  T
   6    -83.7266080 -0.508473E-08  0.446E-05    1.12     346.1  T
   7    -83.7266080 -0.352713E-10  0.157E-05    1.12     983.0  T
     SCC iter.                  ...        0 min,  0.034 sec
     gradient                   ...        0 min,  0.055 sec
 * total energy  :   -82.9407436 Eh     change       -0.1886802E-03 Eh
   gradient norm :     0.0078104 Eh/α   predicted    -0.1373292E-03 ( -27.22%)
   displ. norm   :     0.2092174 α      lambda       -0.2218451E-03
   maximum displ.:     0.1103600 α      in ANC's #3, #5, #2, ...

........................................................................
.............................. CYCLE   24 ..............................
........................................................................
   1    -83.7264643 -0.837265E+02  0.322E-02    1.13       0.0  T
   2    -83.7264588  0.544004E-05  0.292E-02    1.13       1.0  T
   3    -83.7265375 -0.786677E-04  0.440E-03    1.13       3.5  T
   4    -83.7265380 -0.439955E-06  0.215E-03    1.13       7.2  T
   5    -83.7265380 -0.726797E-07  0.383E-04    1.13      40.3  T
   6    -83.7265380 -0.457034E-08  0.467E-05    1.13     330.7  T
   7    -83.7265380 -0.527365E-10  0.179E-05    1.13     862.4  T
     SCC iter.                  ...        0 min,  0.035 sec
     gradient                   ...        0 min,  0.055 sec
 * total energy  :   -82.9409239 Eh     change       -0.1803228E-03 Eh
   gradient norm :     0.0119101 Eh/α   predicted    -0.1158949E-03 ( -35.73%)
   displ. norm   :     0.4038192 α      lambda       -0.4067469E-03
   maximum displ.:     0.2063900 α      in ANC's #3, #5, #2, ...

........................................................................
.............................. CYCLE   25 ..............................
........................................................................
   1    -83.7258887 -0.837259E+02  0.728E-02    1.16       0.0  T
   2    -83.7258866  0.213574E-05  0.659E-02    1.16       1.0  T
   3    -83.7262811 -0.394506E-03  0.716E-03    1.16       2.2  T
   4    -83.7262821 -0.100330E-05  0.354E-03    1.16       4.4  T
   5    -83.7262823 -0.176386E-06  0.750E-04    1.16      20.6  T
   6    -83.7262823 -0.174998E-07  0.939E-05    1.16     164.3  T
   7    -83.7262823 -0.284132E-09  0.383E-05    1.16     402.9  T
     SCC iter.                  ...        0 min,  0.027 sec
     gradient                   ...        0 min,  0.049 sec
 * total energy  :   -82.9412513 Eh     change       -0.3273600E-03 Eh
   gradient norm :     0.0154571 Eh/α   predicted    -0.2365391E-03 ( -27.74%)
   displ. norm   :     0.5159324 α      lambda       -0.5533432E-03
   maximum displ.:     0.2536996 α      in ANC's #3, #5, #2, ...

........................................................................
.............................. CYCLE   26 ..............................
........................................................................
   1    -83.7260292 -0.837260E+02  0.109E-01    1.22       0.0  T
   2    -83.7261495 -0.120233E-03  0.921E-02    1.21       1.0  T
   3    -83.7269080 -0.758528E-03  0.961E-03    1.22       1.6  T
   4    -83.7269098 -0.180121E-05  0.468E-03    1.22       3.3  T
   5    -83.7269100 -0.248854E-06  0.106E-03    1.22      14.5  T
   6    -83.7269101 -0.280474E-07  0.149E-04    1.22     103.3  T
   7    -83.7269101 -0.760807E-09  0.598E-05    1.22     258.2  T
     SCC iter.                  ...        0 min,  0.032 sec
     gradient                   ...        0 min,  0.058 sec
 * total energy  :   -82.9417037 Eh     change       -0.4524442E-03 Eh
   gradient norm :     0.0171412 Eh/α   predicted    -0.3503187E-03 ( -22.57%)
   displ. norm   :     0.5341290 α      lambda       -0.8511555E-03
   maximum displ.:     0.2378215 α      in ANC's #3, #2, #5, ...

........................................................................
.............................. CYCLE   27 ..............................
........................................................................
   1    -83.7308708 -0.837309E+02  0.140E-01    1.33       0.0  T
   2    -83.7313313 -0.460553E-03  0.104E-01    1.30       1.0  T
   3    -83.7322636 -0.932326E-03  0.125E-02    1.31       1.2  T
   4    -83.7322668 -0.318325E-05  0.584E-03    1.31       2.6  T
   5    -83.7322671 -0.268795E-06  0.130E-03    1.31      11.9  T
   6    -83.7322671 -0.246944E-07  0.226E-04    1.31      68.2  T
   7    -83.7322671 -0.142533E-08  0.804E-05    1.31     192.0  T
   8    -83.7322671 -0.584492E-10  0.199E-05    1.31     776.3  T
     SCC iter.                  ...        0 min,  0.041 sec
     gradient                   ...        0 min,  0.056 sec
 * total energy  :   -82.9424513 Eh     change       -0.7475474E-03 Eh
   gradient norm :     0.0175029 Eh/α   predicted    -0.5469924E-03 ( -26.83%)
   displ. norm   :     0.6011722 α      lambda       -0.1611464E-02
   maximum displ.:     0.2644060 α      in ANC's #2, #11, #5, ...

........................................................................
.............................. CYCLE   28 ..............................
........................................................................
   1    -83.7449763 -0.837450E+02  0.195E-01    1.57       0.0  T
   2    -83.7463712 -0.139491E-02  0.112E-01    1.48       1.0  T
   3    -83.7474078 -0.103654E-02  0.202E-02    1.51       1.0  T
   4    -83.7474155 -0.771252E-05  0.911E-03    1.51       1.7  T
   5    -83.7474159 -0.447501E-06  0.182E-03    1.51       8.5  T
   6    -83.7474160 -0.404322E-07  0.378E-04    1.51      40.9  T
   7    -83.7474160 -0.266132E-08  0.122E-04    1.51     126.7  T
   8    -83.7474160 -0.161208E-09  0.320E-05    1.51     482.9  T
     SCC iter.                  ...        0 min,  0.041 sec
     gradient                   ...        0 min,  0.058 sec
 * total energy  :   -82.9438430 Eh     change       -0.1391755E-02 Eh
   gradient norm :     0.0290002 Eh/α   predicted    -0.1096947E-02 ( -21.18%)
   displ. norm   :     0.7226873 α      lambda       -0.2383154E-02
   maximum displ.:     0.2937839 α      in ANC's #2, #5, #11, ...

........................................................................
.............................. CYCLE   29 ..............................
........................................................................
   1    -83.7596196 -0.837596E+02  0.200E-01    1.94       0.0  T
   2    -83.7613206 -0.170100E-02  0.841E-02    1.81       1.0  T
   3    -83.7618508 -0.530250E-03  0.223E-02    1.86       1.0  T
   4    -83.7618593 -0.842989E-05  0.103E-02    1.86       1.5  T
   5    -83.7618597 -0.396316E-06  0.215E-03    1.86       7.2  T
   6    -83.7618597 -0.623858E-07  0.481E-04    1.86      32.1  T
   7    -83.7618597 -0.363609E-08  0.158E-04    1.86      97.5  T
   8    -83.7618597 -0.320313E-09  0.353E-05    1.86     437.5  T
     SCC iter.                  ...        0 min,  0.042 sec
     gradient                   ...        0 min,  0.058 sec
 * total energy  :   -82.9460307 Eh     change       -0.2187707E-02 Eh
   gradient norm :     0.0503363 Eh/α   predicted    -0.1813909E-02 ( -17.09%)
   displ. norm   :     0.7167239 α      lambda       -0.7216137E-02
   maximum displ.:     0.2142038 α      in ANC's #21, #86, #11, ...

........................................................................
.............................. CYCLE   30 ..............................
........................................................................
   1    -83.8227414 -0.838227E+02  0.321E-01    2.85       0.0  T
   2    -83.8267803 -0.403883E-02  0.110E-01    2.59       1.0  T
   3    -83.8272077 -0.427457E-03  0.485E-02    2.66       1.0  T
   4    -83.8272239 -0.161782E-04  0.210E-02    2.65       1.0  T
   5    -83.8272268 -0.290804E-05  0.478E-03    2.65       3.2  T
   6    -83.8272272 -0.362522E-06  0.125E-03    2.65      12.3  T
   7    -83.8272272 -0.301364E-07  0.331E-04    2.65      46.6  T
   8    -83.8272272 -0.154461E-08  0.106E-04    2.65     145.8  T
   9    -83.8272272 -0.168683E-09  0.275E-05    2.65     560.2  T
     SCC iter.                  ...        0 min,  0.046 sec
     gradient                   ...        0 min,  0.059 sec
 * total energy  :   -82.9423729 Eh     change        0.3657806E-02 Eh
   gradient norm :     0.1194829 Eh/α   predicted    -0.5461504E-02 (-249.31%)
   displ. norm   :     0.3034371 α      lambda       -0.1414832E-01
   maximum displ.:     0.1378089 α      in ANC's #3, #5, #9, ...

........................................................................
.............................. CYCLE   31 ..............................
........................................................................
   1    -83.7875004 -0.837875E+02  0.139E-01    2.28       0.0  T
   2    -83.7881430 -0.642576E-03  0.614E-02    2.37       1.0  T
   3    -83.7882487 -0.105762E-03  0.284E-02    2.34       1.0  T
   4    -83.7882506 -0.186071E-05  0.106E-02    2.35       1.5  T
   5    -83.7882518 -0.118948E-05  0.190E-03    2.35       8.1  T
   6    -83.7882518 -0.807808E-07  0.540E-04    2.35      28.6  T
   7    -83.7882518 -0.444552E-08  0.134E-04    2.35     115.0  T
   8    -83.7882518 -0.256449E-09  0.421E-05    2.35     366.3  T
     SCC iter.                  ...        0 min,  0.040 sec
     gradient                   ...        0 min,  0.056 sec
 * total energy  :   -82.9505668 Eh     change       -0.8193890E-02 Eh
   gradient norm :     0.0628561 Eh/α   predicted    -0.7725538E-02 (  -5.72%)
   displ. norm   :     0.2373105 α      lambda       -0.4055935E-02
   maximum displ.:     0.0962740 α      in ANC's #3, #5, #19, ...

........................................................................
.............................. CYCLE   32 ..............................
........................................................................
   1    -83.7813750 -0.837814E+02  0.409E-02    2.36       0.0  T
   2    -83.7814521 -0.770813E-04  0.164E-02    2.34       1.0  T
   3    -83.7814600 -0.788156E-05  0.845E-03    2.35       1.8  T
   4    -83.7814603 -0.326966E-06  0.384E-03    2.35       4.0  T
   5    -83.7814604 -0.607127E-07  0.780E-04    2.35      19.8  T
   6    -83.7814604 -0.196052E-07  0.186E-04    2.35      83.0  T
   7    -83.7814604 -0.102105E-08  0.836E-05    2.35     184.5  T
     SCC iter.                  ...        0 min,  0.035 sec
     gradient                   ...        0 min,  0.057 sec
 * total energy  :   -82.9538421 Eh     change       -0.3275341E-02 Eh
   gradient norm :     0.0457754 Eh/α   predicted    -0.2142170E-02 ( -34.60%)
   displ. norm   :     0.4768371 α      lambda       -0.7973786E-02
   maximum displ.:     0.1709781 α      in ANC's #18, #5, #19, ...

........................................................................
.............................. CYCLE   33 ..............................
........................................................................
   1    -83.7751070 -0.837751E+02  0.736E-02    2.48       0.0  T
   2    -83.7753121 -0.205085E-03  0.277E-02    2.43       1.0  T
   3    -83.7753362 -0.240785E-04  0.141E-02    2.44       1.1  T
   4    -83.7753374 -0.121538E-05  0.527E-03    2.44       2.9  T
   5    -83.7753376 -0.167463E-06  0.141E-03    2.44      10.9  T
   6    -83.7753376 -0.515062E-07  0.364E-04    2.44      42.3  T
   7    -83.7753376 -0.403855E-08  0.148E-04    2.44     104.5  T
   8    -83.7753376 -0.285326E-09  0.568E-05    2.44     271.5  T
     SCC iter.                  ...        0 min,  0.041 sec
     gradient                   ...        0 min,  0.059 sec
 * total energy  :   -82.9593117 Eh     change       -0.5469512E-02 Eh
   gradient norm :     0.0302276 Eh/α   predicted    -0.4893377E-02 ( -10.53%)
   displ. norm   :     0.4878338 α      lambda       -0.4787921E-02
   maximum displ.:     0.1707499 α      in ANC's #18, #23, #19, ...

........................................................................
.............................. CYCLE   34 ..............................
........................................................................
   1    -83.7799331 -0.837799E+02  0.625E-02    2.72       0.0  T
   2    -83.7801037 -0.170606E-03  0.251E-02    2.65       1.0  T
   3    -83.7801249 -0.212163E-04  0.106E-02    2.67       1.5  T
   4    -83.7801256 -0.765861E-06  0.534E-03    2.66       2.9  T
   5    -83.7801258 -0.120914E-06  0.885E-04    2.66      17.4  T
   6    -83.7801258 -0.228968E-07  0.246E-04    2.66      62.8  T
   7    -83.7801258 -0.144898E-08  0.959E-05    2.66     161.0  T
   8    -83.7801258 -0.131095E-09  0.375E-05    2.66     411.1  T
     SCC iter.                  ...        0 min,  0.049 sec
     gradient                   ...        0 min,  0.067 sec
 * total energy  :   -82.9623078 Eh     change       -0.2996124E-02 Eh
   gradient norm :     0.0281187 Eh/α   predicted    -0.2963666E-02 (  -1.08%)
   displ. norm   :     0.5115107 α      lambda       -0.3291880E-02
   maximum displ.:     0.2344426 α      in ANC's #18, #19, #11, ...

........................................................................
.............................. CYCLE   35 ..............................
........................................................................
   1    -83.7958340 -0.837958E+02  0.485E-02    2.72       0.0  T
   2    -83.7959222 -0.882624E-04  0.225E-02    2.67       1.0  T
   3    -83.7959304 -0.822767E-05  0.126E-02    2.68       1.2  T
   4    -83.7959308 -0.338323E-06  0.407E-03    2.68       3.8  T
   5    -83.7959310 -0.167986E-06  0.737E-04    2.68      20.9  T
   6    -83.7959310 -0.167759E-07  0.195E-04    2.68      79.2  T
   7    -83.7959310 -0.679321E-09  0.499E-05    2.68     309.3  T
     SCC iter.                  ...        0 min,  0.042 sec
     gradient                   ...        0 min,  0.065 sec
 * total energy  :   -82.9628852 Eh     change       -0.5773810E-03 Eh
   gradient norm :     0.0517636 Eh/α   predicted    -0.2076591E-02 ( 259.66%)
   displ. norm   :     0.5701139 α      lambda       -0.4423935E-02
   maximum displ.:     0.2782551 α      in ANC's #5, #2, #3, ...

........................................................................
.............................. CYCLE   36 ..............................
........................................................................
   1    -83.7903260 -0.837903E+02  0.751E-02    2.71       0.0  T
   2    -83.7906250 -0.299001E-03  0.330E-02    2.78       1.0  T
   3    -83.7906578 -0.328190E-04  0.148E-02    2.77       1.0  T
   4    -83.7906582 -0.391909E-06  0.709E-03    2.77       2.2  T
   5    -83.7906585 -0.255213E-06  0.154E-03    2.77      10.0  T
   6    -83.7906585 -0.487337E-07  0.276E-04    2.77      55.9  T
   7    -83.7906585 -0.154778E-08  0.110E-04    2.77     140.2  T
   8    -83.7906585 -0.138513E-09  0.462E-05    2.77     334.1  T
     SCC iter.                  ...        0 min,  0.047 sec
     gradient                   ...        0 min,  0.065 sec
 * total energy  :   -82.9642688 Eh     change       -0.1383594E-02 Eh
   gradient norm :     0.0474000 Eh/α   predicted    -0.2930924E-02 ( 111.83%)
   displ. norm   :     0.3403680 α      lambda       -0.4473711E-02
   maximum displ.:     0.1310230 α      in ANC's #4, #24, #6, ...

........................................................................
.............................. CYCLE   37 ..............................
........................................................................
   1    -83.8027506 -0.838028E+02  0.844E-02    2.78       0.0  T
   2    -83.8029001 -0.149427E-03  0.376E-02    2.74       1.0  T
   3    -83.8029180 -0.179096E-04  0.214E-02    2.75       1.0  T
   4    -83.8029190 -0.101878E-05  0.267E-03    2.75       5.8  T
   5    -83.8029191 -0.120998E-06  0.941E-04    2.75      16.4  T
   6    -83.8029191 -0.173299E-07  0.228E-04    2.75      67.6  T
   7    -83.8029191 -0.129108E-08  0.680E-05    2.75     226.9  T
   8    -83.8029191 -0.109551E-09  0.146E-05    2.75    1059.1  T
     SCC iter.                  ...        0 min,  0.047 sec
     gradient                   ...        0 min,  0.064 sec
 * total energy  :   -82.9642602 Eh     change        0.8551118E-05 Eh
   gradient norm :     0.0495575 Eh/α   predicted    -0.2495997E-02 (*******%)
   displ. norm   :     0.2284885 α      lambda       -0.3691252E-02
   maximum displ.:     0.1147388 α      in ANC's #5, #2, #11, ...

........................................................................
.............................. CYCLE   38 ..............................
........................................................................
   1    -83.7993087 -0.837993E+02  0.436E-02    2.78       0.0  T
   2    -83.7993698 -0.610851E-04  0.224E-02    2.75       1.0  T
   3    -83.7993774 -0.759215E-05  0.126E-02    2.76       1.2  T
   4    -83.7993776 -0.193771E-06  0.245E-03    2.75       6.3  T
   5    -83.7993777 -0.832834E-07  0.699E-04    2.76      22.1  T
   6    -83.7993777 -0.143593E-07  0.214E-04    2.76      72.0  T
   7    -83.7993777 -0.698520E-09  0.428E-05    2.76     360.4  T
   8    -83.7993777 -0.244995E-10  0.881E-06    2.76    1751.1  T
     SCC iter.                  ...        0 min,  0.048 sec
     gradient                   ...        0 min,  0.057 sec
 * total energy  :   -82.9662970 Eh     change       -0.2036808E-02 Eh
   gradient norm :     0.0197444 Eh/α   predicted    -0.1941985E-02 (  -4.66%)
   displ. norm   :     0.2853555 α      lambda       -0.1089162E-02
   maximum displ.:     0.1151664 α      in ANC's #5, #18, #10, ...

........................................................................
.............................. CYCLE   39 ..............................
........................................................................
   1    -83.7954834 -0.837955E+02  0.362E-02    2.69       0.0  T
   2    -83.7955557 -0.722710E-04  0.164E-02    2.73       1.0  T
   3    -83.7955663 -0.106023E-04  0.607E-03    2.72       2.5  T
   4    -83.7955663  0.145701E-08  0.284E-03    2.72       5.4  T
   5    -83.7955664 -0.701302E-07  0.351E-04    2.72      44.0  T
   6    -83.7955664 -0.429003E-08  0.714E-05    2.72     216.2  T
   7    -83.7955664 -0.183078E-09  0.351E-05    2.72     439.3  T
     SCC iter.                  ...        0 min,  0.036 sec
     gradient                   ...        0 min,  0.057 sec
 * total energy  :   -82.9669157 Eh     change       -0.6186962E-03 Eh
   gradient norm :     0.0233096 Eh/α   predicted    -0.5889278E-03 (  -4.81%)
   displ. norm   :     0.4479500 α      lambda       -0.1235503E-02
   maximum displ.:     0.2355032 α      in ANC's #5, #2, #6, ...

........................................................................
.............................. CYCLE   40 ..............................
........................................................................
   1    -83.7950170 -0.837950E+02  0.359E-02    2.81       0.0  T
   2    -83.7950580 -0.409561E-04  0.144E-02    2.77       1.1  T
   3    -83.7950642 -0.615506E-05  0.654E-03    2.78       2.4  T
   4    -83.7950643 -0.186234E-06  0.262E-03    2.78       5.9  T
   5    -83.7950644 -0.487020E-07  0.524E-04    2.78      29.5  T
   6    -83.7950644 -0.699575E-08  0.148E-04    2.78     104.2  T
   7    -83.7950644 -0.615074E-09  0.471E-05    2.78     327.6  T
     SCC iter.                  ...        0 min,  0.036 sec
     gradient                   ...        0 min,  0.057 sec
 * total energy  :   -82.9677382 Eh     change       -0.8224901E-03 Eh
   gradient norm :     0.0161893 Eh/α   predicted    -0.7417123E-03 (  -9.82%)
   displ. norm   :     0.4803185 α      lambda       -0.1225514E-02
   maximum displ.:     0.1925630 α      in ANC's #5, #6, #2, ...

........................................................................
.............................. CYCLE   41 ..............................
........................................................................
   1    -83.7962678 -0.837963E+02  0.220E-02    2.77       0.0  T
   2    -83.7962864 -0.185129E-04  0.102E-02    2.78       1.5  T
   3    -83.7962887 -0.235270E-05  0.454E-03    2.78       3.4  T
   4    -83.7962887 -0.309014E-07  0.163E-03    2.78       9.5  T
   5    -83.7962888 -0.219018E-07  0.385E-04    2.78      40.1  T
   6    -83.7962888 -0.392700E-08  0.112E-04    2.78     137.7  T
   7    -83.7962888 -0.223196E-09  0.288E-05    2.78     535.1  T
     SCC iter.                  ...        0 min,  0.036 sec
     gradient                   ...        0 min,  0.057 sec
 * total energy  :   -82.9685673 Eh     change       -0.8290960E-03 Eh
   gradient norm :     0.0203440 Eh/α   predicted    -0.7541285E-03 (  -9.04%)
   displ. norm   :     0.3821992 α      lambda       -0.1180886E-02
   maximum displ.:     0.1496626 α      in ANC's #4, #2, #5, ...

........................................................................
.............................. CYCLE   42 ..............................
........................................................................
   1    -83.8030087 -0.838030E+02  0.246E-02    2.80       0.0  T
   2    -83.8030368 -0.281270E-04  0.130E-02    2.77       1.2  T
   3    -83.8030412 -0.438093E-05  0.586E-03    2.78       2.6  T
   4    -83.8030412 -0.170644E-08  0.175E-03    2.78       8.8  T
   5    -83.8030412 -0.337113E-07  0.373E-04    2.78      41.3  T
   6    -83.8030412 -0.344870E-08  0.918E-05    2.78     168.1  T
   7    -83.8030412 -0.115435E-09  0.311E-05    2.78     496.2  T
     SCC iter.                  ...        0 min,  0.036 sec
     gradient                   ...        0 min,  0.057 sec
 * total energy  :   -82.9691707 Eh     change       -0.6033818E-03 Eh
   gradient norm :     0.0164694 Eh/α   predicted    -0.6766947E-03 (  12.15%)
   displ. norm   :     0.4463420 α      lambda       -0.8736829E-03
   maximum displ.:     0.1728972 α      in ANC's #5, #2, #6, ...
 * RMSD in coord.:     0.9264610 α      energy gain  -0.2903681E-01 Eh

generating ANC from model Hessian ...
Using Lindh-Hessian (1995)
 Shifting diagonal of input Hessian by   9.813015364618297E-003
 Lowest  eigenvalues of input Hessian
    0.000000    0.000000    0.000000    0.000000    0.000000    0.000000
    0.010000    0.010064    0.010202    0.010985    0.011563    0.012071
    0.012400    0.012508    0.013652    0.013874    0.014200    0.015134
 Highest eigenvalues
    2.151158    2.197904    2.318173    2.399017    2.403936    2.772789
 

........................................................................
.............................. CYCLE   43 ..............................
........................................................................
   1    -83.7996001 -0.837996E+02  0.262E-02    2.76       0.0  T
   2    -83.7996354 -0.353454E-04  0.106E-02    2.79       1.4  T
   3    -83.7996399 -0.446373E-05  0.453E-03    2.78       3.4  T
   4    -83.7996400 -0.948289E-07  0.203E-03    2.78       7.6  T
   5    -83.7996400 -0.159116E-07  0.569E-04    2.78      27.1  T
   6    -83.7996400 -0.443380E-08  0.885E-05    2.78     174.3  T
   7    -83.7996400 -0.168811E-09  0.328E-05    2.78     469.9  T
     SCC iter.                  ...        0 min,  0.036 sec
     gradient                   ...        0 min,  0.057 sec
 * total energy  :   -82.9697200 Eh     change       -0.5492819E-03 Eh
   gradient norm :     0.0191239 Eh/α   predicted     0.0000000E+00 (-100.00%)
   displ. norm   :     0.1249477 α      lambda       -0.6759703E-03
   maximum displ.:     0.0651099 α      in ANC's #3, #10, #16, ...

........................................................................
.............................. CYCLE   44 ..............................
........................................................................
   1    -83.8030119 -0.838030E+02  0.145E-02    2.81       0.0  T
   2    -83.8030198 -0.789329E-05  0.696E-03    2.80       2.2  T
   3    -83.8030208 -0.101432E-05  0.331E-03    2.81       4.7  T
   4    -83.8030209 -0.223288E-07  0.110E-03    2.81      14.0  T
   5    -83.8030209 -0.114562E-07  0.301E-04    2.81      51.2  T
   6    -83.8030209 -0.212847E-08  0.478E-05    2.81     322.5  T
   7    -83.8030209 -0.457590E-10  0.137E-05    2.81    1126.6  T
     SCC iter.                  ...        0 min,  0.036 sec
     gradient                   ...        0 min,  0.057 sec
 * total energy  :   -82.9702165 Eh     change       -0.4965550E-03 Eh
   gradient norm :     0.0078848 Eh/α   predicted    -0.3432735E-03 ( -30.87%)
   displ. norm   :     0.2917420 α      lambda       -0.8548502E-03
   maximum displ.:     0.1628642 α      in ANC's #3, #9, #10, ...

........................................................................
.............................. CYCLE   45 ..............................
........................................................................
   1    -83.8046759 -0.838047E+02  0.204E-02    2.80       0.0  T
   2    -83.8046914 -0.154232E-04  0.859E-03    2.80       1.8  T
   3    -83.8046926 -0.120184E-05  0.384E-03    2.80       4.0  T
   4    -83.8046926 -0.648964E-07  0.156E-03    2.80       9.9  T
   5    -83.8046926 -0.766030E-08  0.349E-04    2.80      44.2  T
   6    -83.8046926 -0.356677E-08  0.920E-05    2.80     167.8  T
   7    -83.8046926 -0.144610E-09  0.263E-05    2.80     585.6  T
     SCC iter.                  ...        0 min,  0.036 sec
     gradient                   ...        0 min,  0.057 sec
 * total energy  :   -82.9706934 Eh     change       -0.4769197E-03 Eh
   gradient norm :     0.0128681 Eh/α   predicted    -0.4639515E-03 (  -2.72%)
   displ. norm   :     0.3163744 α      lambda       -0.6755975E-03
   maximum displ.:     0.1886491 α      in ANC's #3, #10, #16, ...

........................................................................
.............................. CYCLE   46 ..............................
........................................................................
   1    -83.8021232 -0.838021E+02  0.155E-02    2.80       0.0  T
   2    -83.8021278 -0.457935E-05  0.717E-03    2.81       2.2  T
   3    -83.8021281 -0.345014E-06  0.362E-03    2.81       4.3  T
   4    -83.8021282 -0.135113E-06  0.107E-03    2.81      14.4  T
   5    -83.8021282 -0.528060E-08  0.314E-04    2.81      49.2  T
   6    -83.8021283 -0.190001E-08  0.822E-05    2.81     187.8  T
   7    -83.8021283 -0.201084E-09  0.207E-05    2.81     746.3  T
     SCC iter.                  ...        0 min,  0.036 sec
     gradient                   ...        0 min,  0.065 sec
 * total energy  :   -82.9711266 Eh     change       -0.4331849E-03 Eh
   gradient norm :     0.0157598 Eh/α   predicted    -0.3716106E-03 ( -14.21%)
   displ. norm   :     0.2811180 α      lambda       -0.5030709E-03
   maximum displ.:     0.1863893 α      in ANC's #3, #10, #9, ...

........................................................................
.............................. CYCLE   47 ..............................
........................................................................
   1    -83.7997903 -0.837998E+02  0.151E-02    2.79       0.0  T
   2    -83.7997961 -0.573931E-05  0.729E-03    2.81       2.1  T
   3    -83.7997967 -0.607878E-06  0.425E-03    2.80       3.6  T
   4    -83.7997968 -0.109351E-06  0.107E-03    2.81      14.4  T
   5    -83.7997968 -0.123615E-07  0.292E-04    2.80      52.9  T
   6    -83.7997968 -0.165319E-08  0.666E-05    2.80     231.8  T
   7    -83.7997968 -0.120025E-09  0.209E-05    2.80     736.6  T
     SCC iter.                  ...        0 min,  0.036 sec
     gradient                   ...        0 min,  0.059 sec
 * total energy  :   -82.9715030 Eh     change       -0.3764282E-03 Eh
   gradient norm :     0.0138498 Eh/α   predicted    -0.2714149E-03 ( -27.90%)
   displ. norm   :     0.2573826 α      lambda       -0.4731542E-03
   maximum displ.:     0.1847073 α      in ANC's #3, #10, #9, ...

........................................................................
.............................. CYCLE   48 ..............................
........................................................................
   1    -83.8015707 -0.838016E+02  0.166E-02    2.82       0.0  T
   2    -83.8015808 -0.101347E-04  0.728E-03    2.82       2.1  T
   3    -83.8015817 -0.828390E-06  0.369E-03    2.82       4.2  T
   4    -83.8015817 -0.275967E-07  0.155E-03    2.82       9.9  T
   5    -83.8015817 -0.105230E-07  0.227E-04    2.82      67.9  T
   6    -83.8015817 -0.114821E-08  0.628E-05    2.82     245.9  T
   7    -83.8015817 -0.966054E-10  0.156E-05    2.82     991.9  T
     SCC iter.                  ...        0 min,  0.035 sec
     gradient                   ...        0 min,  0.058 sec
 * total energy  :   -82.9718179 Eh     change       -0.3148956E-03 Eh
   gradient norm :     0.0107313 Eh/α   predicted    -0.2522500E-03 ( -19.89%)
   displ. norm   :     0.2517715 α      lambda       -0.3003993E-03
   maximum displ.:     0.1878573 α      in ANC's #3, #10, #9, ...

........................................................................
.............................. CYCLE   49 ..............................
........................................................................
   1    -83.8014387 -0.838014E+02  0.909E-03    2.81       0.0  T
   2    -83.8014425 -0.380505E-05  0.480E-03    2.81       3.2  T
   3    -83.8014427 -0.173023E-06  0.273E-03    2.81       5.7  T
   4    -83.8014427 -0.788802E-08  0.119E-03    2.81      13.0  T
   5    -83.8014427 -0.121221E-07  0.171E-04    2.81      90.4  T
   6    -83.8014427 -0.436543E-09  0.565E-05    2.81     273.1  T
     SCC iter.                  ...        0 min,  0.031 sec
     gradient                   ...        0 min,  0.057 sec
 * total energy  :   -82.9720656 Eh     change       -0.2476298E-03 Eh
   gradient norm :     0.0112215 Eh/α   predicted    -0.1597209E-03 ( -35.50%)
   displ. norm   :     0.3817371 α      lambda       -0.5064729E-03
   maximum displ.:     0.2884522 α      in ANC's #3, #11, #18, ...

........................................................................
.............................. CYCLE   50 ..............................
........................................................................
   1    -83.8045303 -0.838045E+02  0.205E-02    2.85       0.0  T
   2    -83.8045614 -0.310831E-04  0.105E-02    2.82       1.5  T
   3    -83.8045657 -0.428805E-05  0.381E-03    2.83       4.1  T
   4    -83.8045657 -0.211319E-07  0.219E-03    2.83       7.0  T
   5    -83.8045657 -0.146678E-07  0.450E-04    2.83      34.3  T
   6    -83.8045657 -0.380996E-08  0.102E-04    2.83     151.2  T
   7    -83.8045657 -0.158010E-09  0.336E-05    2.83     459.1  T
     SCC iter.                  ...        0 min,  0.036 sec
     gradient                   ...        0 min,  0.057 sec
 * total energy  :   -82.9724174 Eh     change       -0.3518651E-03 Eh
   gradient norm :     0.0083672 Eh/α   predicted    -0.2901587E-03 ( -17.54%)
   displ. norm   :     0.5259987 α      lambda       -0.4314386E-03
   maximum displ.:     0.4086366 α      in ANC's #3, #10, #9, ...

........................................................................
.............................. CYCLE   51 ..............................
........................................................................
   1    -83.7976517 -0.837977E+02  0.209E-02    2.77       0.0  T
   2    -83.7976614 -0.971956E-05  0.998E-03    2.79       1.5  T
   3    -83.7976624 -0.973400E-06  0.552E-03    2.78       2.8  T
   4    -83.7976625 -0.113588E-06  0.155E-03    2.78      10.0  T
   5    -83.7976626 -0.415100E-07  0.339E-04    2.78      45.6  T
   6    -83.7976626 -0.222192E-08  0.862E-05    2.78     179.1  T
   7    -83.7976626 -0.181217E-09  0.297E-05    2.78     519.8  T
     SCC iter.                  ...        0 min,  0.035 sec
     gradient                   ...        0 min,  0.057 sec
 * total energy  :   -82.9726429 Eh     change       -0.2254595E-03 Eh
   gradient norm :     0.0126926 Eh/α   predicted    -0.2754252E-03 (  22.16%)
   displ. norm   :     0.2179590 α      lambda       -0.3250397E-03
   maximum displ.:     0.1726519 α      in ANC's #3, #4, #2, ...

........................................................................
.............................. CYCLE   52 ..............................
........................................................................
   1    -83.8020695 -0.838021E+02  0.120E-02    2.81       0.0  T
   2    -83.8020748 -0.530404E-05  0.620E-03    2.79       2.5  T
   3    -83.8020757 -0.867819E-06  0.325E-03    2.80       4.7  T
   4    -83.8020757 -0.184989E-07  0.855E-04    2.80      18.1  T
   5    -83.8020757 -0.806486E-08  0.157E-04    2.80      98.3  T
   6    -83.8020757 -0.855820E-09  0.383E-05    2.80     403.2  T
     SCC iter.                  ...        0 min,  0.030 sec
     gradient                   ...        0 min,  0.056 sec
 * total energy  :   -82.9728820 Eh     change       -0.2390636E-03 Eh
   gradient norm :     0.0074445 Eh/α   predicted    -0.1702578E-03 ( -28.78%)
   displ. norm   :     0.4399382 α      lambda       -0.3878701E-03
   maximum displ.:     0.3572360 α      in ANC's #3, #4, #6, ...

........................................................................
.............................. CYCLE   53 ..............................
........................................................................
   1    -83.8042937 -0.838043E+02  0.173E-02    2.84       0.0  T
   2    -83.8043092 -0.155113E-04  0.820E-03    2.82       1.9  T
   3    -83.8043115 -0.226875E-05  0.319E-03    2.83       4.8  T
   4    -83.8043115 -0.106715E-07  0.172E-03    2.82       9.0  T
   5    -83.8043115 -0.108200E-07  0.186E-04    2.82      83.1  T
   6    -83.8043115 -0.128324E-08  0.467E-05    2.82     330.3  T
     SCC iter.                  ...        0 min,  0.030 sec
     gradient                   ...        0 min,  0.057 sec
 * total energy  :   -82.9731209 Eh     change       -0.2389575E-03 Eh
   gradient norm :     0.0108892 Eh/α   predicted    -0.2314743E-03 (  -3.13%)
   displ. norm   :     0.4221636 α      lambda       -0.3980130E-03
   maximum displ.:     0.3449900 α      in ANC's #3, #4, #2, ...

........................................................................
.............................. CYCLE   54 ..............................
........................................................................
   1    -83.8057889 -0.838058E+02  0.167E-02    2.79       0.0  T
   2    -83.8058043 -0.154833E-04  0.824E-03    2.81       1.9  T
   3    -83.8058060 -0.165382E-05  0.413E-03    2.80       3.7  T
   4    -83.8058060 -0.264576E-07  0.187E-03    2.80       8.3  T
   5    -83.8058060 -0.142770E-07  0.385E-04    2.80      40.1  T
   6    -83.8058060 -0.455175E-08  0.931E-05    2.80     165.8  T
   7    -83.8058060 -0.124274E-09  0.294E-05    2.80     524.6  T
     SCC iter.                  ...        0 min,  0.035 sec
     gradient                   ...        0 min,  0.057 sec
 * total energy  :   -82.9733437 Eh     change       -0.2227477E-03 Eh
   gradient norm :     0.0113057 Eh/α   predicted    -0.2344875E-03 (   5.27%)
   displ. norm   :     0.3658286 α      lambda       -0.2489109E-03
   maximum displ.:     0.3032874 α      in ANC's #3, #2, #4, ...

........................................................................
.............................. CYCLE   55 ..............................
........................................................................
   1    -83.8039540 -0.838040E+02  0.100E-02    2.79       0.0  T
   2    -83.8039589 -0.488833E-05  0.345E-03    2.80       4.5  T
   3    -83.8039591 -0.262830E-06  0.184E-03    2.80       8.4  T
   4    -83.8039591 -0.166457E-07  0.102E-03    2.80      15.2  T
   5    -83.8039591 -0.310278E-08  0.160E-04    2.80      96.3  T
   6    -83.8039591 -0.709818E-09  0.455E-05    2.80     339.0  T
     SCC iter.                  ...        0 min,  0.030 sec
     gradient                   ...        0 min,  0.057 sec
 * total energy  :   -82.9735313 Eh     change       -0.1876741E-03 Eh
   gradient norm :     0.0083353 Eh/α   predicted    -0.1411148E-03 ( -24.81%)
   displ. norm   :     0.4319454 α      lambda       -0.3047214E-03
   maximum displ.:     0.3376504 α      in ANC's #3, #2, #4, ...

........................................................................
.............................. CYCLE   56 ..............................
........................................................................
   1    -83.8051594 -0.838052E+02  0.108E-02    2.82       0.0  T
   2    -83.8051634 -0.400854E-05  0.451E-03    2.81       3.4  T
   3    -83.8051639 -0.488281E-06  0.216E-03    2.81       7.2  T
   4    -83.8051639 -0.807019E-08  0.870E-04    2.81      17.7  T
   5    -83.8051639 -0.108236E-07  0.147E-04    2.81     105.1  T
   6    -83.8051639 -0.375536E-09  0.435E-05    2.81     354.4  T
     SCC iter.                  ...        0 min,  0.021 sec
     gradient                   ...        0 min,  0.050 sec
 * total energy  :   -82.9737371 Eh     change       -0.2057551E-03 Eh
   gradient norm :     0.0077852 Eh/α   predicted    -0.1807883E-03 ( -12.13%)
   displ. norm   :     0.5401718 α      lambda       -0.2424944E-03
   maximum displ.:     0.4426363 α      in ANC's #3, #2, #4, ...

........................................................................
.............................. CYCLE   57 ..............................
........................................................................
   1    -83.7991766 -0.837992E+02  0.115E-02    2.78       0.0  T
   2    -83.7991784 -0.180802E-05  0.605E-03    2.79       2.6  T
   3    -83.7991786 -0.200156E-06  0.322E-03    2.79       4.8  T
   4    -83.7991786 -0.666482E-07  0.596E-04    2.79      25.9  T
   5    -83.7991786 -0.615925E-08  0.190E-04    2.79      81.4  T
   6    -83.7991786 -0.433275E-09  0.391E-05    2.79     394.6  T
     SCC iter.                  ...        0 min,  0.027 sec
     gradient                   ...        0 min,  0.059 sec
 * total energy  :   -82.9738462 Eh     change       -0.1091207E-03 Eh
   gradient norm :     0.0101116 Eh/α   predicted    -0.1566278E-03 (  43.54%)
   displ. norm   :     0.3198679 α      lambda       -0.4012172E-03
   maximum displ.:     0.1608043 α      in ANC's #3, #11, #2, ...

........................................................................
.............................. CYCLE   58 ..............................
........................................................................
   1    -83.8054073 -0.838054E+02  0.181E-02    2.79       0.0  T
   2    -83.8054121 -0.473946E-05  0.880E-03    2.79       1.8  T
   3    -83.8054124 -0.353695E-06  0.469E-03    2.79       3.3  T
   4    -83.8054125 -0.101160E-06  0.948E-04    2.79      16.3  T
   5    -83.8054125 -0.790747E-08  0.190E-04    2.79      81.1  T
   6    -83.8054125 -0.611848E-09  0.740E-05    2.79     208.6  T
     SCC iter.                  ...        0 min,  0.031 sec
     gradient                   ...        0 min,  0.057 sec
 * total energy  :   -82.9739978 Eh     change       -0.1516048E-03 Eh
   gradient norm :     0.0108019 Eh/α   predicted    -0.2211357E-03 (  45.86%)
   displ. norm   :     0.2976484 α      lambda       -0.2129637E-03
   maximum displ.:     0.2319976 α      in ANC's #3, #2, #4, ...

........................................................................
.............................. CYCLE   59 ..............................
........................................................................
   1    -83.8042972 -0.838043E+02  0.895E-03    2.80       0.0  T
[...]
H31-C9=1.0886        H32-N11=1.0110       H33-C14=1.0880       H34-C14=1.0889       H35-C14=1.0887       H36-C15=1.0888       
H37-C15=1.0883       H38-C15=1.0883       H39-N16=1.0054       H40-C23=1.0873       H41-C23=1.0898       H42-C23=1.0898       
 C  H  Rav=1.0889 sigma=0.0017  Rmin=1.0851  Rmax=1.0924    15
 C  C  Rav=1.4819 sigma=0.0651  Rmin=1.3180  Rmax=1.5333     8
 N  H  Rav=1.0082 sigma=0.0028  Rmin=1.0054  Rmax=1.0110     2
 N  C  Rav=1.3594 sigma=0.0628  Rmin=1.2702  Rmax=1.4607     8
 N  N  Rav=1.3623 sigma=0.0000  Rmin=1.3623  Rmax=1.3623     1
 O  C  Rav=1.2817 sigma=0.0885  Rmin=1.1567  Rmax=1.4319     8
 
 selected bond angles (degree)
 --------------------
H26-C1-O2=110.04               H27-C1-O2=110.08               H27-C1-H26=109.45              H28-C1-O2=106.43               
H28-C1-H26=110.39              H28-C1-H27=110.42              C3-O2-C1=116.24                O4-C3-O2=124.20                
C5-C3-O2=111.64                C5-C3-O4=124.16                C6-C5-C3=119.76                N25-C5-C3=116.27               
N25-C5-C6=123.69               O7-C6-C5=177.00                O10-C8-C9=122.69               N11-C8-C9=118.24               
N11-C8-O10=119.06              H29-C9-C8=112.42               H30-C9-C8=108.84               H30-C9-H29=109.81              
H31-C9-C8=107.91               H31-C9-H29=109.63              H31-C9-H30=108.13              
 
 selected dihedral angles (degree)
 ---------------------------------
C3-O2-C1-H26= 57.54           C3-O2-C1-H27=296.82           C3-O2-C1-H28=177.15           O4-C3-O2-C1=  0.98            
C5-C3-O2-C1=180.81            C6-C5-C3-O2=175.44            C6-C5-C3-O4=355.26            N25-C5-C3-O2=  1.31           
N25-C5-C3-O4=181.14           O7-C6-C5-C3=352.39            O7-C6-C5-N25=166.05           H29-C9-C8-O10=196.46          
H29-C9-C8-N11= 17.28          H30-C9-C8-O10= 74.58          H30-C9-C8-N11=255.41          H31-C9-C8-O10=317.46          
H31-C9-C8-N11=138.29          
           -------------------------------------------------
          |                Final Singlepoint                |
           -------------------------------------------------

          ...................................................
          :                      SETUP                      :
          :.................................................:
          :  # basis functions                 134          :
          :  # atomic orbitals                 134          :
          :  # shells                           84          :
          :  # electrons                       134          :
          :  # halogen bonds                     0          :
          :  max. iterations                   250          :
          :  Hamiltonian                  GFN1-xTB          :
          :  restarted?                      false          :
          :  GBSA solvation                   true          :
          :  PC potential                    false          :
          :  electronic temp.          300.0000000     K    :
          :  accuracy                    1.0000000          :
          :  -> integral cutoff          0.2500000E+02      :
          :  -> integral neglect         0.1000000E-07      :
          :  -> SCF convergence          0.1000000E-05 Eh   :
          :  -> wf. convergence          0.2000000E-04 e    :
          :  Broyden damping             0.4000000          :
          ...................................................

 iter      E             dE          RMSdq      gap      omega  full diag
   1    -83.8059180 -0.838059E+02  0.688E-06    2.78       0.0  T
   2    -83.8059180 -0.440536E-12  0.358E-06    2.78    4309.3  T
   3    -83.8059180 -0.994760E-13  0.197E-06    2.78    7830.0  T

   *** convergence criteria satisfied after 3 iterations ***

         #    Occupation            Energy/Eh            Energy/eV
      -------------------------------------------------------------
         1        2.0000           -0.8724037             -23.7393
       ...           ...                  ...                  ...
        61        2.0000           -0.4673219             -12.7165
        62        2.0000           -0.4664667             -12.6932
        63        2.0000           -0.4630663             -12.6007
        64        2.0000           -0.4564644             -12.4210
        65        2.0000           -0.4531171             -12.3299
        66        2.0000           -0.4495418             -12.2327
        67        2.0000           -0.4315569             -11.7433 (HOMO)
        68                         -0.3293368              -8.9617 (LUMO)
        69                         -0.3130460              -8.5184
        70                         -0.3054372              -8.3114
        71                         -0.2840736              -7.7300
        72                         -0.2571549              -6.9975
       ...                                ...                  ...
       134                          1.2016193              32.6977
      -------------------------------------------------------------
                  HL-Gap            0.1022200 Eh            2.7815 eV
             Fermi-level           -0.3804468 Eh          -10.3525 eV

 SCC (total)                   0 d,  0 h,  0 min,  0.099 sec
 SCC setup                      ...        0 min,  0.002 sec (  1.670%)
 Dispersion                     ...        0 min,  0.000 sec (  0.230%)
 classical contributions        ...        0 min,  0.000 sec (  0.080%)
 integral evaluation            ...        0 min,  0.024 sec ( 24.451%)
 iterations                     ...        0 min,  0.016 sec ( 16.124%)
 molecular gradient             ...        0 min,  0.056 sec ( 56.217%)
 printout                       ...        0 min,  0.001 sec (  1.201%)

         :::::::::::::::::::::::::::::::::::::::::::::::::::::
         ::                     SUMMARY                     ::
         :::::::::::::::::::::::::::::::::::::::::::::::::::::
         :: total energy             -82.974652868155 Eh    ::
         :: total w/o Gsasa/hb       -82.953852012599 Eh    ::
         :: gradient norm              0.000636312939 Eh/a0 ::
         :: HOMO-LUMO gap              2.781548793127 eV    ::
         ::.................................................::
         :: SCC energy               -83.805918007585 Eh    ::
         :: -> electrostatic           0.355167854545 Eh    ::
         :: -> Gsolv                  -0.059194645394 Eh    ::
         ::    -> Gelec               -0.038393789838 Eh    ::
         ::    -> Gsasa               -0.023915993757 Eh    ::
         ::    -> Ghb                 -0.004509140804 Eh    ::
         ::    -> Gshift               0.007624279005 Eh    ::
         :: repulsion energy           0.858991839999 Eh    ::
         :: dispersion energy         -0.027726700569 Eh    ::
         :: halogen bond corr.         0.000000000000 Eh    ::
         :: add. restraining           0.000000000000 Eh    ::
         :: total charge              -0.000000000000 e     ::
         :::::::::::::::::::::::::::::::::::::::::::::::::::::

           -------------------------------------------------
          |                Property Printout                |
           -------------------------------------------------

    * Orbital Energies and Occupations

         #    Occupation            Energy/Eh            Energy/eV
      -------------------------------------------------------------
         1        2.0000           -0.8724037             -23.7393
       ...           ...                  ...                  ...
        55        2.0000           -0.5057995             -13.7635
        56        2.0000           -0.5039053             -13.7120
        57        2.0000           -0.5007896             -13.6272
        58        2.0000           -0.4887508             -13.2996
        59        2.0000           -0.4816393             -13.1061
        60        2.0000           -0.4744950             -12.9117
        61        2.0000           -0.4673219             -12.7165
        62        2.0000           -0.4664667             -12.6932
        63        2.0000           -0.4630663             -12.6007
        64        2.0000           -0.4564644             -12.4210
        65        2.0000           -0.4531171             -12.3299
        66        2.0000           -0.4495418             -12.2327
        67        2.0000           -0.4315569             -11.7433 (HOMO)
        68                         -0.3293368              -8.9617 (LUMO)
        69                         -0.3130460              -8.5184
        70                         -0.3054372              -8.3114
        71                         -0.2840736              -7.7300
        72                         -0.2571549              -6.9975
        73                         -0.2558616              -6.9623
        74                         -0.2006966              -5.4612
        75                         -0.1787737              -4.8647
        76                         -0.1417639              -3.8576
        77                         -0.1400675              -3.8114
        78                         -0.1353490              -3.6830
       ...                                ...                  ...
       134                          1.2016193              32.6977
      -------------------------------------------------------------
                  HL-Gap            0.1022200 Eh            2.7815 eV
             Fermi-level           -0.3804468 Eh          -10.3525 eV

  Mulliken/CM5 charges         n(s)   n(p)   n(d)
     1C     0.16251  0.04166   0.982  2.855  0.000
     2O    -0.40440 -0.48698   1.683  4.722  0.000
     3C     0.58615  0.65245   0.958  2.456  0.000
     4O    -0.57067 -0.61618   1.723  4.848  0.000
     5C     0.00332  0.07269   1.004  2.993  0.000
     6C     0.46789  0.51727   1.060  2.473  0.000
     7O    -0.35046 -0.39519   1.727  4.623  0.000
     8C     0.49582  0.58492   1.007  2.497  0.000
     9C    -0.12974 -0.26622   1.021  3.109  0.000
    10O    -0.56770 -0.61257   1.728  4.840  0.000
    11N    -0.36054 -0.70187   1.443  3.918  0.000
    12C     0.29032  0.43824   1.025  2.685  0.000
    13C     0.15259  0.19345   1.065  2.783  0.000
    14C    -0.10050 -0.23903   1.018  3.083  0.000
    15C    -0.11183 -0.25254   1.025  3.087  0.000
    16N    -0.34751 -0.70508   1.434  3.914  0.000
    17C     0.46849  0.57833   0.977  2.554  0.000
    18O    -0.58113 -0.62716   1.726  4.855  0.000
    19C     0.33209  0.45798   1.006  2.662  0.000
    20N    -0.21949 -0.32345   1.566  3.654  0.000
    21N    -0.26710 -0.37477   1.564  3.703  0.000
    22C     0.39297  0.50159   1.008  2.599  0.000
    23C    -0.11203 -0.24944   1.012  3.100  0.000
    24O    -0.35715 -0.41408   1.696  4.661  0.000
    25N    -0.33368 -0.52118   1.530  3.803  0.000
    26H     0.05558  0.11751   0.944  0.000  0.000
    27H     0.05531  0.11671   0.945  0.000  0.000
    28H     0.05764  0.11805   0.942  0.000  0.000
    29H     0.05602  0.12218   0.944  0.000  0.000
    30H     0.06302  0.12017   0.937  0.000  0.000
    31H     0.07561  0.13300   0.924  0.000  0.000
    32H     0.26744  0.47320   0.733  0.000  0.000
    33H     0.04953  0.10544   0.950  0.000  0.000
    34H     0.05695  0.11837   0.943  0.000  0.000
    35H     0.04767  0.10595   0.952  0.000  0.000
    36H     0.05646  0.11208   0.944  0.000  0.000
    37H     0.06235  0.11790   0.938  0.000  0.000
    38H     0.05469  0.11199   0.945  0.000  0.000
    39H     0.27190  0.47814   0.728  0.000  0.000
    40H     0.07002  0.12577   0.930  0.000  0.000
    41H     0.08075  0.13532   0.919  0.000  0.000
    42H     0.08083  0.13538   0.919  0.000  0.000

Wiberg/Mayer (AO) data.
largest (>0.10) Wiberg bond orders for each atom

 ---------------------------------------------------------------------------
     #   Z sym  total        # sym  WBO       # sym  WBO       # sym  WBO
 ---------------------------------------------------------------------------
     1   6 C    3.864 --    28 H    0.985    26 H    0.980    27 H    0.980
                             2 O    0.890
     2   8 O    2.206 --     3 C    1.120     1 C    0.890     4 O    0.130
     3   6 C    3.868 --     4 O    1.641     2 O    1.120     5 C    0.985
     4   8 O    1.916 --     3 C    1.641     2 O    0.130
     5   6 C    3.903 --     6 C    1.576    25 N    1.030     3 C    0.985
                             7 O    0.167
     6   6 C    3.801 --     7 O    1.988     5 C    1.576
     7   8 O    2.288 --     6 C    1.988     5 C    0.167
     8   6 C    3.867 --    10 O    1.662    11 N    1.133     9 C    0.999
     9   6 C    3.991 --     8 C    0.999    29 H    0.981    31 H    0.968
                            30 H    0.959
    10   8 O    1.922 --     8 C    1.662    11 N    0.126
    11   7 N    3.316 --     8 C    1.133    12 C    1.017    32 H    0.888
                            10 O    0.126
    12   6 C    3.933 --    25 N    1.747    11 N    1.017    13 C    0.968
    13   6 C    3.937 --    14 C    0.985    15 C    0.980    12 C    0.968
                            16 N    0.931
    14   6 C    3.987 --    33 H    0.985    13 C    0.985    35 H    0.983
                            34 H    0.981
    15   6 C    3.988 --    38 H    0.984    36 H    0.984    37 H    0.981
                            13 C    0.980
    16   7 N    3.348 --    17 C    1.255    13 C    0.931    39 H    0.891
                            18 O    0.173
    17   6 C    3.916 --    18 O    1.578    16 N    1.255    19 C    0.996
    18   8 O    1.898 --    17 C    1.578    16 N    0.173
    19   6 C    3.873 --    20 N    1.621    24 O    1.047    17 C    0.996
    20   7 N    3.001 --    19 C    1.621    21 N    1.200
    21   7 N    2.981 --    22 C    1.609    20 N    1.200
    22   6 C    3.868 --    21 N    1.609    24 O    1.073    23 C    1.032
    23   6 C    3.986 --    22 C    1.032    40 H    0.982    42 H    0.963
                            41 H    0.962
    24   8 O    2.317 --    22 C    1.073    19 C    1.047
    25   7 N    3.053 --    12 C    1.747     5 C    1.030
    26   1 H    1.006 --     1 C    0.980
    27   1 H    1.006 --     1 C    0.980
    28   1 H    1.009 --     1 C    0.985
    29   1 H    1.013 --     9 C    0.981
    30   1 H    1.002 --     9 C    0.959
    31   1 H    1.006 --     9 C    0.968
    32   1 H    0.942 --    11 N    0.888
    33   1 H    1.000 --    14 C    0.985
    34   1 H    1.010 --    14 C    0.981
    35   1 H    1.010 --    14 C    0.983
    36   1 H    1.002 --    15 C    0.984
    37   1 H    0.996 --    15 C    0.981
    38   1 H    0.997 --    15 C    0.984
    39   1 H    0.933 --    16 N    0.891
    40   1 H    0.998 --    23 C    0.982
    41   1 H    0.996 --    23 C    0.962
    42   1 H    0.996 --    23 C    0.963
 ---------------------------------------------------------------------------

Topologies differ in total number of bonds
Writing topology from bond orders to xtbtopo.mol

 dipole moment from electron density (au)
     X       Y       Z   
   2.6738   4.7790  -0.3596  total (Debye):   13.949

           -------------------------------------------------
          |                Geometry Summary                 |
           -------------------------------------------------

      molecular mass/u    :      351.3152409
   center of mass at/Å    :       -0.1482895      -0.3294599       0.2079173
  moments of inertia/u·Å² :        0.1049240E+04   0.4401260E+04   0.4792780E+04
rotational constants/cm⁻¹ :        0.1606651E-01   0.3830183E-02   0.3517297E-02

 * 36 selected distances

     #   Z          #   Z                                           value/Å
     1   6 C        2   8 O                                       1.4318911
     2   8 O        3   6 C                                       1.3285040
     3   6 C        4   8 O                                       1.2089239
     5   6 C        6   6 C                                       1.3179990
     6   6 C        7   8 O                                       1.1566986
     8   6 C       10   8 O                                       1.2128356
     8   6 C       11   7 N                                       1.3846429
    11   7 N       12   6 C                                       1.4072000
    13   6 C       14   6 C                                       1.5323285
    13   6 C       15   6 C                                       1.5333320 (max)
    13   6 C       16   7 N                                       1.4607173
    16   7 N       17   6 C                                       1.3497277
    17   6 C       18   8 O                                       1.2209778
    19   6 C       20   7 N                                       1.2965589
    21   7 N       22   6 C                                       1.2967807
    22   6 C       23   6 C                                       1.4785932
    19   6 C       24   8 O                                       1.3509284
    22   6 C       24   8 O                                       1.3431018
    12   6 C       25   7 N                                       1.2702142
     1   6 C       26   1 H                                       1.0922419
     1   6 C       27   1 H                                       1.0923541
     1   6 C       28   1 H                                       1.0877448
     9   6 C       29   1 H                                       1.0850948
     9   6 C       30   1 H                                       1.0893237
     9   6 C       31   1 H                                       1.0885513
    11   7 N       32   1 H                                       1.0109786
    14   6 C       33   1 H                                       1.0880052
    14   6 C       34   1 H                                       1.0889432
    14   6 C       35   1 H                                       1.0887042
    15   6 C       36   1 H                                       1.0888496
    15   6 C       37   1 H                                       1.0882593
    15   6 C       38   1 H                                       1.0883162
    16   7 N       39   1 H                                       1.0054146 (min)
    23   6 C       40   1 H                                       1.0873495
    23   6 C       41   1 H                                       1.0897517
    23   6 C       42   1 H                                       1.0897605

 * 5 distinct bonds (by element types)

   Z      Z             #   av. dist./Å        max./Å        min./Å
   1 H    6 C          15     1.0888833     1.0923541     1.0850948
   6 C    6 C           4     1.4655632     1.5333320     1.3179990
   1 H    7 N           2     1.0081966     1.0109786     1.0054146
   6 C    7 N           7     1.3522631     1.4607173     1.2702142
   6 C    8 O           8     1.2817327     1.4318911     1.1566986


optimized geometry written to: xtbopt.xyz


           -------------------------------------------------
          | TOTAL ENERGY              -82.974652868155 Eh   |
          | GRADIENT NORM               0.000636312939 Eh/α |
          | HOMO-LUMO GAP               2.781548793127 eV   |
           -------------------------------------------------

------------------------------------------------------------------------
 * finished run on 2023/06/21 at 17:33:08.733     
------------------------------------------------------------------------
 total:
 * wall-time:     0 d,  0 h,  0 min,  9.798 sec
 *  cpu-time:     0 d,  0 h,  0 min,  9.671 sec
 * ratio c/w:     0.987 speedup
 SCF:
 * wall-time:     0 d,  0 h,  0 min,  0.182 sec
 *  cpu-time:     0 d,  0 h,  0 min,  0.181 sec
 * ratio c/w:     0.999 speedup
 ANC optimizer:
 * wall-time:     0 d,  0 h,  0 min,  9.475 sec
 *  cpu-time:     0 d,  0 h,  0 min,  9.453 sec
 * ratio c/w:     0.998 speedup

