42
 energy: -82.974652868155 gnorm: 0.000636312939 xtb: 6.5.1 (579679a)
C           -5.06968333622356        1.10248398529683       -2.95957221586290
O           -4.02363541013278        0.88316993897307       -2.00668351379584
C           -4.38578802545545        0.33185992250048       -0.85350296319911
O           -5.51681632138116        0.00049548192793       -0.58430190714313
C           -3.22612233645669        0.16848428396400        0.06495891218382
C           -3.41933875270710       -0.28013230410647        1.28910415482021
O           -3.64860080437536       -0.66986918506812        2.35376165480967
C           -0.80548296320409       -1.68045186523106        1.48839623844439
C           -1.39353026412069       -2.45198538171354        0.34042500093096
O           -0.40597653197113       -2.21542273901436        2.50090338193687
N           -0.73619655266875       -0.30148961379842        1.38400232709264
C           -0.88621031878227        0.44389118288708        0.19989305287492
C            0.33664300390566        1.20300061146175       -0.28612959161941
C            0.31810872146232        1.32348037467461       -1.81360174155421
C            0.32519633282358        2.59138510657299        0.36453480438612
N            1.55027391826301        0.51970013605939        0.15420560413490
C            1.83433492475103       -0.75078608341520       -0.20207896661633
O            1.08470829657599       -1.48198357229501       -0.82992988127835
C            3.16479599835407       -1.19644821493726        0.27572160158691
N            3.70640475220062       -2.36774410936268        0.15006109426046
N            4.93045399205200       -2.30093111428857        0.74437417790239
C            5.06139599924120       -1.09264836852996        1.19664285427586
C            6.21409938015859       -0.51123475279983        1.91738590103775
O            3.97856967759830       -0.34259461898098        0.93429094695086
N           -1.98408160130768        0.63537090792583       -0.40958055236103
H           -5.84702868866099        1.73374144492175       -2.52340669268566
H           -5.50484258440594        0.14826545482189       -3.26508941054213
H           -4.61083979128308        1.60020527645861       -3.81099722955333
H           -1.43193571006115       -1.86868356682933       -0.57374921646915
H           -2.39663065611633       -2.77788782581492        0.61282734417158
H           -0.78047077953246       -3.33769157026455        0.18349756053422
H           -0.08350984943433        0.09771939973512        2.04484247494592
H            1.20288816922438        1.86104823701305       -2.14817791448209
H            0.30251888540896        0.33556879169065       -2.27140608083953
H           -0.57362395070117        1.86843772813572       -2.11874253109882
H           -0.58410456971573        3.11961667307405        0.08215838709451
H            1.18747569726170        3.16437712856175        0.02918050253029
H            0.36023623158015        2.50064821661540        1.44849559428811
H            2.26016579568674        1.07104366377882        0.60468545715349
H            6.99054074397670       -1.26293385553155        2.03745277056345
H            6.60871258238673        0.33764495689015        1.35949499231766
H            5.89692769577744       -0.15071816195874        2.89565361787078
