
                                 *****************
                                 * O   R   C   A *
                                 *****************

                                            #,                                       
                                            ###                                      
                                            ####                                     
                                            #####                                    
                                            ######                                   
                                           ########,                                 
                                     ,,################,,,,,                         
                               ,,#################################,,                 
                          ,,##########################################,,             
                       ,#########################################, ''#####,          
                    ,#############################################,,   '####,        
                  ,##################################################,,,,####,       
                ,###########''''           ''''###############################       
              ,#####''   ,,,,##########,,,,          '''####'''          '####       
            ,##' ,,,,###########################,,,                        '##       
           ' ,,###''''                  '''############,,,                           
         ,,##''                                '''############,,,,        ,,,,,,###''
      ,#''                                            '''#######################'''  
     '                                                          ''''####''''         
             ,#######,   #######,   ,#######,      ##                                
            ,#'     '#,  ##    ##  ,#'     '#,    #''#        ######   ,####,        
            ##       ##  ##   ,#'  ##            #'  '#       #        #'  '#        
            ##       ##  #######   ##           ,######,      #####,   #    #        
            '#,     ,#'  ##    ##  '#,     ,#' ,#      #,         ##   #,  ,#        
             '#######'   ##     ##  '#######'  #'      '#     #####' # '####'        



                  #######################################################
                  #                        -***-                        #
                  #          Department of theory and spectroscopy      #
                  #    Directorship and core code : Frank Neese         #
                  #        Max Planck Institute fuer Kohlenforschung    #
                  #                Kaiser Wilhelm Platz 1               #
                  #                 D-45470 Muelheim/Ruhr               #
                  #                      Germany                        #
                  #                                                     #
                  #                  All rights reserved                #
                  #                        -***-                        #
                  #######################################################


                         Program Version 5.0.1 -  RELEASE  -


 With contributions from (in alphabetic order):
   Daniel Aravena         : Magnetic Suceptibility
   Michael Atanasov       : Ab Initio Ligand Field Theory (pilot matlab implementation)
   Alexander A. Auer      : GIAO ZORA, VPT2 properties, NMR spectrum
   Ute Becker             : Parallelization
   Giovanni Bistoni       : ED, misc. LED, open-shell LED, HFLD
   Martin Brehm           : Molecular dynamics
   Dmytro Bykov           : SCF Hessian
   Vijay G. Chilkuri      : MRCI spin determinant printing, contributions to CSF-ICE
   Dipayan Datta          : RHF DLPNO-CCSD density
   Achintya Kumar Dutta   : EOM-CC, STEOM-CC
   Dmitry Ganyushin       : Spin-Orbit,Spin-Spin,Magnetic field MRCI
   Miquel Garcia          : C-PCM and meta-GGA Hessian, CC/C-PCM, Gaussian charge scheme
   Yang Guo               : DLPNO-NEVPT2, F12-NEVPT2, CIM, IAO-localization
   Andreas Hansen         : Spin unrestricted coupled pair/coupled cluster methods
   Benjamin Helmich-Paris : MC-RPA, TRAH-SCF, COSX integrals
   Lee Huntington         : MR-EOM, pCC
   Robert Izsak           : Overlap fitted RIJCOSX, COSX-SCS-MP3, EOM
   Marcus Kettner         : VPT2
   Christian Kollmar      : KDIIS, OOCD, Brueckner-CCSD(T), CCSD density, CASPT2, CASPT2-K
   Simone Kossmann        : Meta GGA functionals, TD-DFT gradient, OOMP2, MP2 Hessian
   Martin Krupicka        : Initial AUTO-CI
   Lucas Lang             : DCDCAS
   Marvin Lechner         : AUTO-CI (C++ implementation), FIC-MRCC
   Dagmar Lenk            : GEPOL surface, SMD
   Dimitrios Liakos       : Extrapolation schemes; Compound Job, initial MDCI parallelization
   Dimitrios Manganas     : Further ROCIS development; embedding schemes
   Dimitrios Pantazis     : SARC Basis sets
   Anastasios Papadopoulos: AUTO-CI, single reference methods and gradients
   Taras Petrenko         : DFT Hessian,TD-DFT gradient, ASA, ECA, R-Raman, ABS, FL, XAS/XES, NRVS
   Peter Pinski           : DLPNO-MP2, DLPNO-MP2 Gradient
   Christoph Reimann      : Effective Core Potentials
   Marius Retegan         : Local ZFS, SOC
   Christoph Riplinger    : Optimizer, TS searches, QM/MM, DLPNO-CCSD(T), (RO)-DLPNO pert. Triples
   Tobias Risthaus        : Range-separated hybrids, TD-DFT gradient, RPA, STAB
   Michael Roemelt        : Original ROCIS implementation
   Masaaki Saitow         : Open-shell DLPNO-CCSD energy and density
   Barbara Sandhoefer     : DKH picture change effects
   Avijit Sen             : IP-ROCIS
   Kantharuban Sivalingam : CASSCF convergence, NEVPT2, FIC-MRCI
   Bernardo de Souza      : ESD, SOC TD-DFT
   Georgi Stoychev        : AutoAux, RI-MP2 NMR, DLPNO-MP2 response
   Willem Van den Heuvel  : Paramagnetic NMR
   Boris Wezisla          : Elementary symmetry handling
   Frank Wennmohs         : Technical directorship


 We gratefully acknowledge several colleagues who have allowed us to
 interface, adapt or use parts of their codes:
   Stefan Grimme, W. Hujo, H. Kruse, P. Pracht,  : VdW corrections, initial TS optimization,
                  C. Bannwarth, S. Ehlert          DFT functionals, gCP, sTDA/sTD-DF
   Ed Valeev, F. Pavosevic, A. Kumar             : LibInt (2-el integral package), F12 methods
   Garnet Chan, S. Sharma, J. Yang, R. Olivares  : DMRG
   Ulf Ekstrom                                   : XCFun DFT Library
   Mihaly Kallay                                 : mrcc  (arbitrary order and MRCC methods)
   Jiri Pittner, Ondrej Demel                    : Mk-CCSD
   Frank Weinhold                                : gennbo (NPA and NBO analysis)
   Christopher J. Cramer and Donald G. Truhlar   : smd solvation model
   Lars Goerigk                                  : TD-DFT with DH, B97 family of functionals
   V. Asgeirsson, H. Jonsson                     : NEB implementation
   FAccTs GmbH                                   : IRC, NEB, NEB-TS, DLPNO-Multilevel, CI-OPT
                                                   MM, QMMM, 2- and 3-layer-ONIOM, Crystal-QMMM,
                                                   LR-CPCM, SF, NACMEs, symmetry and pop. for TD-DFT,
                                                   nearIR, NL-DFT gradient (VV10), updates on ESD,
                                                   ML-optimized integration grids
   S Lehtola, MJT Oliveira, MAL Marques          : LibXC Library
   Liviu Ungur et al                             : ANISO software


 Your calculation uses the libint2 library for the computation of 2-el integrals
 For citations please refer to: http://libint.valeyev.net

 Your ORCA version has been built with support for libXC version: 5.1.0
 For citations please refer to: https://tddft.org/programs/libxc/

 This ORCA versions uses:
   CBLAS   interface :  Fast vector & matrix operations
   LAPACKE interface :  Fast linear algebra routines
   SCALAPACK package :  Parallel linear algebra routines
   Shared memory     :  Shared parallel matrices
   BLAS/LAPACK       :  OpenBLAS 0.3.15  USE64BITINT DYNAMIC_ARCH NO_AFFINITY Haswell SINGLE_THREADED
        Core in use  :  Haswell
   Copyright (c) 2011-2014, The OpenBLAS Project


Your calculation utilizes the geometrical counterpoise correction gCP
Please cite in your paper:
H.Kruse, S. Grimme J.Chem.Phys., 136, (2012), 154101 
   

Your calculation utilizes the atom-pairwise dispersion correction
based on tight binding partial charges (D4)
Cite in your paper:
E.Caldeweyher, C.Bannwarth, S.Grimme, J.Chem.Phys., (2017), 147, 034112.
E.Caldeweyher, S.Ehlert, A.Hansen, H.Neugebauer, S.Grimme, J.Chem.Phys., (2018), in progress.
   

Your calculation utilizes the SMD solvation module
Please cite in your paper:
A.V. Marenich, C.J. Cramer, D.G. Truhlar J. Phys. Chem. B, 113, (2009), 6378 

================================================================================

----- Orbital basis set information -----
Your calculation utilizes the basis: def2-mTZVPP
   Stefan Grimme, Andreas Hansen, Sebastian Ehlert, and Jan-Michael Mewes 
   J. Chem. Phys. 154, 000000 (2021). DOI: 10.1063/5.0040021

----- AuxJ basis set information -----
Your calculation utilizes the basis: def2-mTZVPP/J
   Stefan Grimme, Andreas Hansen, Sebastian Ehlert, and Jan-Michael Mewes 
   J. Chem. Phys. 154, 000000 (2021). DOI: 10.1063/5.0040021

================================================================================
                                        WARNINGS
                       Please study these warnings very carefully!
================================================================================

Using LibXC functional ID 497 : Re-regularized SCAN exchange by Furness et al
[ 1]  J. W. Furness, A. D. Kaplan, J. Ning, J. P. Perdew, and J. Sun, J. Phys. Chem. Lett. 11, 8208 (2020)
[ 2]  J. W. Furness, A. D. Kaplan, J. Ning, J. P. Perdew, and J. Sun, J. Phys. Chem. Lett. 11, 9248 (2020)
Using LibXC functional ID 498 : Re-regularized SCAN correlation by Furness et al
[ 1]  J. W. Furness, A. D. Kaplan, J. Ning, J. P. Perdew, and J. Sun, J. Phys. Chem. Lett. 11, 8208 (2020)
[ 2]  J. W. Furness, A. D. Kaplan, J. Ning, J. P. Perdew, and J. Sun, J. Phys. Chem. Lett. 11, 9248 (2020)
Using LibXC functional ID 497 : Re-regularized SCAN exchange by Furness et al
[ 1]  J. W. Furness, A. D. Kaplan, J. Ning, J. P. Perdew, and J. Sun, J. Phys. Chem. Lett. 11, 8208 (2020)
[ 2]  J. W. Furness, A. D. Kaplan, J. Ning, J. P. Perdew, and J. Sun, J. Phys. Chem. Lett. 11, 9248 (2020)
Using LibXC functional ID 498 : Re-regularized SCAN correlation by Furness et al
[ 1]  J. W. Furness, A. D. Kaplan, J. Ning, J. P. Perdew, and J. Sun, J. Phys. Chem. Lett. 11, 8208 (2020)
[ 2]  J. W. Furness, A. D. Kaplan, J. Ning, J. P. Perdew, and J. Sun, J. Phys. Chem. Lett. 11, 9248 (2020)

INFO   : the flag for use of the SHARK integral package has been found!

================================================================================
                                       INPUT FILE
================================================================================
NAME = /lustre/hpc/kemi/ree/PhD/git/ReactivityQM/calculations/R02/reac01prodN18/conf16/gfn1/orca_calc.inp
|  1> # ORCA input file 
|  2> ! SP r2SCAN-3c CPCM 
|  3> 
|  4> %maxcore 1875.0 
|  5> %pal nprocs 4 end 
|  6> %cpcm smd true SMDsolvent "DMSO" end 
|  7> 
|  8> *xyz 1 1
|  9> C      -6.028681    0.828366    2.081584
| 10> O      -5.066017    0.581182    1.042852
| 11> C      -3.879682    0.166868    1.421669
| 12> O      -3.529948   -0.021152    2.563604
| 13> C      -2.930058   -0.065766    0.290414
| 14> C      -3.106601    0.072164   -1.050172
| 15> O      -4.241245    0.451960   -1.615002
| 16> C      -1.992152   -0.219555   -1.955543
| 17> O      -2.101293   -0.138000   -3.160103
| 18> N      -0.782271   -0.605326   -1.358393
| 19> C       0.270429   -0.853186   -2.350588
| 20> C      -0.627581   -0.701023   -0.027386
| 21> C       0.635379   -1.218511    0.646579
| 22> C       0.582495   -1.064285    2.173188
| 23> C       0.845987   -2.693935    0.288140
| 24> N       1.761899   -0.421507    0.169117
| 25> C       1.596178    0.926144    0.111523
| 26> O       0.492091    1.446983    0.174029
| 27> C       2.848454    1.669780   -0.079270
| 28> N       3.019114    2.952514   -0.175813
| 29> N       4.352899    3.160183   -0.317015
| 30> C       4.921400    1.991973   -0.298033
| 31> C       6.360330    1.679207   -0.421925
| 32> O       4.022898    1.006590   -0.149597
| 33> N      -1.686672   -0.476182    0.729904
| 34> H      -6.209602   -0.091306    2.641064
| 35> H      -5.652021    1.599342    2.756467
| 36> H      -6.936872    1.161277    1.584208
| 37> H      -4.154361    0.458247   -2.586885
| 38> H      -1.614734   -0.564970    1.741025
| 39> H       1.228130   -0.993882   -1.867613
| 40> H      -0.005560   -1.737751   -2.923458
| 41> H       0.308337    0.007553   -3.019041
| 42> H       0.362627   -0.033613    2.449590
| 43> H       1.559284   -1.328328    2.574186
| 44> H      -0.157648   -1.733632    2.608583
| 45> H       0.005340   -3.279080    0.656728
| 46> H       1.757268   -3.046041    0.767464
| 47> H       0.935032   -2.840175   -0.784585
| 48> H       2.684701   -0.811138    0.275977
| 49> H       6.940308    2.599042   -0.412034
| 50> H       6.670762    1.034855    0.399489
| 51> H       6.541653    1.144113   -1.354119
| 52> **                         ****END OF INPUT****
================================================================================

                       ****************************
                       * Single Point Calculation *
                       ****************************

---------------------------------
CARTESIAN COORDINATES (ANGSTROEM)
---------------------------------
  C     -6.028681    0.828366    2.081584
  O     -5.066017    0.581182    1.042852
  C     -3.879682    0.166868    1.421669
  O     -3.529948   -0.021152    2.563604
  C     -2.930058   -0.065766    0.290414
  C     -3.106601    0.072164   -1.050172
  O     -4.241245    0.451960   -1.615002
  C     -1.992152   -0.219555   -1.955543
  O     -2.101293   -0.138000   -3.160103
  N     -0.782271   -0.605326   -1.358393
  C      0.270429   -0.853186   -2.350588
  C     -0.627581   -0.701023   -0.027386
  C      0.635379   -1.218511    0.646579
  C      0.582495   -1.064285    2.173188
  C      0.845987   -2.693935    0.288140
  N      1.761899   -0.421507    0.169117
  C      1.596178    0.926144    0.111523
  O      0.492091    1.446983    0.174029
  C      2.848454    1.669780   -0.079270
  N      3.019114    2.952514   -0.175813
  N      4.352899    3.160183   -0.317015
  C      4.921400    1.991973   -0.298033
  C      6.360330    1.679207   -0.421925
  O      4.022898    1.006590   -0.149597
  N     -1.686672   -0.476182    0.729904
  H     -6.209602   -0.091306    2.641064
  H     -5.652021    1.599342    2.756467
  H     -6.936872    1.161277    1.584208
  H     -4.154361    0.458247   -2.586885
  H     -1.614734   -0.564970    1.741025
  H      1.228130   -0.993882   -1.867613
  H     -0.005560   -1.737751   -2.923458
  H      0.308337    0.007553   -3.019041
  H      0.362627   -0.033613    2.449590
  H      1.559284   -1.328328    2.574186
  H     -0.157648   -1.733632    2.608583
  H      0.005340   -3.279080    0.656728
  H      1.757268   -3.046041    0.767464
  H      0.935032   -2.840175   -0.784585
  H      2.684701   -0.811138    0.275977
  H      6.940308    2.599042   -0.412034
  H      6.670762    1.034855    0.399489
  H      6.541653    1.144113   -1.354119

----------------------------
CARTESIAN COORDINATES (A.U.)
----------------------------
  NO LB      ZA    FRAG     MASS         X           Y           Z
   0 C     6.0000    0    12.011  -11.392556    1.565385    3.933624
   1 O     8.0000    0    15.999   -9.573385    1.098275    1.970705
   2 C     6.0000    0    12.011   -7.331536    0.315335    2.686565
   3 O     8.0000    0    15.999   -6.670635   -0.039971    4.844509
   4 C     6.0000    0    12.011   -5.537007   -0.124280    0.548803
   5 C     6.0000    0    12.011   -5.870625    0.136370   -1.984537
   6 O     8.0000    0    15.999   -8.014792    0.854081   -3.051911
   7 C     6.0000    0    12.011   -3.764622   -0.414899   -3.695441
   8 O     8.0000    0    15.999   -3.970868   -0.260782   -5.971729
   9 N     7.0000    0    14.007   -1.478278   -1.143900   -2.566991
  10 C     6.0000    0    12.011    0.511037   -1.612288   -4.441968
  11 C     6.0000    0    12.011   -1.185956   -1.324741   -0.051752
  12 C     6.0000    0    12.011    1.200692   -2.302652    1.221857
  13 C     6.0000    0    12.011    1.100756   -2.011207    4.106730
  14 C     6.0000    0    12.011    1.598684   -5.090799    0.544506
  15 N     7.0000    0    14.007    3.329507   -0.796533    0.319585
  16 C     6.0000    0    12.011    3.016339    1.750159    0.210748
  17 O     8.0000    0    15.999    0.929917    2.734402    0.328867
  18 C     6.0000    0    12.011    5.382798    3.155427   -0.149799
  19 N     7.0000    0    14.007    5.705299    5.579443   -0.332238
  20 N     7.0000    0    14.007    8.225787    5.971880   -0.599072
  21 C     6.0000    0    12.011    9.300098    3.764283   -0.563201
  22 C     6.0000    0    12.011   12.019282    3.173241   -0.797323
  23 O     8.0000    0    15.999    7.602175    1.902179   -0.282697
  24 N     7.0000    0    14.007   -3.187348   -0.899854    1.379319
  25 H     1.0000    0     1.008  -11.734447   -0.172543    4.990888
  26 H     1.0000    0     1.008  -10.680772    3.022318    5.208968
  27 H     1.0000    0     1.008  -13.108788    2.194495    2.993719
  28 H     1.0000    0     1.008   -7.850605    0.865961   -4.888504
  29 H     1.0000    0     1.008   -3.051405   -1.067639    3.290060
  30 H     1.0000    0     1.008    2.320829   -1.878165   -3.529277
  31 H     1.0000    0     1.008   -0.010507   -3.283873   -5.524535
  32 H     1.0000    0     1.008    0.582672    0.014273   -5.705161
  33 H     1.0000    0     1.008    0.685266   -0.063519    4.629054
  34 H     1.0000    0     1.008    2.946620   -2.510176    4.864507
  35 H     1.0000    0     1.008   -0.297912   -3.276090    4.929507
  36 H     1.0000    0     1.008    0.010091   -6.196563    1.241036
  37 H     1.0000    0     1.008    3.320755   -5.756183    1.450297
  38 H     1.0000    0     1.008    1.766954   -5.367153   -1.482651
  39 H     1.0000    0     1.008    5.073350   -1.532829    0.521521
  40 H     1.0000    0     1.008   13.115281    4.911478   -0.778631
  41 H     1.0000    0     1.008   12.605913    1.955593    0.754925
  42 H     1.0000    0     1.008   12.361933    2.162060   -2.558914

--------------------------------
INTERNAL COORDINATES (ANGSTROEM)
--------------------------------
 C      0   0   0     0.000000000000     0.00000000     0.00000000
 O      1   0   0     1.437632106826     0.00000000     0.00000000
 C      2   1   0     1.312459196436   116.80794775     0.00000000
 O      3   2   1     1.208999973276   125.67526902   359.87559989
 C      3   2   1     1.495206405269   113.87982784   180.16504014
 C      5   3   2     1.359177302321   130.38763133   359.35098594
 O      6   5   3     1.323138291054   124.16390101   359.24490613
 C      6   5   3     1.465193910786   119.37121916   179.69814526
 O      8   6   5     1.212240805082   122.14941789   178.56664587
 N      8   6   5     1.403288787492   116.58790990   358.75627998
 C     10   8   6     1.467672575074   112.15736167   180.87631565
 C     10   8   6     1.343378779778   122.71630076   359.58863807
 C     12  10   8     1.522199268483   123.94774486   175.09022265
 C     13  12  10     1.535290661540   112.18039890   173.51293496
 C     13  12  10     1.532876454957   109.73571911   295.47692878
 N     13  12  10     1.460216644153   108.04479075    55.47829162
 C     16  13  12     1.359023081658   117.45342311    44.68725498
 O     17  16  13     1.222369979804   122.03914789   344.69672338
 C     17  16  13     1.468874279685   113.80160108   166.79750654
 N     19  17  16     1.297633192087   128.47964841   179.83997747
 N     20  19  17     1.357220263844   106.75258570   178.81461511
 C     21  20  19     1.299333793690   106.91116108   359.96998044
 C     22  21  20     1.477731823884   127.96011964   179.73742288
 O     22  21  20     1.341759571156   111.64831387     0.00000000
 N     12  10   8     1.321255223514   117.61039426     3.07110897
 H      1   2   3     1.091579986178   109.66073360   299.65251904
 H      1   2   3     1.091670193724   109.69823164    60.06002643
 H      1   2   3     1.087668842883   106.34059462   179.89471527
 H      7   6   5     0.975779135621   110.52864452   181.70808754
 H     25  12  10     1.017557890947   119.86884132   178.28610924
 H     11  10   8     1.081781595537   110.80137543   170.98428913
 H     11  10   8     1.089405895085   108.11416135   292.45646627
 H     11  10   8     1.090476068419   107.82049450    50.29336615
 H     14  13  12     1.089506665703   110.74691391   306.11900114
 H     14  13  12     1.088409322072   108.12310160   187.38061091
 H     14  13  12     1.088763460483   111.05700794    68.72110437
 H     15  13  12     1.088549109309   109.39730104   298.24997930
 H     15  13  12     1.088192626869   108.87477044   179.36945950
 H     15  13  12     1.086302938986   111.82357722    59.08119647
 H     16  13  12     1.007370292874   117.44615027   199.43289064
 H     23  22  21     1.087459764584   109.84874836     7.12876810
 H     23  22  21     1.089164122584   109.84762514   128.21621630
 H     23  22  21     1.090040950057   109.72919361   246.66310147

---------------------------
INTERNAL COORDINATES (A.U.)
---------------------------
 C      0   0   0     0.000000000000     0.00000000     0.00000000
 O      1   0   0     2.716730963233     0.00000000     0.00000000
 C      2   1   0     2.480188443211   116.80794775     0.00000000
 O      3   2   1     2.284678845409   125.67526902   359.87559989
 C      3   2   1     2.825530619643   113.87982784   180.16504014
 C      5   3   2     2.568472868829   130.38763133   359.35098594
 O      6   5   3     2.500369007396   124.16390101   359.24490613
 C      6   5   3     2.768815224474   119.37121916   179.69814526
 O      8   6   5     2.290803129969   122.14941789   178.56664587
 N      8   6   5     2.651831495163   116.58790990   358.75627998
 C     10   8   6     2.773499221157   112.15736167   180.87631565
 C     10   8   6     2.538617987902   122.71630076   359.58863807
 C     12  10   8     2.876539738687   123.94774486   175.09022265
 C     13  12  10     2.901278886278   112.18039890   173.51293496
 C     13  12  10     2.896716697004   109.73571911   295.47692878
 N     13  12  10     2.759409553642   108.04479075    55.47829162
 C     16  13  12     2.568181434010   117.45342311    44.68725498
 O     17  16  13     2.309944496156   122.03914789   344.69672338
 C     17  16  13     2.775770113766   113.80160108   166.79750654
 N     19  17  16     2.452171355330   128.47964841   179.83997747
 N     20  19  17     2.564774602074   106.75258570   178.81461511
 C     21  20  19     2.455385026623   106.91116108   359.96998044
 C     22  21  20     2.792508446521   127.96011964   179.73742288
 O     22  21  20     2.535558127053   111.64831387     0.00000000
 N     12  10   8     2.496810525454   117.61039426     3.07110897
 H      1   2   3     2.062787227147   109.66073360   299.65251904
 H      1   2   3     2.062957694703   109.69823164    60.06002643
 H      1   2   3     2.055396237448   106.34059462   179.89471527
 H      7   6   5     1.843955333519   110.52864452   181.70808754
 H     25  12  10     1.922905739301   119.86884132   178.28610924
 H     11  10   8     2.044270952281   110.80137543   170.98428913
 H     11  10   8     2.058678790390   108.11416135   292.45646627
 H     11  10   8     2.060701124907   107.82049450    50.29336615
 H     14  13  12     2.058869219261   110.74691391   306.11900114
 H     14  13  12     2.056795540324   108.12310160   187.38061091
 H     14  13  12     2.057464764933   111.05700794    68.72110437
 H     15  13  12     2.057059699918   109.39730104   298.24997930
 H     15  13  12     2.056386045736   108.87477044   179.36945950
 H     15  13  12     2.052815053158   111.82357722    59.08119647
 H     16  13  12     1.903653968980   117.44615027   199.43289064
 H     23  22  21     2.055001136723   109.84874836     7.12876810
 H     23  22  21     2.058221906576   109.84762514   128.21621630
 H     23  22  21     2.059878870367   109.72919361   246.66310147

---------------------
BASIS SET INFORMATION
---------------------
There are 4 groups of distinct atoms

 Group   1 Type C   : 11s6p1d contracted to 5s3p1d pattern {62111/411/1}
 Group   2 Type O   : 11s6p2d contracted to 5s3p2d pattern {62111/411/11}
 Group   3 Type N   : 11s6p2d contracted to 5s3p2d pattern {62111/411/11}
 Group   4 Type H   : 4s1p contracted to 2s1p pattern {31/1}

Atom   0C    basis set group =>   1
Atom   1O    basis set group =>   2
Atom   2C    basis set group =>   1
Atom   3O    basis set group =>   2
Atom   4C    basis set group =>   1
Atom   5C    basis set group =>   1
Atom   6O    basis set group =>   2
Atom   7C    basis set group =>   1
Atom   8O    basis set group =>   2
Atom   9N    basis set group =>   3
Atom  10C    basis set group =>   1
Atom  11C    basis set group =>   1
Atom  12C    basis set group =>   1
Atom  13C    basis set group =>   1
Atom  14C    basis set group =>   1
Atom  15N    basis set group =>   3
Atom  16C    basis set group =>   1
Atom  17O    basis set group =>   2
Atom  18C    basis set group =>   1
Atom  19N    basis set group =>   3
Atom  20N    basis set group =>   3
Atom  21C    basis set group =>   1
Atom  22C    basis set group =>   1
Atom  23O    basis set group =>   2
Atom  24N    basis set group =>   3
Atom  25H    basis set group =>   4
Atom  26H    basis set group =>   4
Atom  27H    basis set group =>   4
Atom  28H    basis set group =>   4
Atom  29H    basis set group =>   4
Atom  30H    basis set group =>   4
Atom  31H    basis set group =>   4
Atom  32H    basis set group =>   4
Atom  33H    basis set group =>   4
Atom  34H    basis set group =>   4
Atom  35H    basis set group =>   4
Atom  36H    basis set group =>   4
Atom  37H    basis set group =>   4
Atom  38H    basis set group =>   4
Atom  39H    basis set group =>   4
Atom  40H    basis set group =>   4
Atom  41H    basis set group =>   4
Atom  42H    basis set group =>   4
---------------------------------
AUXILIARY/J BASIS SET INFORMATION
---------------------------------
There are 4 groups of distinct atoms

 Group   1 Type C   : 8s3p3d contracted to 6s3p3d pattern {311111/111/111}
 Group   2 Type O   : 8s3p3d contracted to 6s3p3d pattern {311111/111/111}
 Group   3 Type N   : 8s3p3d contracted to 6s3p3d pattern {311111/111/111}
 Group   4 Type H   : 5s2p1d contracted to 3s1p1d pattern {311/2/1}

Atom   0C    basis set group =>   1
Atom   1O    basis set group =>   2
Atom   2C    basis set group =>   1
Atom   3O    basis set group =>   2
Atom   4C    basis set group =>   1
Atom   5C    basis set group =>   1
Atom   6O    basis set group =>   2
Atom   7C    basis set group =>   1
Atom   8O    basis set group =>   2
Atom   9N    basis set group =>   3
Atom  10C    basis set group =>   1
Atom  11C    basis set group =>   1
Atom  12C    basis set group =>   1
Atom  13C    basis set group =>   1
Atom  14C    basis set group =>   1
Atom  15N    basis set group =>   3
Atom  16C    basis set group =>   1
Atom  17O    basis set group =>   2
Atom  18C    basis set group =>   1
Atom  19N    basis set group =>   3
Atom  20N    basis set group =>   3
Atom  21C    basis set group =>   1
Atom  22C    basis set group =>   1
Atom  23O    basis set group =>   2
Atom  24N    basis set group =>   3
Atom  25H    basis set group =>   4
Atom  26H    basis set group =>   4
Atom  27H    basis set group =>   4
Atom  28H    basis set group =>   4
Atom  29H    basis set group =>   4
Atom  30H    basis set group =>   4
Atom  31H    basis set group =>   4
Atom  32H    basis set group =>   4
Atom  33H    basis set group =>   4
Atom  34H    basis set group =>   4
Atom  35H    basis set group =>   4
Atom  36H    basis set group =>   4
Atom  37H    basis set group =>   4
Atom  38H    basis set group =>   4
Atom  39H    basis set group =>   4
Atom  40H    basis set group =>   4
Atom  41H    basis set group =>   4
Atom  42H    basis set group =>   4


           ************************************************************
           *        Program running with 4 parallel MPI-processes     *
           *              working on a common directory               *
           ************************************************************
------------------------------------------------------------------------------
                           ORCA GTO INTEGRAL CALCULATION
                           -- RI-GTO INTEGRALS CHOSEN --
------------------------------------------------------------------------------
------------------------------------------------------------------------------
                   ___                                                        
                  /   \      - P O W E R E D   B Y -                         
                 /     \                                                     
                 |  |  |   _    _      __       _____    __    __             
                 |  |  |  | |  | |    /  \     |  _  \  |  |  /  |          
                  \  \/   | |  | |   /    \    | | | |  |  | /  /          
                 / \  \   | |__| |  /  /\  \   | |_| |  |  |/  /          
                |  |  |   |  __  | /  /__\  \  |    /   |      \           
                |  |  |   | |  | | |   __   |  |    \   |  |\   \          
                \     /   | |  | | |  |  |  |  | |\  \  |  | \   \       
                 \___/    |_|  |_| |__|  |__|  |_| \__\ |__|  \__/        
                                                                              
                      - O R C A' S   B I G   F R I E N D -                    
                                      &                                       
                       - I N T E G R A L  F E E D E R -                       
                                                                              
 v1 FN, 2020, v2 2021                                                         
------------------------------------------------------------------------------


Reading SHARK input file /lustre/hpc/kemi/ree/PhD/git/ReactivityQM/calculations/R02/reac01prodN18/conf16/gfn1/orca_calc.SHARKINP.tmp ... ok
----------------------
SHARK INTEGRAL PACKAGE
----------------------

Number of atoms                             ...     43
Number of basis functions                   ...    620
Number of shells                            ...    290
Maximum angular momentum                    ...      2
Integral batch strategy                     ... SHARK/LIBINT Hybrid
RI-J (if used) integral strategy            ... SPLIT-RIJ (Revised 2003 algorithm where possible)
Printlevel                                  ...      1
Contraction scheme used                     ... SEGMENTED contraction
Coulomb Range Separation                    ... NOT USED
Exchange Range Separation                   ... NOT USED
Finite Nucleus Model                        ... NOT USED
Auxiliary Coulomb fitting basis             ... AVAILABLE
   # of basis functions in Aux-J            ...    948
   # of shells in Aux-J                     ...    390
   Maximum angular momentum in Aux-J        ...      2
Auxiliary J/K fitting basis                 ... NOT available
Auxiliary Correlation fitting basis         ... NOT available
Auxiliary 'external' fitting basis          ... NOT available
Integral threshold                          ...     1.000000e-10
Primitive cut-off                           ...     1.000000e-11
Primitive pair pre-selection threshold      ...     1.000000e-11

Calculating pre-screening integrals         ... done (  0.3 sec) Dimension = 290
Organizing shell pair data                  ... done (  0.3 sec)
Shell pair information
Total number of shell pairs                 ...     42195
Shell pairs after pre-screening             ...     27380
Total number of primitive shell pairs       ...    152680
Primitive shell pairs kept                  ...     61358
          la=0 lb=0:   7822 shell pairs
          la=1 lb=0:   9903 shell pairs
          la=1 lb=1:   3130 shell pairs
          la=2 lb=0:   3713 shell pairs
          la=2 lb=1:   2346 shell pairs
          la=2 lb=2:    466 shell pairs

Calculating one electron integrals          ... done (  0.1 sec)
Calculating RI/J V-Matrix + Cholesky decomp.... done (  0.2 sec)
Calculating Nuclear repulsion               ... done (  0.0 sec) ENN=   2344.363558316790 Eh

SHARK setup successfully completed in   1.1 seconds

Maximum memory used throughout the entire GTOINT-calculation: 40.3 MB


           ************************************************************
           *        Program running with 4 parallel MPI-processes     *
           *              working on a common directory               *
           ************************************************************
-------------------------------------------------------------------------------
                                 ORCA SCF
-------------------------------------------------------------------------------

------------
SCF SETTINGS
------------
Hamiltonian:
 Density Functional     Method          .... DFT(GTOs)
  Functional kind                       .... Exchange
  Functional name                       .... Re-regularized SCAN exchange by Furness et al
  Functional family                     .... MGGA
  Functional refs                              
    [ 0] J. W. Furness, A. D. Kaplan, J. Ning, J. P. Perdew, and J. Sun, J. Phys. Chem. Lett. 11, 8208 (2020)
    [ 1] J. W. Furness, A. D. Kaplan, J. Ning, J. P. Perdew, and J. Sun, J. Phys. Chem. Lett. 11, 9248 (2020)
  Functional external parameters         .... 8
 Parameter  0 :         c1 parameter
 Parameter  1 :         c2 parameter
 Parameter  2 :          d parameter
 Parameter  3 :         k1 parameter
 Parameter  4 :       taur parameter
 Parameter  5 :     alphar parameter
 Parameter  6 :        eta parameter
 Parameter  7 :        dp2 parameter
  Functional kind                       .... Correlation
  Functional name                       .... Re-regularized SCAN correlation by Furness et al
  Functional family                     .... MGGA
  Functional refs                              
    [ 0] J. W. Furness, A. D. Kaplan, J. Ning, J. P. Perdew, and J. Sun, J. Phys. Chem. Lett. 11, 8208 (2020)
    [ 1] J. W. Furness, A. D. Kaplan, J. Ning, J. P. Perdew, and J. Sun, J. Phys. Chem. Lett. 11, 9248 (2020)
  Functional external parameters         .... 0
 Gradients option       PostSCFGGA      .... off
   Density functional embedding theory  .... OFF
 RI-approximation to the Coulomb term is turned on
   Number of AuxJ basis functions       .... 948


General Settings:
 Integral files         IntName         .... /lustre/hpc/kemi/ree/PhD/git/ReactivityQM/calculations/R02/reac01prodN18/conf16/gfn1/orca_calc
 Hartree-Fock type      HFTyp           .... RHF
 Total Charge           Charge          ....    1
 Multiplicity           Mult            ....    1
 Number of Electrons    NEL             ....  184
 Basis Dimension        Dim             ....  620
 Nuclear Repulsion      ENuc            ....   2344.3635583168 Eh

Convergence Acceleration:
 DIIS                   CNVDIIS         .... on
   Start iteration      DIISMaxIt       ....    12
   Startup error        DIISStart       ....  0.200000
   # of expansion vecs  DIISMaxEq       ....     5
   Bias factor          DIISBfac        ....   1.050
   Max. coefficient     DIISMaxC        ....  10.000
 Trust-Rad. Augm. Hess. CNVTRAH         .... auto
   Auto Start mean grad. ratio tolernc. ....  1.125000
   Auto Start start iteration           ....    20
   Auto Start num. interpolation iter.  ....    10
   Max. Number of Micro iterations      ....    16
   Max. Number of Macro iterations      .... Maxiter - #DIIS iter
   Number of Davidson start vectors     ....     2
   Converg. threshold I  (grad. norm)   ....   5.000e-05
   Converg. threshold II (energy diff.) ....   1.000e-06
   Grad. Scal. Fac. for Micro threshold ....   0.100
   Minimum threshold for Micro iter.    ....   0.010
   NR start threshold (gradient norm)   ....   0.001
   Initial trust radius                 ....   0.400
   Minimum AH scaling param. (alpha)    ....   1.000
   Maximum AH scaling param. (alpha)    .... 1000.000
   Orbital update algorithm             .... Taylor
   White noise on init. David. guess    .... on
   Maximum white noise                  ....   0.010
   Quad. conv. algorithm                .... NR
   COSX micro iterations for RIJONX calc.... off
 SOSCF                  CNVSOSCF        .... on
   Start iteration      SOSCFMaxIt      ....   150
   Startup grad/error   SOSCFStart      ....  0.003300
 Level Shifting         CNVShift        .... on
   Level shift para.    LevelShift      ....    0.2500
   Turn off err/grad.   ShiftErr        ....    0.0010
 Zerner damping         CNVZerner       .... off
 Static damping         CNVDamp         .... on
   Fraction old density DampFac         ....    0.7000
   Max. Damping (<1)    DampMax         ....    0.9800
   Min. Damping (>=0)   DampMin         ....    0.0000
   Turn off err/grad.   DampErr         ....    0.1000
 Fernandez-Rico         CNVRico         .... off

SCF Procedure:
 Maximum # iterations   MaxIter         ....   125
 SCF integral mode      SCFMode         .... Direct
   Integral package                     .... SHARK and LIBINT hybrid scheme
 Reset frequency        DirectResetFreq ....    20
 Integral Threshold     Thresh          ....  1.000e-10 Eh
 Primitive CutOff       TCut            ....  1.000e-11 Eh

Convergence Tolerance:
 Convergence Check Mode ConvCheckMode   .... Total+1el-Energy
 Convergence forced     ConvForced      .... 0
 Energy Change          TolE            ....  1.000e-06 Eh
 1-El. energy change                    ....  1.000e-03 Eh
 Orbital Gradient       TolG            ....  5.000e-05
 Orbital Rotation angle TolX            ....  5.000e-05
 DIIS Error             TolErr          ....  1.000e-06


Diagonalization of the overlap matrix:
Smallest eigenvalue                        ... 1.208e-05
Time for diagonalization                   ...    0.122 sec
Threshold for overlap eigenvalues          ... 1.000e-08
Number of eigenvalues below threshold      ... 0
Time for construction of square roots      ...    0.083 sec
Total time needed                          ...    0.208 sec

Time for model grid setup =    1.214 sec

------------------------------
INITIAL GUESS: MODEL POTENTIAL
------------------------------
Loading Hartree-Fock densities                     ... done
Calculating cut-offs                               ... done
Initializing the effective Hamiltonian             ... done
Setting up the integral package (SHARK)            ... done
Starting the Coulomb interaction                   ... done (   1.3 sec)
Reading the grid                                   ... done
Mapping shells                                     ... done
Starting the XC term evaluation                    ... done (   0.9 sec)
  promolecular density results
     # of electrons  =    184.990979942
     EX              =   -158.756670639
     EC              =     -6.310370333
     EX+EC           =   -165.067040972
Transforming the Hamiltonian                       ... done (   0.1 sec)
Diagonalizing the Hamiltonian                      ... done (   0.1 sec)
Back transforming the eigenvectors                 ... done (   0.0 sec)
Now organizing SCF variables                       ... done
                      ------------------
                      INITIAL GUESS DONE (   3.6 sec)
                      ------------------
-------------------
DFT GRID GENERATION
-------------------

General Integration Accuracy     IntAcc      ... 4.388
Radial Grid Type                 RadialGrid  ... OptM3 with GC (2021)
Angular Grid (max. ang.)         AngularGrid ... 4 (Lebedev-302)
Angular grid pruning method      GridPruning ... 4 (adaptive)
Weight generation scheme         WeightScheme... Becke
Basis function cutoff            BFCut       ... 1.0000e-10
Integration weight cutoff        WCut        ... 1.0000e-14
Angular grids for H and He will be reduced by one unit
Partially contracted basis set               ... off
Rotationally invariant grid construction     ... off

Total number of grid points                  ...   208502
Total number of batches                      ...     3280
Average number of points per batch           ...       63
Average number of grid points per atom       ...     4849
Time for grid setup =    3.691 sec


--------------------
CPCM SOLVATION MODEL
--------------------
CPCM parameters:
  Epsilon                                         ...      46.8260
  Refrac                                          ...       1.4170
  Rsolv                                           ...       1.3000
  Surface type                                    ... GAUSSIAN VDW
  Epsilon function type                           ...         CPCM
Solvent:                                     ... DMSO
SMD-CDS solvent descriptors:
  Soln                                       ...    1.4170
  Soln25                                     ...    1.4773
  Sola                                       ...    0.0000
  Solb                                       ...    0.8800
  Solg                                       ...   61.7800
  Solc                                       ...    0.0000
  Solh                                       ...    0.0000
Radii:
 Radius for C  used is    3.4960 Bohr (=   1.8500 Ang.)
 Radius for O  used is    4.3350 Bohr (=   2.2940 Ang.)
 Radius for N  used is    3.5716 Bohr (=   1.8900 Ang.)
 Radius for H  used is    2.2677 Bohr (=   1.2000 Ang.)
Calculating surface                               ...        done! (  0.0s)
GEPOL surface points                              ...         2082
GEPOL Volume                                      ...    2801.6722
GEPOL Surface-area                                ...    1375.8530
Calculating surface distance matrix               ...        done! (  0.1s)
Performing Cholesky decomposition & store         ...        done! (  0.3s)
Overall time for CPCM initialization              ...                 0.4s
--------------
SCF ITERATIONS
--------------
ITER       Energy         Delta-E        Max-DP      RMS-DP      [F,P]     Damp
               ***  Starting incremental Fock matrix formation  ***
  0  -1268.5137017904   0.000000000000 0.28847613  0.00172697  0.2717743 0.7000
  1  -1268.8187819824  -0.305080191986 0.16960766  0.00115291  0.0940680 0.7000
                               ***Turning on DIIS***
  2  -1268.9114873781  -0.092705395785 0.18371114  0.00172429  0.0337885 0.0000
  3  -1269.0947123944  -0.183225016255 0.16198266  0.00095718  0.0465832 0.0000
  4  -1269.1212179276  -0.026505533229 0.02607647  0.00028925  0.0322814 0.0000
  5  -1269.1260561646  -0.004838236942 0.01429540  0.00011992  0.0036025 0.0000
                      *** Initiating the SOSCF procedure ***
                           *** Shutting down DIIS ***
                      *** Re-Reading the Fockian *** 
                      *** Removing any level shift *** 
ITER      Energy       Delta-E        Grad      Rot      Max-DP    RMS-DP
  6  -1269.12618190  -0.0001257318  0.000396  0.000396  0.005622  0.000036
               *** Restarting incremental Fock matrix formation ***
  7  -1269.12622181  -0.0000399176  0.000181  0.000785  0.001420  0.000020
  8  -1269.12621655   0.0000052685  0.000434  0.000634  0.001017  0.000012
  9  -1269.12622487  -0.0000083226  0.000089  0.000442  0.002218  0.000013
 10  -1269.12622414   0.0000007285  0.000109  0.000302  0.000894  0.000005
 11  -1269.12622526  -0.0000011189  0.000021  0.000123  0.001337  0.000007
                 **** Energy Check signals convergence ****
              ***Rediagonalizing the Fockian in SOSCF/NRSCF***

               *****************************************************
               *                     SUCCESS                       *
               *           SCF CONVERGED AFTER  12 CYCLES          *
               *****************************************************


SMD CDS free energy correction energy :                -0.08930     Kcal/mol
Total Energy after SMD CDS correction =             -1269.126367490 Eh

----------------
TOTAL SCF ENERGY
----------------

Total Energy       :        -1269.12636749 Eh          -34534.68417 eV

Components:
Nuclear Repulsion  :         2344.36355832 Eh           63793.37561 eV
Electronic Energy  :        -3613.48992581 Eh          -98328.05978 eV
One Electron Energy:        -6366.45722908 Eh         -173240.10856 eV
Two Electron Energy:         2752.96730327 Eh           74912.04878 eV
CPCM Dielectric    :           -0.11072901 Eh              -3.01309 eV
SMD CDS (Gcds)     :           -0.00014230 Eh              -0.00387 eV

Virial components:
Potential Energy   :        -2533.24222233 Eh          -68933.02536 eV
Kinetic Energy     :         1264.11585484 Eh           34398.34119 eV
Virial Ratio       :            2.00396365


DFT components:
N(Alpha)           :       92.000046203798 electrons
N(Beta)            :       92.000046203798 electrons
N(Total)           :      184.000092407597 electrons
E(X)               :     -162.105703539840 Eh       
E(C)               :       -6.126554985886 Eh       
E(XC)              :     -168.232258525726 Eh       
DFET-embed. en.    :        0.000000000000 Eh       
CPCM Solvation Model Properties:
Surface-charge          :           -1.02987381
Charge-correction       :            0.00297175 Eh               0.08087 eV
Free-energy (cav+disp)  :           -0.00014230 Eh              -0.00387 eV

---------------
SCF CONVERGENCE
---------------

  Last Energy change         ...    7.3226e-08  Tolerance :   1.0000e-06
  Last MAX-Density change    ...    5.6267e-04  Tolerance :   1.0000e-05
  Last RMS-Density change    ...    3.4163e-06  Tolerance :   1.0000e-06
  Last Orbital Gradient      ...    3.8628e-05  Tolerance :   5.0000e-05
  Last Orbital Rotation      ...    8.3472e-05  Tolerance :   5.0000e-05

             **** THE GBW FILE WAS UPDATED (/lustre/hpc/kemi/ree/PhD/git/ReactivityQM/calculations/R02/reac01prodN18/conf16/gfn1/orca_calc.gbw) ****
             **** DENSITY /lustre/hpc/kemi/ree/PhD/git/ReactivityQM/calculations/R02/reac01prodN18/conf16/gfn1/orca_calc.scfp WAS UPDATED ****
             **** ENERGY FILE WAS UPDATED (/lustre/hpc/kemi/ree/PhD/git/ReactivityQM/calculations/R02/reac01prodN18/conf16/gfn1/orca_calc.en.tmp) ****
             **** THE GBW FILE WAS UPDATED (/lustre/hpc/kemi/ree/PhD/git/ReactivityQM/calculations/R02/reac01prodN18/conf16/gfn1/orca_calc.gbw) ****
             **** DENSITY /lustre/hpc/kemi/ree/PhD/git/ReactivityQM/calculations/R02/reac01prodN18/conf16/gfn1/orca_calc.scfp WAS UPDATED ****
----------------
ORBITAL ENERGIES
----------------

  NO   OCC          E(Eh)            E(eV) 
   0   2.0000     -19.074388      -519.0405 
   1   2.0000     -19.027562      -517.7663 
   2   2.0000     -19.026087      -517.7261 
   3   2.0000     -18.972358      -516.2641 
   4   2.0000     -18.966873      -516.1148 
   5   2.0000     -18.960477      -515.9408 
   6   2.0000     -14.277203      -388.5024 
   7   2.0000     -14.270838      -388.3292 
   8   2.0000     -14.219991      -386.9456 
   9   2.0000     -14.215205      -386.8154 
  10   2.0000     -14.204442      -386.5225 
  11   2.0000     -10.193906      -277.3903 
  12   2.0000     -10.192271      -277.3458 
  13   2.0000     -10.183012      -277.0939 
  14   2.0000     -10.176082      -276.9053 
  15   2.0000     -10.156988      -276.3857 
  16   2.0000     -10.155416      -276.3429 
  17   2.0000     -10.153304      -276.2855 
  18   2.0000     -10.136114      -275.8177 
  19   2.0000     -10.134418      -275.7715 
  20   2.0000     -10.088073      -274.5104 
  21   2.0000     -10.079429      -274.2752 
  22   2.0000     -10.048745      -273.4402 
  23   2.0000     -10.041174      -273.2342 
  24   2.0000     -10.040488      -273.2156 
  25   2.0000      -1.164581       -31.6899 
  26   2.0000      -1.106970       -30.1222 
  27   2.0000      -1.091079       -29.6898 
  28   2.0000      -1.061419       -28.8827 
  29   2.0000      -1.049854       -28.5680 
  30   2.0000      -1.029343       -28.0099 
  31   2.0000      -1.013761       -27.5858 
  32   2.0000      -0.985589       -26.8192 
  33   2.0000      -0.950858       -25.8742 
  34   2.0000      -0.934974       -25.4419 
  35   2.0000      -0.843037       -22.9402 
  36   2.0000      -0.823210       -22.4007 
  37   2.0000      -0.778411       -21.1817 
  38   2.0000      -0.748838       -20.3769 
  39   2.0000      -0.721823       -19.6418 
  40   2.0000      -0.720281       -19.5999 
  41   2.0000      -0.692356       -18.8400 
  42   2.0000      -0.682086       -18.5605 
  43   2.0000      -0.675416       -18.3790 
  44   2.0000      -0.661572       -18.0023 
  45   2.0000      -0.612766       -16.6742 
  46   2.0000      -0.609979       -16.5984 
  47   2.0000      -0.601508       -16.3679 
  48   2.0000      -0.592969       -16.1355 
  49   2.0000      -0.583457       -15.8767 
  50   2.0000      -0.565624       -15.3914 
  51   2.0000      -0.547103       -14.8874 
  52   2.0000      -0.522682       -14.2229 
  53   2.0000      -0.511362       -13.9149 
  54   2.0000      -0.504179       -13.7194 
  55   2.0000      -0.501374       -13.6431 
  56   2.0000      -0.482595       -13.1321 
  57   2.0000      -0.473396       -12.8817 
  58   2.0000      -0.468814       -12.7571 
  59   2.0000      -0.468666       -12.7530 
  60   2.0000      -0.461660       -12.5624 
  61   2.0000      -0.453297       -12.3348 
  62   2.0000      -0.442117       -12.0306 
  63   2.0000      -0.433519       -11.7967 
  64   2.0000      -0.430998       -11.7280 
  65   2.0000      -0.423914       -11.5353 
  66   2.0000      -0.414539       -11.2802 
  67   2.0000      -0.410433       -11.1685 
  68   2.0000      -0.407028       -11.0758 
  69   2.0000      -0.398219       -10.8361 
  70   2.0000      -0.393194       -10.6993 
  71   2.0000      -0.385909       -10.5011 
  72   2.0000      -0.384784       -10.4705 
  73   2.0000      -0.378993       -10.3129 
  74   2.0000      -0.376813       -10.2536 
  75   2.0000      -0.373182       -10.1548 
  76   2.0000      -0.371986       -10.1222 
  77   2.0000      -0.369625       -10.0580 
  78   2.0000      -0.358592        -9.7578 
  79   2.0000      -0.352892        -9.6027 
  80   2.0000      -0.344730        -9.3806 
  81   2.0000      -0.337308        -9.1786 
  82   2.0000      -0.322980        -8.7887 
  83   2.0000      -0.312890        -8.5142 
  84   2.0000      -0.298668        -8.1272 
  85   2.0000      -0.293436        -7.9848 
  86   2.0000      -0.278583        -7.5806 
  87   2.0000      -0.276676        -7.5287 
  88   2.0000      -0.273189        -7.4339 
  89   2.0000      -0.269157        -7.3241 
  90   2.0000      -0.263436        -7.1685 
  91   2.0000      -0.243913        -6.6372 
  92   0.0000      -0.119421        -3.2496 
  93   0.0000      -0.103904        -2.8274 
  94   0.0000      -0.089003        -2.4219 
  95   0.0000      -0.027920        -0.7597 
  96   0.0000      -0.014583        -0.3968 
  97   0.0000       0.032543         0.8855 
  98   0.0000       0.038929         1.0593 
  99   0.0000       0.042889         1.1671 
 100   0.0000       0.053054         1.4437 
 101   0.0000       0.059708         1.6247 
 102   0.0000       0.078020         2.1230 
 103   0.0000       0.080047         2.1782 
 104   0.0000       0.082575         2.2470 
 105   0.0000       0.084611         2.3024 
 106   0.0000       0.093152         2.5348 
 107   0.0000       0.106628         2.9015 
 108   0.0000       0.107047         2.9129 
 109   0.0000       0.115016         3.1297 
 110   0.0000       0.119131         3.2417 
 111   0.0000       0.122218         3.3257 
 112   0.0000       0.123039         3.3481 
 113   0.0000       0.131701         3.5838 
 114   0.0000       0.133686         3.6378 
 115   0.0000       0.138067         3.7570 
 116   0.0000       0.142527         3.8784 
 117   0.0000       0.147471         4.0129 
 118   0.0000       0.148842         4.0502 
 119   0.0000       0.152378         4.1464 
 120   0.0000       0.158087         4.3018 
 121   0.0000       0.161500         4.3946 
 122   0.0000       0.164897         4.4871 
 123   0.0000       0.168614         4.5882 
 124   0.0000       0.173732         4.7275 
 125   0.0000       0.178553         4.8587 
 126   0.0000       0.180975         4.9246 
 127   0.0000       0.185002         5.0342 
 128   0.0000       0.188745         5.1360 
 129   0.0000       0.189243         5.1496 
 130   0.0000       0.189530         5.1574 
 131   0.0000       0.191974         5.2239 
 132   0.0000       0.195474         5.3191 
 133   0.0000       0.197639         5.3780 
 134   0.0000       0.202124         5.5001 
 135   0.0000       0.205808         5.6003 
 136   0.0000       0.207133         5.6364 
 137   0.0000       0.215762         5.8712 
 138   0.0000       0.222091         6.0434 
 139   0.0000       0.230144         6.2625 
 140   0.0000       0.234451         6.3797 
 141   0.0000       0.235449         6.4069 
 142   0.0000       0.238987         6.5032 
 143   0.0000       0.245695         6.6857 
 144   0.0000       0.248771         6.7694 
 145   0.0000       0.254210         6.9174 
 146   0.0000       0.255730         6.9588 
 147   0.0000       0.263398         7.1674 
 148   0.0000       0.269126         7.3233 
 149   0.0000       0.273068         7.4306 
 150   0.0000       0.280641         7.6366 
 151   0.0000       0.282670         7.6918 
 152   0.0000       0.285941         7.7808 
 153   0.0000       0.293618         7.9897 
 154   0.0000       0.296051         8.0560 
 155   0.0000       0.297800         8.1035 
 156   0.0000       0.302700         8.2369 
 157   0.0000       0.305975         8.3260 
 158   0.0000       0.308129         8.3846 
 159   0.0000       0.318105         8.6561 
 160   0.0000       0.321140         8.7387 
 161   0.0000       0.326240         8.8774 
 162   0.0000       0.331851         9.0301 
 163   0.0000       0.336715         9.1625 
 164   0.0000       0.342543         9.3211 
 165   0.0000       0.343882         9.3575 
 166   0.0000       0.346034         9.4161 
 167   0.0000       0.352011         9.5787 
 168   0.0000       0.354700         9.6519 
 169   0.0000       0.357726         9.7342 
 170   0.0000       0.367960        10.0127 
 171   0.0000       0.371845        10.1184 
 172   0.0000       0.379033        10.3140 
 173   0.0000       0.387062        10.5325 
 174   0.0000       0.389508        10.5991 
 175   0.0000       0.391814        10.6618 
 176   0.0000       0.395648        10.7661 
 177   0.0000       0.403559        10.9814 
 178   0.0000       0.412696        11.2300 
 179   0.0000       0.415769        11.3136 
 180   0.0000       0.419892        11.4258 
 181   0.0000       0.423453        11.5227 
 182   0.0000       0.426030        11.5929 
 183   0.0000       0.435819        11.8592 
 184   0.0000       0.440863        11.9965 
 185   0.0000       0.443282        12.0623 
 186   0.0000       0.450192        12.2503 
 187   0.0000       0.452259        12.3066 
 188   0.0000       0.457393        12.4463 
 189   0.0000       0.466611        12.6971 
 190   0.0000       0.472076        12.8458 
 191   0.0000       0.474952        12.9241 
 192   0.0000       0.483298        13.1512 
 193   0.0000       0.489540        13.3210 
 194   0.0000       0.497431        13.5358 
 195   0.0000       0.499563        13.5938 
 196   0.0000       0.503616        13.7041 
 197   0.0000       0.507495        13.8096 
 198   0.0000       0.510479        13.8909 
 199   0.0000       0.521969        14.2035 
 200   0.0000       0.532254        14.4834 
 201   0.0000       0.534160        14.5352 
 202   0.0000       0.536692        14.6041 
 203   0.0000       0.542389        14.7592 
 204   0.0000       0.548873        14.9356 
 205   0.0000       0.551127        14.9969 
 206   0.0000       0.553549        15.0628 
 207   0.0000       0.560442        15.2504 
 208   0.0000       0.567286        15.4366 
 209   0.0000       0.579226        15.7615 
 210   0.0000       0.584429        15.9031 
 211   0.0000       0.589538        16.0421 
 212   0.0000       0.592710        16.1285 
 213   0.0000       0.605245        16.4696 
 214   0.0000       0.611761        16.6469 
 215   0.0000       0.617135        16.7931 
 216   0.0000       0.621933        16.9237 
 217   0.0000       0.627690        17.0803 
 218   0.0000       0.633002        17.2249 
 219   0.0000       0.635960        17.3053 
 220   0.0000       0.636700        17.3255 
 221   0.0000       0.640298        17.4234 
 222   0.0000       0.648148        17.6370 
 223   0.0000       0.653648        17.7867 
 224   0.0000       0.659785        17.9537 
 225   0.0000       0.668806        18.1991 
 226   0.0000       0.670193        18.2369 
 227   0.0000       0.674735        18.3605 
 228   0.0000       0.680679        18.5222 
 229   0.0000       0.691030        18.8039 
 230   0.0000       0.692877        18.8541 
 231   0.0000       0.702825        19.1249 
 232   0.0000       0.707509        19.2523 
 233   0.0000       0.709884        19.3169 
 234   0.0000       0.718615        19.5545 
 235   0.0000       0.721144        19.6233 
 236   0.0000       0.730932        19.8897 
 237   0.0000       0.736831        20.0502 
 238   0.0000       0.743534        20.2326 
 239   0.0000       0.749962        20.4075 
 240   0.0000       0.753397        20.5010 
 241   0.0000       0.757651        20.6167 
 242   0.0000       0.763626        20.7793 
 243   0.0000       0.769533        20.9400 
 244   0.0000       0.773308        21.0428 
 245   0.0000       0.782739        21.2994 
 246   0.0000       0.786788        21.4096 
 247   0.0000       0.792203        21.5569 
 248   0.0000       0.796361        21.6701 
 249   0.0000       0.805224        21.9113 
 250   0.0000       0.811960        22.0946 
 251   0.0000       0.813168        22.1274 
 252   0.0000       0.823162        22.3994 
 253   0.0000       0.829496        22.5717 
 254   0.0000       0.833924        22.6922 
 255   0.0000       0.840442        22.8696 
 256   0.0000       0.846221        23.0269 
 257   0.0000       0.852990        23.2110 
 258   0.0000       0.857516        23.3342 
 259   0.0000       0.867571        23.6078 
 260   0.0000       0.868785        23.6408 
 261   0.0000       0.873479        23.7686 
 262   0.0000       0.885554        24.0971 
 263   0.0000       0.893060        24.3014 
 264   0.0000       0.895841        24.3771 
 265   0.0000       0.906516        24.6676 
 266   0.0000       0.909901        24.7597 
 267   0.0000       0.915058        24.9000 
 268   0.0000       0.932094        25.3636 
 269   0.0000       0.937278        25.5046 
 270   0.0000       0.940944        25.6044 
 271   0.0000       0.952250        25.9120 
 272   0.0000       0.963448        26.2168 
 273   0.0000       0.966963        26.3124 
 274   0.0000       0.970625        26.4121 
 275   0.0000       0.979523        26.6542 
 276   0.0000       0.993411        27.0321 
 277   0.0000       0.999542        27.1989 
 278   0.0000       1.005901        27.3720 
 279   0.0000       1.019786        27.7498 
 280   0.0000       1.029484        28.0137 
 281   0.0000       1.036266        28.1982 
 282   0.0000       1.037748        28.2386 
 283   0.0000       1.042043        28.3554 
 284   0.0000       1.061526        28.8856 
 285   0.0000       1.067268        29.0418 
 286   0.0000       1.079943        29.3868 
 287   0.0000       1.080750        29.4087 
 288   0.0000       1.087009        29.5790 
 289   0.0000       1.098472        29.8910 
 290   0.0000       1.105168        30.0731 
 291   0.0000       1.115976        30.3673 
 292   0.0000       1.126375        30.6502 
 293   0.0000       1.134155        30.8619 
 294   0.0000       1.146885        31.2083 
 295   0.0000       1.149018        31.2664 
 296   0.0000       1.161156        31.5967 
 297   0.0000       1.169687        31.8288 
 298   0.0000       1.173668        31.9371 
 299   0.0000       1.185171        32.2501 
 300   0.0000       1.196523        32.5590 
 301   0.0000       1.198802        32.6211 
 302   0.0000       1.208440        32.8833 
 303   0.0000       1.210746        32.9461 
 304   0.0000       1.218051        33.1449 
 305   0.0000       1.239027        33.7156 
 306   0.0000       1.245132        33.8818 
 307   0.0000       1.250472        34.0271 
 308   0.0000       1.255497        34.1638 
 309   0.0000       1.276840        34.7446 
 310   0.0000       1.281557        34.8729 
 311   0.0000       1.289880        35.0994 
 312   0.0000       1.302155        35.4334 
 313   0.0000       1.304783        35.5049 
 314   0.0000       1.308618        35.6093 
 315   0.0000       1.317830        35.8600 
 316   0.0000       1.324025        36.0285 
 317   0.0000       1.328555        36.1518 
 318   0.0000       1.330133        36.1948 
 319   0.0000       1.338048        36.4101 
 320   0.0000       1.349800        36.7299 
 321   0.0000       1.354642        36.8617 
 322   0.0000       1.365347        37.1530 
 323   0.0000       1.371420        37.3182 
 324   0.0000       1.377654        37.4879 
 325   0.0000       1.393024        37.9061 
 326   0.0000       1.407805        38.3083 
 327   0.0000       1.415056        38.5056 
 328   0.0000       1.430933        38.9377 
 329   0.0000       1.434546        39.0360 
 330   0.0000       1.440698        39.2034 
 331   0.0000       1.444958        39.3193 
 332   0.0000       1.454971        39.5918 
 333   0.0000       1.467221        39.9251 
 334   0.0000       1.484584        40.3976 
 335   0.0000       1.494376        40.6640 
 336   0.0000       1.504086        40.9283 
 337   0.0000       1.524699        41.4892 
 338   0.0000       1.533741        41.7352 
 339   0.0000       1.543977        42.0138 
 340   0.0000       1.550906        42.2023 
 341   0.0000       1.555779        42.3349 
 342   0.0000       1.566879        42.6369 
 343   0.0000       1.589307        43.2473 
 344   0.0000       1.609979        43.8098 
 345   0.0000       1.620536        44.0970 
 346   0.0000       1.636653        44.5356 
 347   0.0000       1.643055        44.7098 
 348   0.0000       1.647665        44.8352 
 349   0.0000       1.673894        45.5490 
 350   0.0000       1.686000        45.8784 
 351   0.0000       1.697802        46.1995 
 352   0.0000       1.709113        46.5073 
 353   0.0000       1.714836        46.6631 
 354   0.0000       1.723065        46.8870 
 355   0.0000       1.731093        47.1054 
 356   0.0000       1.739932        47.3459 
 357   0.0000       1.741381        47.3854 
 358   0.0000       1.756331        47.7922 
 359   0.0000       1.762350        47.9560 
 360   0.0000       1.763484        47.9868 
 361   0.0000       1.775730        48.3201 
 362   0.0000       1.779070        48.4109 
 363   0.0000       1.795589        48.8605 
 364   0.0000       1.805710        49.1359 
 365   0.0000       1.817307        49.4514 
 366   0.0000       1.819035        49.4985 
 367   0.0000       1.829613        49.7863 
 368   0.0000       1.837928        50.0126 
 369   0.0000       1.839371        50.0518 
 370   0.0000       1.847849        50.2825 
 371   0.0000       1.853348        50.4322 
 372   0.0000       1.860660        50.6311 
 373   0.0000       1.862844        50.6906 
 374   0.0000       1.870964        50.9115 
 375   0.0000       1.875239        51.0278 
 376   0.0000       1.884869        51.2899 
 377   0.0000       1.889408        51.4134 
 378   0.0000       1.895905        51.5902 
 379   0.0000       1.905263        51.8448 
 380   0.0000       1.914640        52.1000 
 381   0.0000       1.933017        52.6001 
 382   0.0000       1.934131        52.6304 
 383   0.0000       1.938603        52.7521 
 384   0.0000       1.957202        53.2582 
 385   0.0000       1.962016        53.3892 
 386   0.0000       1.972450        53.6731 
 387   0.0000       1.988388        54.1068 
 388   0.0000       2.024673        55.0941 
 389   0.0000       2.032749        55.3139 
 390   0.0000       2.041111        55.5414 
 391   0.0000       2.050626        55.8004 
 392   0.0000       2.054722        55.9118 
 393   0.0000       2.058852        56.0242 
 394   0.0000       2.065030        56.1923 
 395   0.0000       2.084474        56.7214 
 396   0.0000       2.094620        56.9975 
 397   0.0000       2.103823        57.2479 
 398   0.0000       2.108218        57.3675 
 399   0.0000       2.115844        57.5750 
 400   0.0000       2.119364        57.6708 
 401   0.0000       2.130668        57.9784 
 402   0.0000       2.131216        57.9933 
 403   0.0000       2.140151        58.2365 
 404   0.0000       2.150709        58.5238 
 405   0.0000       2.153769        58.6070 
 406   0.0000       2.160109        58.7796 
 407   0.0000       2.171322        59.0847 
 408   0.0000       2.188773        59.5595 
 409   0.0000       2.203619        59.9635 
 410   0.0000       2.206996        60.0554 
 411   0.0000       2.213756        60.2394 
 412   0.0000       2.215473        60.2861 
 413   0.0000       2.227424        60.6113 
 414   0.0000       2.251134        61.2565 
 415   0.0000       2.259650        61.4882 
 416   0.0000       2.262013        61.5525 
 417   0.0000       2.269867        61.7662 
 418   0.0000       2.279063        62.0165 
 419   0.0000       2.283145        62.1275 
 420   0.0000       2.286236        62.2116 
 421   0.0000       2.299239        62.5655 
 422   0.0000       2.299822        62.5813 
 423   0.0000       2.311113        62.8886 
 424   0.0000       2.324873        63.2630 
 425   0.0000       2.337246        63.5997 
 426   0.0000       2.343604        63.7727 
 427   0.0000       2.352491        64.0145 
 428   0.0000       2.363396        64.3113 
 429   0.0000       2.378153        64.7128 
 430   0.0000       2.379911        64.7607 
 431   0.0000       2.383934        64.8701 
 432   0.0000       2.389613        65.0247 
 433   0.0000       2.391916        65.0873 
 434   0.0000       2.396801        65.2203 
 435   0.0000       2.401011        65.3348 
 436   0.0000       2.409806        65.5741 
 437   0.0000       2.415086        65.7178 
 438   0.0000       2.418083        65.7994 
 439   0.0000       2.434324        66.2413 
 440   0.0000       2.441141        66.4268 
 441   0.0000       2.445998        66.5590 
 442   0.0000       2.454913        66.8016 
 443   0.0000       2.462992        67.0214 
 444   0.0000       2.476886        67.3995 
 445   0.0000       2.484385        67.6035 
 446   0.0000       2.496271        67.9270 
 447   0.0000       2.511558        68.3430 
 448   0.0000       2.532079        68.9014 
 449   0.0000       2.541875        69.1679 
 450   0.0000       2.547329        69.3164 
 451   0.0000       2.556285        69.5601 
 452   0.0000       2.564087        69.7724 
 453   0.0000       2.567302        69.8598 
 454   0.0000       2.581819        70.2549 
 455   0.0000       2.592138        70.5357 
 456   0.0000       2.595126        70.6170 
 457   0.0000       2.598471        70.7080 
 458   0.0000       2.611942        71.0746 
 459   0.0000       2.618383        71.2498 
 460   0.0000       2.622256        71.3552 
 461   0.0000       2.642095        71.8951 
 462   0.0000       2.643780        71.9409 
 463   0.0000       2.650571        72.1257 
 464   0.0000       2.660011        72.3826 
 465   0.0000       2.661723        72.4292 
 466   0.0000       2.673881        72.7600 
 467   0.0000       2.676472        72.8305 
 468   0.0000       2.681171        72.9584 
 469   0.0000       2.690855        73.2219 
 470   0.0000       2.696849        73.3850 
 471   0.0000       2.700607        73.4873 
 472   0.0000       2.705617        73.6236 
 473   0.0000       2.714897        73.8761 
 474   0.0000       2.722745        74.0897 
 475   0.0000       2.726359        74.1880 
 476   0.0000       2.726622        74.1952 
 477   0.0000       2.739858        74.5553 
 478   0.0000       2.740464        74.5718 
 479   0.0000       2.746862        74.7459 
 480   0.0000       2.755798        74.9891 
 481   0.0000       2.759033        75.0771 
 482   0.0000       2.767933        75.3193 
 483   0.0000       2.775096        75.5142 
 484   0.0000       2.780931        75.6730 
 485   0.0000       2.785068        75.7855 
 486   0.0000       2.787894        75.8625 
 487   0.0000       2.792424        75.9857 
 488   0.0000       2.805432        76.3397 
 489   0.0000       2.810188        76.4691 
 490   0.0000       2.820449        76.7483 
 491   0.0000       2.822773        76.8116 
 492   0.0000       2.825937        76.8977 
 493   0.0000       2.835891        77.1685 
 494   0.0000       2.849943        77.5509 
 495   0.0000       2.856378        77.7260 
 496   0.0000       2.865240        77.9671 
 497   0.0000       2.870078        78.0988 
 498   0.0000       2.882356        78.4329 
 499   0.0000       2.889785        78.6351 
 500   0.0000       2.895544        78.7918 
 501   0.0000       2.897963        78.8576 
 502   0.0000       2.904416        79.0332 
 503   0.0000       2.919018        79.4305 
 504   0.0000       2.933739        79.8311 
 505   0.0000       2.937067        79.9217 
 506   0.0000       2.943366        80.0931 
 507   0.0000       2.948074        80.2212 
 508   0.0000       2.962879        80.6240 
 509   0.0000       2.976345        80.9905 
 510   0.0000       2.979156        81.0670 
 511   0.0000       2.993623        81.4606 
 512   0.0000       2.999614        81.6237 
 513   0.0000       3.005784        81.7915 
 514   0.0000       3.010015        81.9067 
 515   0.0000       3.013177        81.9927 
 516   0.0000       3.017716        82.1162 
 517   0.0000       3.025378        82.3247 
 518   0.0000       3.032810        82.5269 
 519   0.0000       3.040635        82.7399 
 520   0.0000       3.045994        82.8857 
 521   0.0000       3.051873        83.0457 
 522   0.0000       3.064035        83.3766 
 523   0.0000       3.068131        83.4881 
 524   0.0000       3.074333        83.6569 
 525   0.0000       3.084997        83.9470 
 526   0.0000       3.097527        84.2880 
 527   0.0000       3.108143        84.5769 
 528   0.0000       3.117915        84.8428 
 529   0.0000       3.125311        85.0440 
 530   0.0000       3.128981        85.1439 
 531   0.0000       3.139328        85.4255 
 532   0.0000       3.153143        85.8014 
 533   0.0000       3.179024        86.5056 
 534   0.0000       3.196137        86.9713 
 535   0.0000       3.208329        87.3031 
 536   0.0000       3.227641        87.8286 
 537   0.0000       3.236346        88.0655 
 538   0.0000       3.257375        88.6377 
 539   0.0000       3.267357        88.9093 
 540   0.0000       3.276704        89.1636 
 541   0.0000       3.285361        89.3992 
 542   0.0000       3.289228        89.5044 
 543   0.0000       3.298773        89.7642 
 544   0.0000       3.312734        90.1441 
 545   0.0000       3.319510        90.3285 
 546   0.0000       3.330280        90.6215 
 547   0.0000       3.347183        91.0815 
 548   0.0000       3.354937        91.2925 
 549   0.0000       3.369209        91.6808 
 550   0.0000       3.376964        91.8919 
 551   0.0000       3.414086        92.9020 
 552   0.0000       3.422348        93.1268 
 553   0.0000       3.469837        94.4191 
 554   0.0000       3.486809        94.8809 
 555   0.0000       3.504394        95.3594 
 556   0.0000       3.515042        95.6492 
 557   0.0000       3.516709        95.6945 
 558   0.0000       3.529350        96.0385 
 559   0.0000       3.530149        96.0602 
 560   0.0000       3.539064        96.3028 
 561   0.0000       3.554433        96.7210 
 562   0.0000       3.570045        97.1459 
 563   0.0000       3.581558        97.4591 
 564   0.0000       3.587866        97.6308 
 565   0.0000       3.608701        98.1977 
 566   0.0000       3.621236        98.5389 
 567   0.0000       3.630971        98.8037 
 568   0.0000       3.638126        98.9984 
 569   0.0000       3.646127        99.2162 
 570   0.0000       3.651974        99.3753 
 571   0.0000       3.665240        99.7362 
 572   0.0000       3.684233       100.2531 
 573   0.0000       3.743147       101.8562 
 574   0.0000       3.774485       102.7090 
 575   0.0000       3.806293       103.5745 
 576   0.0000       3.836613       104.3996 
 577   0.0000       3.926784       106.8532 
 578   0.0000       3.951067       107.5140 
 579   0.0000       3.958380       107.7130 
 580   0.0000       3.999136       108.8220 
 581   0.0000       4.005862       109.0051 
 582   0.0000       4.011700       109.1639 
 583   0.0000       4.123389       112.2031 
 584   0.0000       4.147134       112.8492 
 585   0.0000       4.184250       113.8592 
 586   0.0000       4.236987       115.2943 
 587   0.0000       4.284310       116.5820 
 588   0.0000       4.327888       117.7678 
 589   0.0000       4.345136       118.2372 
 590   0.0000       4.450084       121.0930 
 591   0.0000       4.475673       121.7893 
 592   0.0000       4.487104       122.1003 
 593   0.0000       4.599311       125.1536 
 594   0.0000       4.615565       125.5959 
 595   0.0000      21.940161       597.0221 
 596   0.0000      21.972784       597.9098 
 597   0.0000      22.001992       598.7046 
 598   0.0000      22.070042       600.5564 
 599   0.0000      22.089483       601.0854 
 600   0.0000      22.138006       602.4058 
 601   0.0000      22.185563       603.6999 
 602   0.0000      22.189042       603.7945 
 603   0.0000      22.272577       606.0676 
 604   0.0000      22.311365       607.1231 
 605   0.0000      22.338662       607.8659 
 606   0.0000      22.399314       609.5163 
 607   0.0000      22.412628       609.8786 
 608   0.0000      22.499171       612.2336 
 609   0.0000      31.942271       869.1934 
 610   0.0000      31.987843       870.4335 
 611   0.0000      32.141235       874.6075 
 612   0.0000      32.220826       876.7732 
 613   0.0000      32.250784       877.5885 
 614   0.0000      43.605148      1186.5564 
 615   0.0000      43.722885      1189.7602 
 616   0.0000      43.751172      1190.5299 
 617   0.0000      43.810158      1192.1350 
 618   0.0000      43.833085      1192.7589 
 619   0.0000      43.943257      1195.7568 

                    ********************************
                    * MULLIKEN POPULATION ANALYSIS *
                    ********************************

-----------------------
MULLIKEN ATOMIC CHARGES
-----------------------
   0 C :   -0.303865
   1 O :   -0.165735
   2 C :    0.177050
   3 O :   -0.437132
   4 C :    0.146012
   5 C :    0.074494
   6 O :   -0.340684
   7 C :    0.284534
   8 O :   -0.443694
   9 N :    0.395598
  10 C :   -0.453236
  11 C :   -0.181874
  12 C :   -0.037971
  13 C :   -0.595080
  14 C :   -0.438645
  15 N :   -0.214092
  16 C :   -0.035715
  17 O :   -0.400493
  18 C :    0.392820
  19 N :   -0.143664
  20 N :   -0.283388
  21 C :    0.413855
  22 C :   -0.628539
  23 O :   -0.051812
  24 N :    0.159624
  25 H :    0.184907
  26 H :    0.185042
  27 H :    0.186513
  28 H :    0.377660
  29 H :    0.343918
  30 H :    0.231476
  31 H :    0.215010
  32 H :    0.212364
  33 H :    0.208091
  34 H :    0.208905
  35 H :    0.204067
  36 H :    0.210218
  37 H :    0.202701
  38 H :    0.193664
  39 H :    0.332131
  40 H :    0.207190
  41 H :    0.201377
  42 H :    0.206397
Sum of atomic charges:    1.0000000

--------------------------------
MULLIKEN REDUCED ORBITAL CHARGES
--------------------------------
  0 C s       :     3.340262  s :     3.340262
      pz      :     0.902697  p :     2.920563
      px      :     0.911658
      py      :     1.106207
      dz2     :     0.005086  d :     0.043040
      dxz     :     0.013812
      dyz     :     0.010930
      dx2y2   :     0.007620
      dxy     :     0.005592
  1 O s       :     3.700806  s :     3.700806
      pz      :     1.582471  p :     4.415684
      px      :     1.167306
      py      :     1.665907
      dz2     :     0.019214  d :     0.049245
      dxz     :     0.011222
      dyz     :     0.010120
      dx2y2   :     0.003352
      dxy     :     0.005337
  2 C s       :     3.159832  s :     3.159832
      pz      :     0.848615  p :     2.530902
      px      :     0.881816
      py      :     0.800471
      dz2     :     0.030691  d :     0.132215
      dxz     :     0.046107
      dyz     :     0.023061
      dx2y2   :     0.015696
      dxy     :     0.016661
  3 O s       :     3.846957  s :     3.846957
      pz      :     1.340868  p :     4.562376
      px      :     1.730681
      py      :     1.490826
      dz2     :     0.010577  d :     0.027799
      dxz     :     0.004392
      dyz     :     0.009147
      dx2y2   :     0.001745
      dxy     :     0.001937
  4 C s       :     3.264108  s :     3.264108
      pz      :     0.610357  p :     2.532884
      px      :     0.902601
      py      :     1.019926
      dz2     :     0.014569  d :     0.056995
      dxz     :     0.016726
      dyz     :     0.008038
      dx2y2   :     0.008990
      dxy     :     0.008672
  5 C s       :     3.234989  s :     3.234989
      pz      :     0.901812  p :     2.612103
      px      :     0.785530
      py      :     0.924761
      dz2     :     0.017411  d :     0.078415
      dxz     :     0.023555
      dyz     :     0.011829
      dx2y2   :     0.012591
      dxy     :     0.013029
  6 O s       :     3.747478  s :     3.747478
      pz      :     1.360915  p :     4.563025
      px      :     1.457554
      py      :     1.744556
      dz2     :     0.005683  d :     0.030182
      dxz     :     0.008226
      dyz     :     0.004206
      dx2y2   :     0.006271
      dxy     :     0.005797
  7 C s       :     3.085425  s :     3.085425
      pz      :     0.771085  p :     2.518575
      px      :     0.926843
      py      :     0.820646
      dz2     :     0.022303  d :     0.111466
      dxz     :     0.047538
      dyz     :     0.025402
      dx2y2   :     0.008253
      dxy     :     0.007970
  8 O s       :     3.860229  s :     3.860229
      pz      :     1.288653  p :     4.549648
      px      :     1.772479
      py      :     1.488516
      dz2     :     0.015854  d :     0.033817
      dxz     :     0.002960
      dyz     :     0.009655
      dx2y2   :     0.003016
      dxy     :     0.002332
  9 N s       :     3.029412  s :     3.029412
      pz      :     0.891390  p :     3.345122
      px      :     1.008575
      py      :     1.445157
      dz2     :     0.068459  d :     0.229868
      dxz     :     0.068727
      dyz     :     0.042915
      dx2y2   :     0.027913
      dxy     :     0.021854
[...]
      dyz     :     0.027336
      dx2y2   :     0.017309
      dxy     :     0.011975
  1 O s       :     3.455959  s :     3.455959
      pz      :     1.605705  p :     4.622364
      px      :     1.361324
      py      :     1.655335
      dz2     :     0.095517  d :     0.468053
      dxz     :     0.122829
      dyz     :     0.066223
      dx2y2   :     0.095457
      dxy     :     0.088027
  2 C s       :     2.708510  s :     2.708510
      pz      :     0.967521  p :     2.599041
      px      :     0.881703
      py      :     0.749817
      dz2     :     0.070916  d :     0.283017
      dxz     :     0.101226
      dyz     :     0.043459
      dx2y2   :     0.033424
      dxy     :     0.033992
  3 O s       :     3.539271  s :     3.539271
      pz      :     1.508279  p :     4.645030
      px      :     1.668670
      py      :     1.468081
      dz2     :     0.079555  d :     0.225259
      dxz     :     0.065851
      dyz     :     0.045332
      dx2y2   :     0.018986
      dxy     :     0.015535
  4 C s       :     2.763347  s :     2.763347
      pz      :     0.993544  p :     2.869170
      px      :     0.924472
      py      :     0.951154
      dz2     :     0.031522  d :     0.118546
      dxz     :     0.036605
      dyz     :     0.015280
      dx2y2   :     0.018240
      dxy     :     0.016899
  5 C s       :     2.757794  s :     2.757794
      pz      :     0.987608  p :     2.776700
      px      :     0.905852
      py      :     0.883240
      dz2     :     0.037390  d :     0.164366
      dxz     :     0.050853
      dyz     :     0.022530
      dx2y2   :     0.027563
      dxy     :     0.026031
  6 O s       :     3.460285  s :     3.460285
      pz      :     1.393249  p :     4.667666
      px      :     1.554728
      py      :     1.719689
      dz2     :     0.075157  d :     0.273241
      dxz     :     0.070155
      dyz     :     0.027103
      dx2y2   :     0.051556
      dxy     :     0.049270
  7 C s       :     2.706857  s :     2.706857
      pz      :     0.972831  p :     2.649527
      px      :     0.903480
      py      :     0.773216
      dz2     :     0.055675  d :     0.239983
      dxz     :     0.103494
      dyz     :     0.048111
      dx2y2   :     0.017088
      dxy     :     0.015615
  8 O s       :     3.538482  s :     3.538482
      pz      :     1.476028  p :     4.642370
      px      :     1.702499
      py      :     1.463843
      dz2     :     0.088224  d :     0.240767
      dxz     :     0.069295
      dyz     :     0.050697
      dx2y2   :     0.020062
      dxy     :     0.012490
  9 N s       :     3.066987  s :     3.066987
      pz      :     1.179756  p :     3.813432
      px      :     1.231102
      py      :     1.402573
      dz2     :     0.179285  d :     0.714215
      dxz     :     0.204001
      dyz     :     0.129508
      dx2y2   :     0.104971
      dxy     :     0.096450
 10 C s       :     2.877380  s :     2.877380
      pz      :     0.988332  p :     3.096951
      px      :     0.993123
      py      :     1.115496
      dz2     :     0.005436  d :     0.082703
      dxz     :     0.027948
      dyz     :     0.023501
      dx2y2   :     0.019160
      dxy     :     0.006658
 11 C s       :     2.708481  s :     2.708481
      pz      :     0.942558  p :     2.673606
      px      :     0.950811
      py      :     0.780237
      dz2     :     0.047535  d :     0.167457
      dxz     :     0.050881
      dyz     :     0.031336
      dx2y2   :     0.017321
      dxy     :     0.020384
 12 C s       :     2.782060  s :     2.782060
      pz      :     1.037113  p :     2.971256
      px      :     0.909548
      py      :     1.024595
      dz2     :     0.031651  d :     0.135709
      dxz     :     0.028473
      dyz     :     0.020256
      dx2y2   :     0.024203
      dxy     :     0.031126
 13 C s       :     2.957949  s :     2.957949
      pz      :     0.998123  p :     3.312901
      px      :     1.160926
      py      :     1.153851
      dz2     :     0.019848  d :     0.060563
      dxz     :     0.009966
      dyz     :     0.009397
      dx2y2   :     0.011536
      dxy     :     0.009816
 14 C s       :     2.955187  s :     2.955187
      pz      :     1.154555  p :     3.309665
      px      :     1.158103
      py      :     0.997007
      dz2     :     0.017116  d :     0.060146
      dxz     :     0.007705
      dyz     :     0.008360
      dx2y2   :     0.014270
      dxy     :     0.012695
 15 N s       :     3.107914  s :     3.107914
      pz      :     1.533088  p :     3.940636
      px      :     1.208887
      py      :     1.198661
      dz2     :     0.093328  d :     0.543342
      dxz     :     0.070570
      dyz     :     0.080464
      dx2y2   :     0.151063
      dxy     :     0.147917
 16 C s       :     2.708675  s :     2.708675
      pz      :     0.753789  p :     2.646526
      px      :     0.950809
      py      :     0.941929
      dz2     :     0.015331  d :     0.247260
      dxz     :     0.032994
      dyz     :     0.032412
      dx2y2   :     0.092217
      dxy     :     0.074306
 17 O s       :     3.533860  s :     3.533860
      pz      :     1.480533  p :     4.641735
      px      :     1.491326
      py      :     1.669875
      dz2     :     0.032623  d :     0.248389
      dxz     :     0.045026
      dyz     :     0.023094
      dx2y2   :     0.070117
      dxy     :     0.077529
 18 C s       :     2.716855  s :     2.716855
      pz      :     0.859423  p :     2.690247
      px      :     0.864077
      py      :     0.966747
      dz2     :     0.014717  d :     0.179856
      dxz     :     0.016591
      dyz     :     0.024419
      dx2y2   :     0.054453
      dxy     :     0.069677
 19 N s       :     3.176215  s :     3.176215
      pz      :     1.080334  p :     3.606757
      px      :     1.228261
      py      :     1.298162
      dz2     :     0.054941  d :     0.538658
      dxz     :     0.099643
      dyz     :     0.066802
      dx2y2   :     0.147509
      dxy     :     0.169763
 20 N s       :     3.179793  s :     3.179793
      pz      :     1.135115  p :     3.648409
      px      :     1.126520
      py      :     1.386774
      dz2     :     0.055656  d :     0.522156
      dxz     :     0.105397
      dyz     :     0.042458
      dx2y2   :     0.155066
      dxy     :     0.163580
 21 C s       :     2.734581  s :     2.734581
      pz      :     0.786442  p :     2.689082
      px      :     0.975148
      py      :     0.927492
      dz2     :     0.014300  d :     0.188780
      dxz     :     0.017274
      dyz     :     0.029009
      dx2y2   :     0.053722
      dxy     :     0.074474
 22 C s       :     2.945732  s :     2.945732
      pz      :     1.155873  p :     3.310243
      px      :     0.999526
      py      :     1.154843
      dz2     :     0.012157  d :     0.058766
      dxz     :     0.006766
      dyz     :     0.012934
      dx2y2   :     0.015188
      dxy     :     0.011721
 23 O s       :     3.433166  s :     3.433166
      pz      :     1.608716  p :     4.496849
      px      :     1.314317
      py      :     1.573817
      dz2     :     0.053743  d :     0.454782
      dxz     :     0.097808
      dyz     :     0.045247
      dx2y2   :     0.122717
      dxy     :     0.135267
 24 N s       :     3.050669  s :     3.050669
      pz      :     1.225838  p :     3.840352
      px      :     1.207372
      py      :     1.407141
      dz2     :     0.136483  d :     0.582344
      dxz     :     0.148069
      dyz     :     0.047319
      dx2y2   :     0.122335
      dxy     :     0.128138
 25 H s       :     0.769943  s :     0.769943
      pz      :     0.012002  p :     0.041830
      px      :     0.006714
      py      :     0.023114
 26 H s       :     0.769845  s :     0.769845
      pz      :     0.014595  p :     0.041832
      px      :     0.008820
      py      :     0.018418
 27 H s       :     0.766996  s :     0.766996
      pz      :     0.010563  p :     0.041003
      px      :     0.020740
      py      :     0.009700
 28 H s       :     0.559300  s :     0.559300
      pz      :     0.072878  p :     0.120545
      px      :     0.021248
      py      :     0.026419
 29 H s       :     0.582207  s :     0.582207
      pz      :     0.061667  p :     0.089804
      px      :     0.010581
      py      :     0.017555
 30 H s       :     0.732938  s :     0.732938
      pz      :     0.014211  p :     0.049101
      px      :     0.026165
      py      :     0.008726
 31 H s       :     0.747794  s :     0.747794
      pz      :     0.012217  p :     0.042219
      px      :     0.008072
      py      :     0.021930
 32 H s       :     0.742763  s :     0.742763
      pz      :     0.014471  p :     0.042626
      px      :     0.006568
      py      :     0.021588
 33 H s       :     0.771053  s :     0.771053
      pz      :     0.008940  p :     0.045215
      px      :     0.008860
      py      :     0.027414
 34 H s       :     0.766290  s :     0.766290
      pz      :     0.009757  p :     0.044289
      px      :     0.025309
      py      :     0.009223
 35 H s       :     0.775238  s :     0.775238
      pz      :     0.011246  p :     0.045309
      px      :     0.017697
      py      :     0.016366
 36 H s       :     0.770673  s :     0.770673
      pz      :     0.010456  p :     0.044762
      px      :     0.020580
      py      :     0.013726
 37 H s       :     0.770982  s :     0.770982
      pz      :     0.012117  p :     0.044621
      px      :     0.023018
      py      :     0.009486
 38 H s       :     0.774627  s :     0.774627
      pz      :     0.029233  p :     0.045515
      px      :     0.008394
      py      :     0.007888
 39 H s       :     0.603235  s :     0.603235
      pz      :     0.021947  p :     0.089123
      px      :     0.049615
      py      :     0.017561
 40 H s       :     0.762932  s :     0.762932
      pz      :     0.007872  p :     0.044354
      px      :     0.012757
      py      :     0.023725
 41 H s       :     0.762620  s :     0.762620
      pz      :     0.020511  p :     0.044705
      px      :     0.008601
      py      :     0.015594
 42 H s       :     0.760192  s :     0.760192
      pz      :     0.023999  p :     0.044832
      px      :     0.007545
      py      :     0.013288


                      *****************************
                      * MAYER POPULATION ANALYSIS *
                      *****************************

  NA   - Mulliken gross atomic population
  ZA   - Total nuclear charge
  QA   - Mulliken gross atomic charge
  VA   - Mayer's total valence
  BVA  - Mayer's bonded valence
  FA   - Mayer's free valence

  ATOM       NA         ZA         QA         VA         BVA        FA
  0 C      6.3039     6.0000    -0.3039     3.7262     3.7262     0.0000
  1 O      8.1657     8.0000    -0.1657     2.1182     2.1182    -0.0000
  2 C      5.8229     6.0000     0.1771     4.0647     4.0647     0.0000
  3 O      8.4371     8.0000    -0.4371     2.0131     2.0131     0.0000
  4 C      5.8540     6.0000     0.1460     3.6058     3.6058     0.0000
  5 C      5.9255     6.0000     0.0745     3.5331     3.5331     0.0000
  6 O      8.3407     8.0000    -0.3407     2.0813     2.0813    -0.0000
  7 C      5.7155     6.0000     0.2845     3.8640     3.8640     0.0000
  8 O      8.4437     8.0000    -0.4437     2.0824     2.0824    -0.0000
  9 N      6.6044     7.0000     0.3956     3.4816     3.4816     0.0000
 10 C      6.4532     6.0000    -0.4532     3.7441     3.7441     0.0000
 11 C      6.1819     6.0000    -0.1819     3.8135     3.8135     0.0000
 12 C      6.0380     6.0000    -0.0380     3.7360     3.7360     0.0000
 13 C      6.5951     6.0000    -0.5951     3.7200     3.7200    -0.0000
 14 C      6.4386     6.0000    -0.4386     3.7124     3.7124    -0.0000
 15 N      7.2141     7.0000    -0.2141     2.8886     2.8886     0.0000
 16 C      6.0357     6.0000    -0.0357     3.8860     3.8860     0.0000
 17 O      8.4005     8.0000    -0.4005     1.9867     1.9867     0.0000
 18 C      5.6072     6.0000     0.3928     3.9042     3.9042    -0.0000
 19 N      7.1437     7.0000    -0.1437     3.1591     3.1591     0.0000
 20 N      7.2834     7.0000    -0.2834     3.0839     3.0839     0.0000
 21 C      5.5861     6.0000     0.4139     3.5620     3.5620    -0.0000
 22 C      6.6285     6.0000    -0.6285     3.7910     3.7910     0.0000
 23 O      8.0518     8.0000    -0.0518     2.3246     2.3246     0.0000
 24 N      6.8404     7.0000     0.1596     3.4894     3.4894     0.0000
 25 H      0.8151     1.0000     0.1849     0.9472     0.9472     0.0000
 26 H      0.8150     1.0000     0.1850     0.9472     0.9472     0.0000
 27 H      0.8135     1.0000     0.1865     0.9490     0.9490    -0.0000
 28 H      0.6223     1.0000     0.3777     0.8713     0.8713     0.0000
 29 H      0.6561     1.0000     0.3439     0.8758     0.8758    -0.0000
 30 H      0.7685     1.0000     0.2315     0.9291     0.9291     0.0000
 31 H      0.7850     1.0000     0.2150     0.9353     0.9353    -0.0000
 32 H      0.7876     1.0000     0.2124     0.9375     0.9375     0.0000
 33 H      0.7919     1.0000     0.2081     0.9422     0.9422    -0.0000
 34 H      0.7911     1.0000     0.2089     0.9447     0.9447    -0.0000
 35 H      0.7959     1.0000     0.2041     0.9444     0.9444    -0.0000
 36 H      0.7898     1.0000     0.2102     0.9470     0.9470     0.0000
 37 H      0.7973     1.0000     0.2027     0.9482     0.9482    -0.0000
 38 H      0.8063     1.0000     0.1937     0.9512     0.9512     0.0000
 39 H      0.6679     1.0000     0.3321     0.8896     0.8896     0.0000
 40 H      0.7928     1.0000     0.2072     0.9470     0.9470     0.0000
 41 H      0.7986     1.0000     0.2014     0.9447     0.9447     0.0000
 42 H      0.7936     1.0000     0.2064     0.9422     0.9422     0.0000

  Mayer bond orders larger than 0.100000
B(  0-C ,  1-O ) :   0.8171 B(  0-C , 25-H ) :   0.9506 B(  0-C , 26-H ) :   0.9504 
B(  0-C , 27-H ) :   0.9594 B(  1-O ,  2-C ) :   1.2481 B(  2-C ,  3-O ) :   1.8313 
B(  2-C ,  4-C ) :   1.0054 B(  4-C ,  5-C ) :   1.3838 B(  4-C , 24-N ) :   1.0456 
B(  5-C ,  6-O ) :   1.1032 B(  5-C ,  7-C ) :   0.9200 B(  6-O , 28-H ) :   0.8138 
B(  7-C ,  8-O ) :   1.8299 B(  7-C ,  9-N ) :   1.0246 B(  9-N , 10-C ) :   0.8169 
B(  9-N , 11-C ) :   1.3443 B(  9-N , 24-N ) :   0.1055 B( 10-C , 30-H ) :   0.9191 
B( 10-C , 31-H ) :   0.9252 B( 10-C , 32-H ) :   0.9235 B( 11-C , 12-C ) :   0.7674 
B( 11-C , 17-O ) :   0.2099 B( 11-C , 24-N ) :   1.3655 B( 12-C , 13-C ) :   0.9330 
B( 12-C , 14-C ) :   1.0122 B( 12-C , 15-N ) :   0.7107 B( 13-C , 33-H ) :   0.9450 
B( 13-C , 34-H ) :   0.9474 B( 13-C , 35-H ) :   0.9549 B( 14-C , 36-H ) :   0.9628 
B( 14-C , 37-H ) :   0.9555 B( 14-C , 38-H ) :   0.9141 B( 15-N , 16-C ) :   1.1606 
B( 15-N , 39-H ) :   0.8954 B( 16-C , 17-O ) :   1.7005 B( 16-C , 18-C ) :   0.8587 
B( 16-C , 20-N ) :   0.1355 B( 18-C , 19-N ) :   1.7436 B( 18-C , 21-C ) :   0.1438 
B( 18-C , 23-O ) :   1.0939 B( 19-N , 20-N ) :   1.2589 B( 20-N , 21-C ) :   1.5840 
B( 21-C , 22-C ) :   0.8200 B( 21-C , 23-O ) :   1.0672 B( 22-C , 40-H ) :   0.9878 
B( 22-C , 41-H ) :   0.9492 B( 22-C , 42-H ) :   0.9350 B( 24-N , 29-H ) :   0.8568 


-------
TIMINGS
-------

Total SCF time: 0 days 0 hours 2 min 26 sec 

Total time                  ....     146.670 sec
Sum of individual times     ....     144.385 sec  ( 98.4%)

Fock matrix formation       ....     133.413 sec  ( 91.0%)
  Split-RI-J                ....      19.915 sec  ( 14.9% of F)
  XC integration            ....      72.583 sec  ( 54.4% of F)
    Basis function eval.    ....      11.362 sec  ( 15.7% of XC)
    Density eval.           ....      30.998 sec  ( 42.7% of XC)
    XC-Functional eval.     ....       5.529 sec  (  7.6% of XC)
    XC-Potential eval.      ....      20.761 sec  ( 28.6% of XC)
Diagonalization             ....       1.558 sec  (  1.1%)
Density matrix formation    ....       0.109 sec  (  0.1%)
Population analysis         ....       0.186 sec  (  0.1%)
Initial guess               ....       2.435 sec  (  1.7%)
Orbital Transformation      ....       0.000 sec  (  0.0%)
Orbital Orthonormalization  ....       0.000 sec  (  0.0%)
DIIS solution               ....       0.747 sec  (  0.5%)
SOSCF solution              ....       1.032 sec  (  0.7%)
Grid generation             ....       4.905 sec  (  3.3%)

Maximum memory used throughout the entire SCF-calculation: 142.1 MB


-------------------------------------------------------------------------------
                          DFT DISPERSION CORRECTION                            
                                                                               
                                 DFTD4 V2.5                                    
-------------------------------------------------------------------------------
The R2SCAN3C composite method is recognized
Using three-body term ABC
Active option DFTDOPT                   ...         5   

Starting D4
-------------------------   ----------------
Dispersion correction           -0.019894888
-------------------------   ----------------

------------------   -----------------
gCP correction             0.042887162
------------------   -----------------

-------------------------   --------------------
FINAL SINGLE POINT ENERGY     -1269.103375216332
-------------------------   --------------------


                            ***************************************
                            *     ORCA property calculations      *
                            ***************************************

                                    ---------------------
                                    Active property flags
                                    ---------------------
   (+) Dipole Moment


------------------------------------------------------------------------------
                       ORCA ELECTRIC PROPERTIES CALCULATION
------------------------------------------------------------------------------

Dipole Moment Calculation                       ... on
Quadrupole Moment Calculation                   ... off
Polarizability Calculation                      ... off
GBWName                                         ... /lustre/hpc/kemi/ree/PhD/git/ReactivityQM/calculations/R02/reac01prodN18/conf16/gfn1/orca_calc.gbw
Electron density                                ... /lustre/hpc/kemi/ree/PhD/git/ReactivityQM/calculations/R02/reac01prodN18/conf16/gfn1/orca_calc.scfp
The origin for moment calculation is the CENTER OF MASS  = (-0.403166,  0.619528 -0.086468)

-------------
DIPOLE MOMENT
-------------
                                X             Y             Z
Electronic contribution:     -6.50356       8.82555      -5.36443
Nuclear contribution   :      7.50928     -13.43256       5.92244
                        -----------------------------------------
Total Dipole Moment    :      1.00571      -4.60700       0.55801
                        -----------------------------------------
Magnitude (a.u.)       :      4.74840
Magnitude (Debye)      :     12.06947



--------------------
Rotational spectrum 
--------------------
 
Rotational constants in cm-1:     0.014142     0.003802     0.003658 
Rotational constants in MHz :   423.969136   113.979226   109.657879 

 Dipole components along the rotational axes: 
x,y,z [a.u.] :    -0.158316    -0.222429     4.740545 
x,y,z [Debye]:    -0.402406    -0.565369    12.049507 

 

Timings for individual modules:

Sum of individual times         ...      148.561 sec (=   2.476 min)
GTO integral calculation        ...        1.523 sec (=   0.025 min)   1.0 %
SCF iterations                  ...      147.038 sec (=   2.451 min)  99.0 %
                             ****ORCA TERMINATED NORMALLY****
TOTAL RUN TIME: 0 days 0 hours 2 minutes 29 seconds 525 msec
