      -----------------------------------------------------------      
     |                   =====================                   |     
     |                           x T B                           |     
     |                   =====================                   |     
     |                         S. Grimme                         |     
     |          Mulliken Center for Theoretical Chemistry        |     
     |                    University of Bonn                     |     
      -----------------------------------------------------------      

   * xtb version 6.5.1 (579679a) compiled by 'ehlert@majestix' on 2022-07-11

   xtb is free software: you can redistribute it and/or modify it under
   the terms of the GNU Lesser General Public License as published by
   the Free Software Foundation, either version 3 of the License, or
   (at your option) any later version.
   
   xtb is distributed in the hope that it will be useful,
   but WITHOUT ANY WARRANTY; without even the implied warranty of
   MERCHANTABILITY or FITNESS FOR A PARTICULAR PURPOSE.  See the
   GNU Lesser General Public License for more details.
   
   Cite this work as:
   * C. Bannwarth, E. Caldeweyher, S. Ehlert, A. Hansen, P. Pracht,
     J. Seibert, S. Spicher, S. Grimme, WIREs Comput. Mol. Sci., 2020, 11,
     e01493. DOI: 10.1002/wcms.1493
   
   for GFN2-xTB:
   * C. Bannwarth, S. Ehlert and S. Grimme., J. Chem. Theory Comput., 2019,
     15, 1652-1671. DOI: 10.1021/acs.jctc.8b01176
   for GFN1-xTB:
   * S. Grimme, C. Bannwarth, P. Shushkov, J. Chem. Theory Comput., 2017,
     13, 1989-2009. DOI: 10.1021/acs.jctc.7b00118
   for GFN0-xTB:
   * P. Pracht, E. Caldeweyher, S. Ehlert, S. Grimme, ChemRxiv, 2019, preprint.
     DOI: 10.26434/chemrxiv.8326202.v1
   for GFN-FF:
   * S. Spicher and S. Grimme, Angew. Chem. Int. Ed., 2020, 59, 15665-15673.
     DOI: 10.1002/anie.202004239
   
   for ALPB and GBSA implicit solvation:
   * S. Ehlert, M. Stahn, S. Spicher, S. Grimme, J. Chem. Theory Comput.,
     2021, 17, 4250-4261. DOI: 10.1021/acs.jctc.1c00471
   
   for DFT-D4:
   * E. Caldeweyher, C. Bannwarth and S. Grimme, J. Chem. Phys., 2017,
     147, 034112. DOI: 10.1063/1.4993215
   * E. Caldeweyher, S. Ehlert, A. Hansen, H. Neugebauer, S. Spicher,
     C. Bannwarth and S. Grimme, J. Chem. Phys., 2019, 150, 154122.
     DOI: 10.1063/1.5090222
   * E. Caldeweyher, J.-M. Mewes, S. Ehlert and S. Grimme, Phys. Chem. Chem. Phys.
     2020, 22, 8499-8512. DOI: 10.1039/D0CP00502A
   
   for sTDA-xTB:
   * S. Grimme and C. Bannwarth, J. Chem. Phys., 2016, 145, 054103.
     DOI: 10.1063/1.4959605
   
   in the mass-spec context:
   * V. Asgeirsson, C. Bauer and S. Grimme, Chem. Sci., 2017, 8, 4879.
     DOI: 10.1039/c7sc00601b
   * J. Koopman and S. Grimme, ACS Omega 2019, 4, 12, 15120-15133.
     DOI: 10.1021/acsomega.9b02011
   
   for metadynamics refer to:
   * S. Grimme, J. Chem. Theory Comput., 2019, 155, 2847-2862
     DOI: 10.1021/acs.jctc.9b00143
   
   for SPH calculations refer to:
   * S. Spicher and S. Grimme, J. Chem. Theory Comput., 2021, 17, 1701-1714
     DOI: 10.1021/acs.jctc.0c01306
   
   with help from (in alphabetical order)
   P. Atkinson, C. Bannwarth, F. Bohle, G. Brandenburg, E. Caldeweyher
   M. Checinski, S. Dohm, S. Ehlert, S. Ehrlich, I. Gerasimov, C. Hölzer
   A. Katbashev, J. Koopman, C. Lavigne, S. Lehtola, F. März, M. Müller,
   F. Musil, H. Neugebauer, J. Pisarek, C. Plett, P. Pracht, F. Pultar,
   J. Seibert, P. Shushkov, S. Spicher, M. Stahn, M. Steiner, T. Strunk,
   J. Stückrath, T. Rose, and J. Unsleber
   
 * started run on 2023/06/21 at 17:10:36.313     

           -------------------------------------------------
          |                Calculation Setup                |
           -------------------------------------------------

          program call               : /lustre/hpc/kemi/ree/PhD/git/ReactivityQM/dep/xtb-6.5.1/bin/xtb --gfn 1 /lustre/hpc/kemi/ree/PhD/git/ReactivityQM/calculations/R02methylcation/reac01prodE04/conf09/R02methylcation_reac01prodE04_conf09_gfn1.xyz --opt --vfukui --chrg -2 --uhf 0 --alpb DMSO
          hostname                   : node317
          coordinate file            : /lustre/hpc/kemi/ree/PhD/git/ReactivityQM/calculations/R02methylcation/reac01prodE04/conf09/R02methylcation_reac01prodE04_conf09_gfn1.xyz
          omp threads                :                     1

   ID    Z sym.   atoms
    1    6 C      1, 3, 5, 6, 8-11, 13, 15, 18, 19, 22, 24
    2    8 O      2, 4, 14, 20, 23, 25
    3    7 N      7, 12, 16, 17, 21
    4    1 H      26-42

           -------------------------------------------------
          |                 G F N 1 - x T B                 |
           -------------------------------------------------

        Reference                      10.1021/acs.jctc.7b00118
      * Hamiltonian:
        H0-scaling (s, p, d)           1.850000    2.250000    2.000000
        zeta-weighting                 0.000000
      * Dispersion:
        s8                             2.400000
        a1                             0.630000
        a2                             5.000000
        s9                             0.000000
      * Repulsion:
        kExp                           1.500000
        rExp                           1.000000
      * Coulomb:
        alpha                          2.000000
        third order                    atomic
        anisotropic                    false
      * Halogen bond correction:
        rad-scale                      1.300000
        damping                        0.440000

      * Solvation model:               ALPB
        Solvent                        DMSO
        Parameter file                 internal GFN1-xTB/ALPB
        Dielectric constant                4.6680E+01
        Reference state                gsolv [1 M gas/solution]
        Free energy shift                  7.6243E-03 Eh       4.7843E+00 kcal/mol
        Temperature                        2.9815E+02 K
        Density                            1.1000E+00 kg/L
        Solvent mass                       7.8130E+01 g/mol
        Interaction kernel             P16
        Born radius scaling (c1)           1.7672E+00
        Born radii integrator          GBOBC
        Born offset                        0.0000E+00 a0       0.0000E+00 AA
        H-bond correction              true
        Ion screening                  false
        Surface tension                    1.0000E-05 Eh       1.5569E+01 dyn/cm
        Grid points                               230 per atom

          ...................................................
          :                      SETUP                      :
          :.................................................:
          :  # basis functions                 134          :
          :  # atomic orbitals                 134          :
          :  # shells                           84          :
          :  # electrons                       136          :
          :  # halogen bonds                     0          :
          :  max. iterations                   250          :
          :  Hamiltonian                  GFN1-xTB          :
          :  restarted?                      false          :
          :  GBSA solvation                   true          :
          :  PC potential                    false          :
          :  electronic temp.          300.0000000     K    :
          :  accuracy                    1.0000000          :
          :  -> integral cutoff          0.2500000E+02      :
          :  -> integral neglect         0.1000000E-07      :
          :  -> SCF convergence          0.1000000E-05 Eh   :
          :  -> wf. convergence          0.2000000E-04 e    :
          :  Broyden damping             0.4000000          :
          ...................................................

 iter      E             dE          RMSdq      gap      omega  full diag
   1    -83.9521733 -0.839522E+02  0.870E+00    0.71       0.0  T
   2    -84.0473471 -0.951738E-01  0.544E+00    1.20       1.0  T
   3    -83.9840022  0.633449E-01  0.305E+00    1.15       1.0  T
   4    -84.2181228 -0.234121E+00  0.119E+00    0.58       1.0  T
   5    -84.1860157  0.321071E-01  0.111E+00    0.08       1.0  T
   6    -84.1378687  0.481470E-01  0.115E+00    0.22       1.0  T
   7    -84.2299905 -0.921218E-01  0.921E-01    0.72       1.0  T
   8    -84.2490531 -0.190626E-01  0.761E-01    0.31       1.0  T
   9    -84.1614231  0.876301E-01  0.104E+00    0.17       1.0  T
  10    -84.2607289 -0.993059E-01  0.682E-01    0.18       1.0  T
  11    -84.2866030 -0.258741E-01  0.498E-01    0.04       1.0  T
  12    -84.2751008  0.115022E-01  0.590E-01    0.13       1.0  T
  13    -84.3233594 -0.482585E-01  0.894E-02    0.03       1.0  T
  14    -84.3226936  0.665785E-03  0.101E-01    0.01       1.0  T
  15    -84.3226986 -0.498955E-05  0.103E-01    0.04       1.0  T
  16    -84.3240543 -0.135573E-02  0.312E-02    0.02       1.0  T
  17    -84.3241816 -0.127309E-03  0.975E-03    0.02       1.6  T
  18    -84.3240937  0.879314E-04  0.262E-02    0.03       1.0  T
  19    -84.3241953 -0.101592E-03  0.231E-03    0.03       6.7  T
  20    -84.3241929  0.232205E-05  0.455E-03    0.03       3.4  T
  21    -84.3241960 -0.306624E-05  0.384E-04    0.03      40.2  T
  22    -84.3241960 -0.482189E-08  0.337E-04    0.03      45.7  T
  23    -84.3241960 -0.766434E-09  0.328E-04    0.03      47.1  T
  24    -84.3241960 -0.159605E-07  0.114E-05    0.03    1358.7  T
  25    -84.3241960 -0.136993E-10  0.624E-06    0.03    2473.4  T

   *** convergence criteria satisfied after 25 iterations ***

         #    Occupation            Energy/Eh            Energy/eV
      -------------------------------------------------------------
         1        2.0000           -0.8103165             -22.0498
       ...           ...                  ...                  ...
        62        2.0000           -0.3896858             -10.6039
        63        2.0000           -0.3832122             -10.4277
        64        2.0000           -0.3798403             -10.3360
        65        2.0000           -0.3771471             -10.2627
        66        2.0000           -0.3762846             -10.2392
        67        2.0000           -0.3420345              -9.3072
        68        1.2437           -0.2481198              -6.7517 (HOMO)
        69        0.7500           -0.2471619              -6.7256 (LUMO)
        70        0.0062           -0.2421659              -6.5897
        71                         -0.2029531              -5.5226
        72                         -0.2005315              -5.4567
        73                         -0.1291667              -3.5148
       ...                                ...                  ...
       134                          0.8557033              23.2849
      -------------------------------------------------------------
                  HL-Gap            0.0009579 Eh            0.0261 eV
             Fermi-level           -0.2476472 Eh           -6.7388 eV

 SCC (total)                   0 d,  0 h,  0 min,  0.281 sec
 SCC setup                      ...        0 min,  0.002 sec (  0.764%)
 Dispersion                     ...        0 min,  0.000 sec (  0.150%)
 classical contributions        ...        0 min,  0.000 sec (  0.046%)
 integral evaluation            ...        0 min,  0.062 sec ( 22.111%)
 iterations                     ...        0 min,  0.135 sec ( 48.228%)
 molecular gradient             ...        0 min,  0.080 sec ( 28.332%)
 printout                       ...        0 min,  0.001 sec (  0.350%)

         :::::::::::::::::::::::::::::::::::::::::::::::::::::
         ::                     SUMMARY                     ::
         :::::::::::::::::::::::::::::::::::::::::::::::::::::
         :: total energy             -83.580136810809 Eh    ::
         :: total w/o Gsasa/hb       -83.561501600165 Eh    ::
         :: gradient norm              0.216205303469 Eh/a0 ::
         :: HOMO-LUMO gap              0.026065759940 eV    ::
         ::.................................................::
         :: SCC energy               -84.324196020856 Eh    ::
         :: -> electrostatic           0.667742053663 Eh    ::
         :: -> Gsolv                  -0.263522869906 Eh    ::
         ::    -> Gelec               -0.244887659262 Eh    ::
         ::    -> Gsasa               -0.023738779230 Eh    ::
         ::    -> Ghb                 -0.002520710419 Eh    ::
         ::    -> Gshift               0.007624279005 Eh    ::
         :: repulsion energy           0.770390496724 Eh    ::
         :: dispersion energy         -0.026331286677 Eh    ::
         :: halogen bond corr.         0.000000000000 Eh    ::
         :: add. restraining           0.000000000000 Eh    ::
         :: total charge              -2.000000000000 e     ::
         :::::::::::::::::::::::::::::::::::::::::::::::::::::

      ----------------------------------------------------------- 
     |                   =====================                   |
     |                        A N C O P T                        |
     |                   =====================                   |
     |               Approximate Normal Coordinate               |
     |                Rational Function Optimizer                |
      ----------------------------------------------------------- 

          ...................................................
          :                      SETUP                      :
          :.................................................:
          :   optimization level            normal          :
          :   max. optcycles                   200          :
          :   ANC micro-cycles                  20          :
          :   degrees of freedom               120          :
          :.................................................:
          :   RF solver                   davidson          :
          :   write xtbopt.log                true          :
          :   linear?                        false          :
          :   energy convergence         0.5000000E-05 Eh   :
          :   grad. convergence          0.1000000E-02 Eh/α :
          :   maximium RF displ.         1.0000000          :
          :   Hlow (freq-cutoff)         0.1000000E-01      :
          :   Hmax (freq-cutoff)         5.0000000          :
          :   S6 in model hess.         20.0000000          :
          ...................................................

generating ANC from model Hessian ...
Using Lindh-Hessian (1995)
 Shifting diagonal of input Hessian by   9.831814390343635E-003
 Lowest  eigenvalues of input Hessian
    0.000000    0.000000    0.000000    0.000000    0.000000    0.000000
    0.010000    0.010209    0.010431    0.010790    0.011687    0.012501
    0.012625    0.013990    0.014678    0.015258    0.016509    0.017273
 Highest eigenvalues
    2.050046    2.084990    2.211553    2.240790    2.310500    2.367076
 

........................................................................
.............................. CYCLE    1 ..............................
........................................................................
   1    -84.3241960 -0.843242E+02  0.138E-05    0.03       0.0  T
   2    -84.3241960  0.145974E-07  0.314E-04    0.03      49.2  T
   3    -84.3241960 -0.146259E-07  0.382E-07    0.03   40429.8  T
   4    -84.3241960 -0.426326E-13  0.310E-07    0.03   49844.0  T
     SCC iter.                  ...        0 min,  0.015 sec
     gradient                   ...        0 min,  0.079 sec
 * total energy  :   -83.5801368 Eh     change       -0.5613288E-11 Eh
   gradient norm :     0.2162060 Eh/α   predicted     0.0000000E+00 (-100.00%)
   displ. norm   :     0.2749707 α      lambda       -0.3081234E-01
   maximum displ.:     0.1371586 α      in ANC's #20, #26, #117, ...

........................................................................
.............................. CYCLE    2 ..............................
........................................................................
   1    -84.2451517 -0.842452E+02  0.757E-01    0.35       0.0  T
   2    -84.0524947  0.192657E+00  0.157E+00    1.57       1.0  T
   3    -84.1126047 -0.601099E-01  0.122E+00    0.32       1.0  T
   4    -84.2928078 -0.180203E+00  0.429E-01    0.10       1.0  T
   5    -84.3003818 -0.757398E-02  0.369E-01    0.01       1.0  T
   6    -84.2720494  0.283324E-01  0.576E-01    0.15       1.0  T
   7    -84.3160781 -0.440287E-01  0.156E-01    0.05       1.0  T
   8    -84.3132688  0.280930E-02  0.210E-01    0.01       1.0  T
   9    -84.3173381 -0.406933E-02  0.126E-01    0.05       1.0  T
  10    -84.3196642 -0.232613E-02  0.273E-03    0.03       5.6  T
  11    -84.3196616  0.265897E-05  0.505E-03    0.03       3.1  T
  12    -84.3196653 -0.369498E-05  0.234E-04    0.03      66.1  T
  13    -84.3196652  0.528559E-07  0.642E-04    0.03      24.0  T
  14    -84.3196653 -0.522882E-07  0.226E-04    0.03      68.3  T
  15    -84.3196653 -0.726934E-08  0.319E-05    0.03     484.5  T
  16    -84.3196653  0.484278E-09  0.655E-05    0.03     235.7  T
     SCC iter.                  ...        0 min,  0.057 sec
     gradient                   ...        0 min,  0.079 sec
 * total energy  :   -83.6013714 Eh     change       -0.2123455E-01 Eh
   gradient norm :     0.0895776 Eh/α   predicted    -0.1657986E-01 ( -21.92%)
   displ. norm   :     0.3177681 α      lambda       -0.1173782E-01
   maximum displ.:     0.2040468 α      in ANC's #20, #19, #25, ...

........................................................................
.............................. CYCLE    3 ..............................
........................................................................
   1    -84.2654508 -0.842655E+02  0.686E-01    0.27       0.0  T
   2    -84.0482355  0.217215E+00  0.159E+00    1.66       1.0  T
   3    -84.1053768 -0.571413E-01  0.127E+00    0.31       1.0  T
   4    -84.3121430 -0.206766E+00  0.333E-01    0.08       1.0  T
   5    -84.3159432 -0.380026E-02  0.292E-01    0.00       1.0  T
   6    -84.3056798  0.102634E-01  0.396E-01    0.10       1.0  T
   7    -84.3273165 -0.216367E-01  0.735E-02    0.04       1.0  T
   8    -84.3273878 -0.712529E-04  0.704E-02    0.03       1.0  T
   9    -84.3276820 -0.294230E-03  0.538E-02    0.04       1.0  T
  10    -84.3280890 -0.407060E-03  0.763E-03    0.03       2.0  T
  11    -84.3280967 -0.769620E-05  0.220E-03    0.03       7.0  T
  12    -84.3280973 -0.556547E-06  0.963E-04    0.03      16.0  T
  13    -84.3280974 -0.131142E-06  0.897E-05    0.03     172.0  T
  14    -84.3280974 -0.905217E-09  0.393E-05    0.03     392.8  T
     SCC iter.                  ...        0 min,  0.050 sec
     gradient                   ...        0 min,  0.078 sec
 * total energy  :   -83.6086107 Eh     change       -0.7239372E-02 Eh
   gradient norm :     0.0291461 Eh/α   predicted    -0.6461534E-02 ( -10.74%)
   displ. norm   :     0.2675919 α      lambda       -0.2375762E-02
   maximum displ.:     0.1770320 α      in ANC's #20, #18, #19, ...

........................................................................
.............................. CYCLE    4 ..............................
........................................................................
   1    -84.2975401 -0.842975E+02  0.502E-01    0.13       0.0  T
   2    -84.0602064  0.237334E+00  0.153E+00    1.31       1.0  T
   3    -84.1099392 -0.497328E-01  0.126E+00    0.23       1.0  T
   4    -84.3325132 -0.222574E+00  0.637E-02    0.04       1.0  T
   5    -84.3322232  0.289998E-03  0.781E-02    0.03       1.0  T
   6    -84.3322609 -0.376984E-04  0.755E-02    0.05       1.0  T
   7    -84.3327270 -0.466130E-03  0.500E-02    0.03       1.0  T
   8    -84.3330816 -0.354586E-03  0.175E-03    0.04       8.8  T
   9    -84.3330805  0.107072E-05  0.323E-03    0.04       4.8  T
  10    -84.3330817 -0.123845E-05  0.132E-03    0.04      11.7  T
  11    -84.3330819 -0.151492E-06  0.838E-04    0.04      18.4  T
  12    -84.3330820 -0.987419E-07  0.892E-05    0.04     173.0  T
  13    -84.3330820 -0.628788E-09  0.587E-05    0.04     263.0  T
     SCC iter.                  ...        0 min,  0.046 sec
     gradient                   ...        0 min,  0.077 sec
 * total energy  :   -83.6102870 Eh     change       -0.1676288E-02 Eh
   gradient norm :     0.0240009 Eh/α   predicted    -0.1273065E-02 ( -24.05%)
   displ. norm   :     0.2868616 α      lambda       -0.1457672E-02
   maximum displ.:     0.1679618 α      in ANC's #20, #7, #18, ...

........................................................................
.............................. CYCLE    5 ..............................
........................................................................
   1    -84.3201494 -0.843201E+02  0.346E-01    0.09       0.0  T
   2    -84.0740640  0.246085E+00  0.146E+00    0.92       1.0  T
   3    -84.1736756 -0.996115E-01  0.107E+00    0.11       1.0  T
   4    -84.3326303 -0.158955E+00  0.181E-01    0.06       1.0  T
   5    -84.3372756 -0.464530E-02  0.114E-02    0.04       1.4  T
   6    -84.3371784  0.971992E-04  0.281E-02    0.04       1.0  T
   7    -84.3372136 -0.352225E-04  0.235E-02    0.03       1.0  T
   8    -84.3372892 -0.755385E-04  0.446E-03    0.04       3.5  T
   9    -84.3372919 -0.276100E-05  0.720E-04    0.04      21.4  T
  10    -84.3372919 -0.535508E-08  0.694E-04    0.04      22.2  T
  11    -84.3372920 -0.657194E-07  0.148E-04    0.04     104.5  T
  12    -84.3372920 -0.310526E-08  0.338E-06    0.04    4570.5  T
     SCC iter.                  ...        0 min,  0.043 sec
     gradient                   ...        0 min,  0.045 sec
 * total energy  :   -83.6112583 Eh     change       -0.9712637E-03 Eh
   gradient norm :     0.0147358 Eh/α   predicted    -0.7888158E-03 ( -18.78%)
   displ. norm   :     0.2067874 α      lambda       -0.5633979E-03
   maximum displ.:     0.0821079 α      in ANC's #20, #2, #7, ...

........................................................................
.............................. CYCLE    6 ..............................
........................................................................
   1    -84.3389585 -0.843390E+02  0.468E-02    0.04       0.0  T
   2    -84.2002901  0.138668E+00  0.985E-01    0.09       1.0  T
   3    -84.3391605 -0.138870E+00  0.279E-02    0.03       1.0  T
   4    -84.3392668 -0.106344E-03  0.355E-03    0.04       4.4  T
   5    -84.3392665  0.312727E-06  0.263E-03    0.04       5.9  T
   6    -84.3392669 -0.328781E-06  0.931E-04    0.04      16.6  T
   7    -84.3392669 -0.540248E-07  0.609E-04    0.04      25.4  T
   8    -84.3392670 -0.510372E-07  0.683E-05    0.04     226.1  T
   9    -84.3392670 -0.121673E-09  0.531E-05    0.04     290.6  T
     SCC iter.                  ...        0 min,  0.024 sec
     gradient                   ...        0 min,  0.075 sec
 * total energy  :   -83.6116413 Eh     change       -0.3829749E-03 Eh
   gradient norm :     0.0096064 Eh/α   predicted    -0.2938325E-03 ( -23.28%)
   displ. norm   :     0.1914100 α      lambda       -0.3392751E-03
   maximum displ.:     0.0668992 α      in ANC's #2, #7, #8, ...

........................................................................
.............................. CYCLE    7 ..............................
........................................................................
   1    -84.3401755 -0.843402E+02  0.505E-02    0.03       0.0  T
   2    -84.2967584  0.434171E-01  0.560E-01    0.17       1.0  T
   3    -84.3404994 -0.437409E-01  0.659E-03    0.04       2.3  T
   4    -84.3404991  0.218437E-06  0.474E-03    0.04       3.3  T
   5    -84.3404987  0.434100E-06  0.433E-03    0.04       3.6  T
   6    -84.3404951  0.358919E-05  0.659E-03    0.04       2.3  T
   7    -84.3405004 -0.531112E-05  0.236E-03    0.04       6.5  T
   8    -84.3405011 -0.626306E-06  0.109E-03    0.04      14.2  T
   9    -84.3405012 -0.168061E-06  0.104E-04    0.04     148.9  T
  10    -84.3405012 -0.146417E-08  0.137E-05    0.04    1127.0  T
     SCC iter.                  ...        0 min,  0.039 sec
     gradient                   ...        0 min,  0.084 sec
 * total energy  :   -83.6118893 Eh     change       -0.2479918E-03 Eh
   gradient norm :     0.0088236 Eh/α   predicted    -0.1758715E-03 ( -29.08%)
   displ. norm   :     0.2501736 α      lambda       -0.3458714E-03
   maximum displ.:     0.1013835 α      in ANC's #8, #23, #2, ...

........................................................................
.............................. CYCLE    8 ..............................
........................................................................
   1    -84.3392142 -0.843392E+02  0.618E-02    0.03       0.0  T
   2    -84.2927544  0.464597E-01  0.581E-01    0.19       1.0  T
   3    -84.3396517 -0.468972E-01  0.170E-02    0.04       1.0  T
   4    -84.3396647 -0.129980E-04  0.114E-02    0.04       1.4  T
   5    -84.3396492  0.154576E-04  0.153E-02    0.04       1.0  T
   6    -84.3396277  0.214726E-04  0.195E-02    0.04       1.0  T
   7    -84.3396782 -0.504205E-04  0.534E-03    0.04       2.9  T
   8    -84.3396822 -0.407669E-05  0.202E-04    0.04      76.4  T
   9    -84.3396822 -0.426556E-08  0.961E-05    0.04     160.5  T
  10    -84.3396822 -0.123107E-08  0.113E-05    0.04    1363.2  T
     SCC iter.                  ...        0 min,  0.038 sec
     gradient                   ...        0 min,  0.084 sec
 * total energy  :   -83.6121431 Eh     change       -0.2538698E-03 Eh
   gradient norm :     0.0117730 Eh/α   predicted    -0.1837714E-03 ( -27.61%)
   displ. norm   :     0.2940628 α      lambda       -0.3925331E-03
   maximum displ.:     0.1279909 α      in ANC's #8, #2, #23, ...

........................................................................
.............................. CYCLE    9 ..............................
........................................................................
   1    -84.3386839 -0.843387E+02  0.614E-02    0.03       0.0  T
   2    -84.2930903  0.455936E-01  0.575E-01    0.19       1.0  T
   3    -84.3390838 -0.459935E-01  0.216E-02    0.04       1.0  T
   4    -84.3391173 -0.334670E-04  0.121E-02    0.04       1.3  T
   5    -84.3390706  0.466817E-04  0.217E-02    0.04       1.0  T
   6    -84.3390750 -0.443730E-05  0.208E-02    0.04       1.0  T
   7    -84.3391335 -0.584523E-04  0.494E-03    0.04       3.1  T
   8    -84.3391370 -0.350595E-05  0.697E-05    0.04     221.4  T
   9    -84.3391370  0.215266E-08  0.131E-04    0.04     118.1  T
  10    -84.3391370 -0.222890E-08  0.305E-05    0.04     505.8  T
     SCC iter.                  ...        0 min,  0.039 sec
     gradient                   ...        0 min,  0.083 sec
 * total energy  :   -83.6124292 Eh     change       -0.2861101E-03 Eh
   gradient norm :     0.0104378 Eh/α   predicted    -0.2132430E-03 ( -25.47%)
   displ. norm   :     0.3110714 α      lambda       -0.3774785E-03
   maximum displ.:     0.1514004 α      in ANC's #8, #2, #23, ...

........................................................................
.............................. CYCLE   10 ..............................
........................................................................
   1    -84.3376613 -0.843377E+02  0.417E-02    0.04       0.0  T
   2    -84.2671256  0.705357E-01  0.700E-01    0.04       1.0  T
   3    -84.3378523 -0.707267E-01  0.149E-02    0.04       1.0  T
   4    -84.3377986  0.537055E-04  0.220E-02    0.04       1.0  T
   5    -84.3378519 -0.533433E-04  0.965E-03    0.04       1.6  T
   6    -84.3378640 -0.120992E-04  0.173E-03    0.04       8.9  T
   7    -84.3378643 -0.281369E-06  0.601E-04    0.04      25.7  T
   8    -84.3378643 -0.510130E-07  0.957E-05    0.04     161.3  T
   9    -84.3378643  0.398131E-09  0.103E-04    0.04     150.1  T
     SCC iter.                  ...        0 min,  0.035 sec
     gradient                   ...        0 min,  0.083 sec
 * total energy  :   -83.6127171 Eh     change       -0.2878690E-03 Eh
   gradient norm :     0.0125164 Eh/α   predicted    -0.2070073E-03 ( -28.09%)
   displ. norm   :     0.3717998 α      lambda       -0.6119230E-03
   maximum displ.:     0.1632403 α      in ANC's #8, #2, #4, ...

........................................................................
.............................. CYCLE   11 ..............................
........................................................................
   1    -84.3405036 -0.843405E+02  0.210E-02    0.04       0.0  T
   2    -84.3267391  0.137645E-01  0.310E-01    0.01       1.0  T
   3    -84.3404706 -0.137315E-01  0.226E-02    0.04       1.0  T
   4    -84.3405276 -0.569626E-04  0.934E-03    0.04       1.7  T
   5    -84.3405338 -0.621493E-05  0.448E-03    0.04       3.4  T
   6    -84.3405364 -0.258548E-05  0.458E-04    0.04      33.7  T
   7    -84.3405364 -0.255059E-07  0.783E-05    0.04     197.2  T
   8    -84.3405364 -0.317641E-09  0.264E-05    0.04     584.8  T
     SCC iter.                  ...        0 min,  0.031 sec
     gradient                   ...        0 min,  0.083 sec
 * total energy  :   -83.6130466 Eh     change       -0.3294472E-03 Eh
   gradient norm :     0.0116472 Eh/α   predicted    -0.3482572E-03 (   5.71%)
   displ. norm   :     0.4754231 α      lambda       -0.5674392E-03
   maximum displ.:     0.2565845 α      in ANC's #8, #2, #4, ...

........................................................................
.............................. CYCLE   12 ..............................
........................................................................
   1    -84.3242500 -0.843242E+02  0.252E-01    0.08       0.0  T
   2    -84.0729623  0.251288E+00  0.141E+00    0.63       1.0  T
   3    -84.2783214 -0.205359E+00  0.618E-01    0.03       1.0  T
   4    -84.2911061 -0.127847E-01  0.550E-01    0.19       1.0  T
   5    -84.3307411 -0.396350E-01  0.138E-01    0.06       1.0  T
   6    -84.3299528  0.788287E-03  0.157E-01    0.02       1.0  T
   7    -84.3331938 -0.324099E-02  0.455E-02    0.05       1.0  T
   8    -84.3331277  0.660725E-04  0.506E-02    0.04       1.0  T
   9    -84.3334951 -0.367318E-03  0.308E-03    0.04       5.0  T
  10    -84.3334961 -0.103925E-05  0.152E-03    0.04      10.2  T
  11    -84.3334964 -0.286587E-06  0.558E-04    0.04      27.7  T
  12    -84.3334964 -0.412305E-07  0.171E-04    0.04      90.3  T
  13    -84.3334964 -0.412625E-08  0.132E-05    0.04    1165.1  T
     SCC iter.                  ...        0 min,  0.051 sec
     gradient                   ...        0 min,  0.083 sec
 * total energy  :   -83.6131674 Eh     change       -0.1208922E-03 Eh
   gradient norm :     0.0242843 Eh/α   predicted    -0.3478521E-03 ( 187.74%)
   displ. norm   :     0.1386319 α      lambda       -0.6180319E-03
   maximum displ.:     0.0671695 α      in ANC's #23, #8, #22, ...

........................................................................
.............................. CYCLE   13 ..............................
........................................................................
   1    -84.3394911 -0.843395E+02  0.742E-02    0.03       0.0  T
   2    -84.2918743  0.476168E-01  0.594E-01    0.23       1.0  T
   3    -84.3388922 -0.470180E-01  0.997E-02    0.05       1.0  T
   4    -84.3399366 -0.104436E-02  0.471E-02    0.04       1.0  T
   5    -84.3393892  0.547406E-03  0.784E-02    0.05       1.0  T
   6    -84.3402242 -0.835038E-03  0.162E-02    0.04       1.0  T
   7    -84.3402490 -0.247703E-04  0.972E-03    0.04       1.6  T
   8    -84.3402622 -0.132439E-04  0.135E-03    0.04      11.4  T
   9    -84.3402625 -0.224929E-06  0.501E-04    0.04      30.8  T
  10    -84.3402625 -0.343241E-07  0.108E-04    0.04     142.6  T
  11    -84.3402625 -0.159653E-08  0.200E-05    0.04     772.4  T
     SCC iter.                  ...        0 min,  0.043 sec
     gradient                   ...        0 min,  0.084 sec
 * total energy  :   -83.6135295 Eh     change       -0.3620418E-03 Eh
   gradient norm :     0.0079668 Eh/α   predicted    -0.3149564E-03 ( -13.01%)
   displ. norm   :     0.2401792 α      lambda       -0.2614852E-03
   maximum displ.:     0.0987323 α      in ANC's #8, #2, #4, ...

........................................................................
.............................. CYCLE   14 ..............................
........................................................................
   1    -84.3408065 -0.843408E+02  0.510E-02    0.05       0.0  T
   2    -84.1803442  0.160462E+00  0.106E+00    0.10       1.0  T
   3    -84.3411686 -0.160824E+00  0.110E-02    0.04       1.4  T
   4    -84.3411799 -0.113253E-04  0.504E-03    0.04       3.1  T
   5    -84.3411810 -0.113680E-05  0.375E-03    0.04       4.1  T
   6    -84.3411827 -0.169328E-05  0.607E-04    0.04      25.4  T
   7    -84.3411828 -0.504162E-07  0.339E-05    0.04     455.3  T
   8    -84.3411828 -0.228937E-10  0.209E-05    0.04     739.5  T
     SCC iter.                  ...        0 min,  0.032 sec
     gradient                   ...        0 min,  0.084 sec
 * total energy  :   -83.6137325 Eh     change       -0.2030352E-03 Eh
   gradient norm :     0.0045442 Eh/α   predicted    -0.1382861E-03 ( -31.89%)
   displ. norm   :     0.4265714 α      lambda       -0.2999593E-03
   maximum displ.:     0.1892316 α      in ANC's #8, #2, #4, ...

........................................................................
.............................. CYCLE   15 ..............................
........................................................................
   1    -84.3386239 -0.843386E+02  0.726E-02    0.05       0.0  T
   2    -84.1278366  0.210787E+00  0.121E+00    0.15       1.0  T
   3    -84.3391295 -0.211293E+00  0.440E-02    0.04       1.0  T
   4    -84.3393792 -0.249706E-03  0.110E-02    0.04       1.4  T
   5    -84.3393931 -0.139549E-04  0.356E-03    0.04       4.3  T
   6    -84.3393928  0.287507E-06  0.342E-03    0.04       4.5  T
   7    -84.3393945 -0.162416E-05  0.348E-04    0.04      44.3  T
   8    -84.3393945 -0.155275E-07  0.124E-04    0.04     124.8  T
   9    -84.3393945 -0.204001E-08  0.152E-05    0.04    1016.6  T
     SCC iter.                  ...        0 min,  0.035 sec
     gradient                   ...        0 min,  0.083 sec
 * total energy  :   -83.6139479 Eh     change       -0.2153561E-03 Eh
   gradient norm :     0.0056913 Eh/α   predicted    -0.1772710E-03 ( -17.68%)
   displ. norm   :     0.3737704 α      lambda       -0.1942625E-03
   maximum displ.:     0.1508181 α      in ANC's #2, #3, #4, ...

........................................................................
.............................. CYCLE   16 ..............................
........................................................................
   1    -84.3384895 -0.843385E+02  0.314E-02    0.05       0.0  T
   2    -84.2915351  0.469544E-01  0.570E-01    0.02       1.0  T
   3    -84.3386056 -0.470705E-01  0.111E-02    0.04       1.4  T
   4    -84.3386046  0.105748E-05  0.803E-03    0.04       1.9  T
   5    -84.3386128 -0.816899E-05  0.217E-03    0.04       7.1  T
   6    -84.3386132 -0.467513E-06  0.569E-04    0.04      27.1  T
   7    -84.3386132  0.299591E-07  0.621E-04    0.04      24.8  T
   8    -84.3386132 -0.553319E-07  0.285E-05    0.04     542.3  T
   9    -84.3386132  0.453326E-10  0.288E-05    0.04     536.1  T
     SCC iter.                  ...        0 min,  0.035 sec
     gradient                   ...        0 min,  0.083 sec
 * total energy  :   -83.6140771 Eh     change       -0.1292103E-03 Eh
   gradient norm :     0.0076851 Eh/α   predicted    -0.1107015E-03 ( -14.32%)
   displ. norm   :     0.2827439 α      lambda       -0.1767513E-03
   maximum displ.:     0.1407347 α      in ANC's #3, #4, #2, ...

........................................................................
.............................. CYCLE   17 ..............................
........................................................................
   1    -84.3392926 -0.843393E+02  0.745E-02    0.03       0.0  T
   2    -84.2921683  0.471243E-01  0.592E-01    0.25       1.0  T
   3    -84.3381151 -0.459469E-01  0.118E-01    0.06       1.0  T
   4    -84.3394971 -0.138196E-02  0.642E-02    0.03       1.0  T
   5    -84.3399415 -0.444460E-03  0.339E-02    0.05       1.0  T
   6    -84.3401012 -0.159630E-03  0.452E-03    0.04       3.4  T
   7    -84.3401038 -0.261427E-05  0.277E-04    0.04      55.7  T
   8    -84.3401038  0.270242E-07  0.476E-04    0.04      32.4  T
   9    -84.3401038 -0.326226E-07  0.383E-05    0.04     402.5  T
  10    -84.3401038  0.559112E-09  0.701E-05    0.04     220.1  T
     SCC iter.                  ...        0 min,  0.038 sec
     gradient                   ...        0 min,  0.084 sec
 * total energy  :   -83.6141847 Eh     change       -0.1075761E-03 Eh
   gradient norm :     0.0056797 Eh/α   predicted    -0.9544166E-04 ( -11.28%)
   displ. norm   :     0.2490428 α      lambda       -0.1268513E-03
   maximum displ.:     0.1410548 α      in ANC's #3, #4, #2, ...

........................................................................
.............................. CYCLE   18 ..............................
........................................................................
   1    -84.3416959 -0.843417E+02  0.112E-02    0.04       0.0  T
   2    -84.3415520  0.143851E-03  0.330E-02    0.05       1.0  T
   3    -84.3408432  0.708792E-03  0.769E-02    0.03       1.0  T
   4    -84.3417014 -0.858125E-03  0.553E-03    0.04       2.8  T
   5    -84.3417029 -0.155781E-05  0.419E-03    0.04       3.7  T
   6    -84.3417049 -0.197258E-05  0.153E-03    0.04      10.1  T
   7    -84.3417052 -0.304769E-06  0.309E-04    0.04      50.0  T
   8    -84.3417052 -0.135006E-07  0.226E-05    0.04     682.5  T
   9    -84.3417052 -0.466684E-10  0.704E-06    0.04    2192.8  T
     SCC iter.                  ...        0 min,  0.035 sec
     gradient                   ...        0 min,  0.085 sec
 * total energy  :   -83.6142770 Eh     change       -0.9231146E-04 Eh
   gradient norm :     0.0041117 Eh/α   predicted    -0.6736106E-04 ( -27.03%)
   displ. norm   :     0.2784175 α      lambda       -0.1253747E-03
   maximum displ.:     0.1727002 α      in ANC's #3, #4, #1, ...

........................................................................
.............................. CYCLE   19 ..............................
........................................................................
   1    -84.3414881 -0.843415E+02  0.421E-02    0.05       0.0  T
   2    -84.2158594  0.125629E+00  0.931E-01    0.07       1.0  T
   3    -84.3417375 -0.125878E+00  0.950E-03    0.04       1.6  T
   4    -84.3417448 -0.725483E-05  0.531E-03    0.04       2.9  T
   5    -84.3417472 -0.242760E-05  0.307E-03    0.04       5.0  T
   6    -84.3417484 -0.121928E-05  0.397E-04    0.04      38.9  T
   7    -84.3417484 -0.812182E-08  0.207E-04    0.04      74.7  T
   8    -84.3417484 -0.595080E-08  0.309E-05    0.04     500.0  T
   9    -84.3417484 -0.476206E-10  0.202E-05    0.04     765.7  T
     SCC iter.                  ...        0 min,  0.034 sec
     gradient                   ...        0 min,  0.085 sec
 * total energy  :   -83.6143724 Eh     change       -0.9542391E-04 Eh
   gradient norm :     0.0040915 Eh/α   predicted    -0.6754971E-04 ( -29.21%)
   displ. norm   :     0.2577910 α      lambda       -0.1551779E-03
   maximum displ.:     0.1870294 α      in ANC's #3, #1, #14, ...

........................................................................
.............................. CYCLE   20 ..............................
........................................................................
   1    -84.3450091 -0.843450E+02  0.662E-02    0.03       0.0  T
   2    -84.2998473  0.451618E-01  0.576E-01    0.23       1.0  T
   3    -84.3443770 -0.445296E-01  0.944E-02    0.06       1.0  T
   4    -84.3451719 -0.794954E-03  0.571E-02    0.04       1.0  T
   5    -84.3454385 -0.266539E-03  0.385E-02    0.05       1.0  T
   6    -84.3456491 -0.210625E-03  0.209E-03    0.04       7.4  T
   7    -84.3456464  0.265218E-05  0.470E-03    0.04       3.3  T
   8    -84.3456496 -0.318705E-05  0.103E-04    0.04     150.2  T
   9    -84.3456496 -0.132738E-08  0.233E-05    0.04     661.7  T
  10    -84.3456496 -0.555787E-10  0.554E-06    0.04    2784.1  T
     SCC iter.                  ...        0 min,  0.039 sec
     gradient                   ...        0 min,  0.084 sec
 * total energy  :   -83.6144506 Eh     change       -0.7821753E-04 Eh
   gradient norm :     0.0083730 Eh/α   predicted    -0.8275212E-04 (   5.80%)
   displ. norm   :     0.3737377 α      lambda       -0.1687555E-03
   maximum displ.:     0.2497824 α      in ANC's #3, #1, #4, ...
 * RMSD in coord.:     0.6535392 α      energy gain  -0.3431380E-01 Eh

generating ANC from model Hessian ...
Using Lindh-Hessian (1995)
 Shifting diagonal of input Hessian by   9.824365954592884E-003
 Lowest  eigenvalues of input Hessian
    0.000000    0.000000    0.000000    0.000000    0.000000    0.000000
    0.010000    0.010325    0.010587    0.010804    0.011905    0.011949
    0.013365    0.013992    0.015124    0.015561    0.016356    0.017443
 Highest eigenvalues
    2.048558    2.078358    2.084509    2.222970    2.243924    2.305153
 

........................................................................
.............................. CYCLE   21 ..............................
........................................................................
   1    -84.3414274 -0.843414E+02  0.507E-02    0.05       0.0  T
   2    -84.1882559  0.153171E+00  0.103E+00    0.09       1.0  T
   3    -84.3417825 -0.153527E+00  0.119E-02    0.04       1.3  T
   4    -84.3417874 -0.485703E-05  0.810E-03    0.04       1.9  T
   5    -84.3417937 -0.633564E-05  0.395E-03    0.04       3.9  T
   6    -84.3417956 -0.183861E-05  0.332E-04    0.04      46.4  T
   7    -84.3417956  0.478978E-08  0.243E-04    0.04      63.5  T
   8    -84.3417956 -0.819934E-08  0.341E-05    0.04     452.8  T
   9    -84.3417956 -0.131308E-09  0.750E-06    0.04    2058.1  T
     SCC iter.                  ...        0 min,  0.035 sec
     gradient                   ...        0 min,  0.084 sec
 * total energy  :   -83.6145535 Eh     change       -0.1029121E-03 Eh
   gradient norm :     0.0067877 Eh/α   predicted     0.0000000E+00 (-100.00%)
   displ. norm   :     0.0529622 α      lambda       -0.8483815E-04
   maximum displ.:     0.0219941 α      in ANC's #11, #8, #3, ...

........................................................................
.............................. CYCLE   22 ..............................
........................................................................
   1    -84.3419819 -0.843420E+02  0.281E-02    0.05       0.0  T
   2    -84.2792715  0.627104E-01  0.657E-01    0.03       1.0  T
   3    -84.3420925 -0.628210E-01  0.562E-03    0.04       2.7  T
   4    -84.3420886  0.396667E-05  0.721E-03    0.04       2.1  T
   5    -84.3420923 -0.378231E-05  0.484E-03    0.04       3.2  T
   6    -84.3420953 -0.293030E-05  0.131E-03    0.04      11.8  T
   7    -84.3420955 -0.231893E-06  0.243E-04    0.04      63.6  T
   8    -84.3420955 -0.846268E-08  0.113E-05    0.04    1360.1  T
   9    -84.3420955  0.403162E-10  0.176E-05    0.04     876.5  T
     SCC iter.                  ...        0 min,  0.035 sec
     gradient                   ...        0 min,  0.084 sec
 * total energy  :   -83.6146305 Eh     change       -0.7696108E-04 Eh
   gradient norm :     0.0034053 Eh/α   predicted    -0.5120700E-04 ( -33.46%)
   displ. norm   :     0.1120425 α      lambda       -0.1014844E-03
   maximum displ.:     0.0481407 α      in ANC's #3, #11, #8, ...

........................................................................
.............................. CYCLE   23 ..............................
........................................................................
   1    -84.3421427 -0.843421E+02  0.169E-02    0.04       0.0  T
   2    -84.3258453  0.162974E-01  0.336E-01    0.01       1.0  T
   3    -84.3421738 -0.163285E-01  0.600E-03    0.04       2.6  T
   4    -84.3421752 -0.142218E-05  0.403E-03    0.04       3.8  T
   5    -84.3421758 -0.562113E-06  0.323E-03    0.04       4.8  T
   6    -84.3421769 -0.113414E-05  0.127E-03    0.04      12.2  T
   7    -84.3421771 -0.216489E-06  0.263E-04    0.04      58.7  T
   8    -84.3421771 -0.984315E-08  0.122E-05    0.04    1263.5  T
   9    -84.3421771  0.369482E-12  0.703E-06    0.04    2196.4  T
     SCC iter.                  ...        0 min,  0.036 sec
     gradient                   ...        0 min,  0.084 sec
 * total energy  :   -83.6146979 Eh     change       -0.6737929E-04 Eh
   gradient norm :     0.0022401 Eh/α   predicted    -0.5138024E-04 ( -23.74%)
   displ. norm   :     0.1085532 α      lambda       -0.5163781E-04
   maximum displ.:     0.0492809 α      in ANC's #3, #8, #7, ...

........................................................................
.............................. CYCLE   24 ..............................
........................................................................
   1    -84.3419644 -0.843420E+02  0.118E-02    0.04       0.0  T
   2    -84.3359050  0.605943E-02  0.205E-01    0.07       1.0  T
   3    -84.3419785 -0.607354E-02  0.637E-03    0.04       2.4  T
   4    -84.3419820 -0.346623E-05  0.348E-03    0.04       4.4  T
   5    -84.3419836 -0.155691E-05  0.832E-04    0.04      18.5  T
   6    -84.3419836 -0.669247E-07  0.237E-04    0.04      65.1  T
   7    -84.3419836 -0.661574E-08  0.479E-05    0.04     322.3  T
   8    -84.3419836 -0.269807E-09  0.107E-05    0.04    1437.8  T
     SCC iter.                  ...        0 min,  0.031 sec
     gradient                   ...        0 min,  0.084 sec
 * total energy  :   -83.6147385 Eh     change       -0.4059431E-04 Eh
   gradient norm :     0.0034616 Eh/α   predicted    -0.2612339E-04 ( -35.65%)
   displ. norm   :     0.1833025 α      lambda       -0.7509933E-04
   maximum displ.:     0.0836976 α      in ANC's #3, #8, #7, ...

........................................................................
.............................. CYCLE   25 ..............................
........................................................................
   1    -84.3413881 -0.843414E+02  0.317E-02    0.04       0.0  T
   2    -84.3135789  0.278092E-01  0.443E-01    0.13       1.0  T
   3    -84.3414049 -0.278260E-01  0.308E-02    0.05       1.0  T
   4    -84.3415376 -0.132755E-03  0.271E-03    0.04       5.7  T
   5    -84.3415375  0.102312E-06  0.303E-03    0.04       5.1  T
   6    -84.3415387 -0.111148E-05  0.815E-04    0.04      18.9  T
   7    -84.3415387 -0.876396E-07  0.895E-05    0.04     172.5  T
   8    -84.3415387 -0.572754E-09  0.652E-05    0.04     236.8  T
     SCC iter.                  ...        0 min,  0.031 sec
     gradient                   ...        0 min,  0.085 sec
 * total energy  :   -83.6147935 Eh     change       -0.5504097E-04 Eh
   gradient norm :     0.0040839 Eh/α   predicted    -0.3881175E-04 ( -29.49%)
   displ. norm   :     0.1798830 α      lambda       -0.6006090E-04
   maximum displ.:     0.0840796 α      in ANC's #3, #7, #8, ...

........................................................................
.............................. CYCLE   26 ..............................
........................................................................
   1    -84.3411087 -0.843411E+02  0.388E-02    0.04       0.0  T
   2    -84.3072543  0.338543E-01  0.491E-01    0.15       1.0  T
   3    -84.3411097 -0.338553E-01  0.397E-02    0.05       1.0  T
   4    -84.3413075 -0.197864E-03  0.133E-02    0.04       1.2  T
   5    -84.3413317 -0.242221E-04  0.390E-03    0.04       4.0  T
   6    -84.3413338 -0.201386E-05  0.214E-04    0.04      72.2  T
   7    -84.3413337  0.232138E-07  0.420E-04    0.04      36.8  T
   8    -84.3413338 -0.212553E-07  0.153E-04    0.04     101.1  T
   9    -84.3413338 -0.301077E-08  0.542E-05    0.04     284.7  T
     SCC iter.                  ...        0 min,  0.035 sec
     gradient                   ...        0 min,  0.083 sec
 * total energy  :   -83.6148375 Eh     change       -0.4403392E-04 Eh
   gradient norm :     0.0034579 Eh/α   predicted    -0.3100386E-04 ( -29.59%)
   displ. norm   :     0.1693838 α      lambda       -0.5167643E-04
   maximum displ.:     0.0802255 α      in ANC's #3, #1, #7, ...

........................................................................
.............................. CYCLE   27 ..............................
........................................................................
   1    -84.3413251 -0.843413E+02  0.449E-02    0.04       0.0  T
   2    -84.3034757  0.378494E-01  0.520E-01    0.17       1.0  T
   3    -84.3413326 -0.378568E-01  0.451E-02    0.05       1.0  T
   4    -84.3415494 -0.216856E-03  0.223E-02    0.04       1.0  T
   5    -84.3416190 -0.695791E-04  0.507E-03    0.04       3.0  T
   6    -84.3416225 -0.347995E-05  0.415E-04    0.04      37.2  T
   7    -84.3416224  0.951224E-07  0.891E-04    0.04      17.3  T
   8    -84.3416225 -0.102734E-06  0.266E-04    0.04      58.0  T
   9    -84.3416225 -0.101410E-07  0.359E-05    0.04     429.4  T
  10    -84.3416225 -0.147764E-09  0.142E-05    0.04    1084.9  T
     SCC iter.                  ...        0 min,  0.039 sec
     gradient                   ...        0 min,  0.084 sec
 * total energy  :   -83.6148745 Eh     change       -0.3691879E-04 Eh
   gradient norm :     0.0023773 Eh/α   predicted    -0.2658009E-04 ( -28.00%)
   displ. norm   :     0.1220249 α      lambda       -0.3498270E-04
   maximum displ.:     0.0598123 α      in ANC's #1, #3, #8, ...

........................................................................
.............................. CYCLE   28 ..............................
........................................................................
   1    -84.3420583 -0.843421E+02  0.347E-02    0.04       0.0  T
   2    -84.3116021  0.304562E-01  0.464E-01    0.14       1.0  T
   3    -84.3421689 -0.305667E-01  0.211E-02    0.04       1.0  T
   4    -84.3422271 -0.581862E-04  0.602E-03    0.04       2.6  T
   5    -84.3422314 -0.428969E-05  0.271E-03    0.04       5.7  T
   6    -84.3422323 -0.989860E-06  0.201E-04    0.04      76.6  T
   7    -84.3422323  0.544844E-08  0.212E-04    0.04      72.8  T
   8    -84.3422323 -0.609141E-08  0.459E-05    0.04     336.5  T
   9    -84.3422323 -0.292474E-09  0.419E-06    0.04    3681.1  T
     SCC iter.                  ...        0 min,  0.035 sec
     gradient                   ...        0 min,  0.084 sec
 * total energy  :   -83.6148994 Eh     change       -0.2495188E-04 Eh
   gradient norm :     0.0020340 Eh/α   predicted    -0.1775198E-04 ( -28.86%)
   displ. norm   :     0.0924128 α      lambda       -0.2504538E-04
   maximum displ.:     0.0500488 α      in ANC's #1, #3, #6, ...

........................................................................
.............................. CYCLE   29 ..............................
........................................................................
   1    -84.3426067 -0.843426E+02  0.168E-02    0.04       0.0  T
   2    -84.3307531  0.118536E-01  0.288E-01    0.09       1.0  T
   3    -84.3426463 -0.118931E-01  0.135E-03    0.04      11.5  T
   4    -84.3426463 -0.243060E-07  0.646E-04    0.04      23.9  T
   5    -84.3426463  0.123332E-07  0.576E-04    0.04      26.8  T
   6    -84.3426463 -0.279105E-07  0.200E-04    0.04      77.3  T
   7    -84.3426463 -0.496338E-08  0.572E-05    0.04     269.9  T
     SCC iter.                  ...        0 min,  0.027 sec
     gradient                   ...        0 min,  0.085 sec
 * total energy  :   -83.6149180 Eh     change       -0.1863445E-04 Eh
   gradient norm :     0.0021000 Eh/α   predicted    -0.1263146E-04 ( -32.21%)
   displ. norm   :     0.1005554 α      lambda       -0.2417390E-04
   maximum displ.:     0.0565230 α      in ANC's #1, #6, #3, ...

........................................................................
.............................. CYCLE   30 ..............................
........................................................................
   1    -84.3426486 -0.843426E+02  0.285E-03    0.04       0.0  T
   2    -84.3424582  0.190444E-03  0.363E-02    0.05       1.0  T
   3    -84.3426428 -0.184630E-03  0.682E-03    0.04       2.3  T
   4    -84.3426490 -0.617149E-05  0.170E-03    0.04       9.1  T
   5    -84.3426493 -0.281287E-06  0.815E-04    0.04      18.9  T
   6    -84.3426494 -0.818757E-07  0.119E-04    0.04     129.5  T
   7    -84.3426494 -0.183972E-08  0.185E-05    0.04     832.0  T
     SCC iter.                  ...        0 min,  0.027 sec
     gradient                   ...        0 min,  0.075 sec
 * total energy  :   -83.6149362 Eh     change       -0.1820585E-04 Eh
   gradient norm :     0.0020661 Eh/α   predicted    -0.1222647E-04 ( -32.84%)
   displ. norm   :     0.1122264 α      lambda       -0.2410836E-04
   maximum displ.:     0.0636325 α      in ANC's #1, #6, #3, ...

........................................................................
.............................. CYCLE   31 ..............................
........................................................................
   1    -84.3423906 -0.843424E+02  0.108E-02    0.04       0.0  T
   2    -84.3334577  0.893293E-02  0.248E-01    0.01       1.0  T
   3    -84.3424075 -0.894982E-02  0.138E-03    0.04      11.2  T
   4    -84.3424076 -0.281546E-07  0.794E-04    0.04      19.4  T
   5    -84.3424076 -0.771971E-08  0.662E-04    0.04      23.3  T
   6    -84.3424076 -0.475066E-07  0.177E-04    0.04      87.2  T
   7    -84.3424076 -0.432830E-08  0.129E-05    0.04    1198.8  T
     SCC iter.                  ...        0 min,  0.029 sec
     gradient                   ...        0 min,  0.082 sec
 * total energy  :   -83.6149546 Eh     change       -0.1832256E-04 Eh
   gradient norm :     0.0019365 Eh/α   predicted    -0.1220656E-04 ( -33.38%)
   displ. norm   :     0.2011099 α      lambda       -0.2455055E-04
   maximum displ.:     0.1166386 α      in ANC's #1, #6, #8, ...

........................................................................
.............................. CYCLE   32 ..............................
........................................................................
   1    -84.3413748 -0.843414E+02  0.273E-02    0.05       0.0  T
   2    -84.2820463  0.593285E-01  0.640E-01    0.03       1.0  T
   3    -84.3414744 -0.594281E-01  0.680E-03    0.04       2.3  T
   4    -84.3414796 -0.527285E-05  0.216E-03    0.04       7.1  T
   5    -84.3414802 -0.526594E-06  0.770E-04    0.04      20.0  T
   6    -84.3414802 -0.489587E-07  0.156E-04    0.04      98.7  T
   7    -84.3414802 -0.245188E-08  0.329E-05    0.04     468.6  T
     SCC iter.                  ...        0 min,  0.025 sec
     gradient                   ...        0 min,  0.080 sec
 * total energy  :   -83.6149786 Eh     change       -0.2406050E-04 Eh
   gradient norm :     0.0023074 Eh/α   predicted    -0.1249822E-04 ( -48.06%)
   displ. norm   :     0.0784529 α      lambda       -0.1770548E-04
   maximum displ.:     0.0471743 α      in ANC's #1, #7, #6, ...

........................................................................
.............................. CYCLE   33 ..............................
........................................................................
   1    -84.3418596 -0.843419E+02  0.115E-02    0.04       0.0  T
   2    -84.3319769  0.988268E-02  0.261E-01    0.01       1.0  T
   3    -84.3418759 -0.989904E-02  0.402E-03    0.04       3.8  T
   4    -84.3418774 -0.145315E-05  0.225E-03    0.04       6.9  T
   5    -84.3418778 -0.461453E-06  0.128E-03    0.04      12.0  T
   6    -84.3418781 -0.216793E-06  0.186E-04    0.04      83.0  T
   7    -84.3418781 -0.453556E-08  0.224E-05    0.04     688.6  T
     SCC iter.                  ...        0 min,  0.026 sec
     gradient                   ...        0 min,  0.080 sec
 * total energy  :   -83.6149935 Eh     change       -0.1483801E-04 Eh
   gradient norm :     0.0018833 Eh/α   predicted    -0.8925250E-05 ( -39.85%)
   displ. norm   :     0.2867198 α      lambda       -0.3509220E-04
   maximum displ.:     0.1753241 α      in ANC's #1, #8, #6, ...

........................................................................
.............................. CYCLE   34 ..............................
........................................................................
   1    -84.3412110 -0.843412E+02  0.262E-02    0.05       0.0  T
   2    -84.2874104  0.538006E-01  0.609E-01    0.03       1.0  T
   3    -84.3413007 -0.538903E-01  0.692E-03    0.04       2.2  T
   4    -84.3413036 -0.295112E-05  0.467E-03    0.04       3.3  T
   5    -84.3413056 -0.198468E-05  0.256E-03    0.04       6.0  T
   6    -84.3413065 -0.819030E-06  0.455E-04    0.04      33.9  T
   7    -84.3413065 -0.274132E-07  0.825E-05    0.04     187.0  T
   8    -84.3413065 -0.858776E-09  0.155E-05    0.04     993.7  T
     SCC iter.                  ...        0 min,  0.030 sec
     gradient                   ...        0 min,  0.082 sec
 * total energy  :   -83.6150185 Eh     change       -0.2499928E-04 Eh
   gradient norm :     0.0033535 Eh/α   predicted    -0.1819111E-04 ( -27.23%)
   displ. norm   :     0.0426017 α      lambda       -0.1926905E-04
   maximum displ.:     0.0236197 α      in ANC's #1, #7, #3, ...

........................................................................
.............................. CYCLE   35 ..............................
........................................................................
   1    -84.3423128 -0.843423E+02  0.711E-03    0.04       0.0  T
   2    -84.3389067  0.340612E-02  0.154E-01    0.02       1.0  T
   3    -84.3423164 -0.340974E-02  0.507E-03    0.04       3.0  T
   4    -84.3423188 -0.235153E-05  0.271E-03    0.04       5.7  T
   5    -84.3423197 -0.893630E-06  0.620E-04    0.04      24.9  T
   6    -84.3423197 -0.406467E-07  0.841E-05    0.04     183.5  T
   7    -84.3423197 -0.632056E-09  0.286E-05    0.04     539.7  T
     SCC iter.                  ...        0 min,  0.026 sec
     gradient                   ...        0 min,  0.082 sec
 * total energy  :   -83.6150316 Eh     change       -0.1313595E-04 Eh
   gradient norm :     0.0022906 Eh/α   predicted    -0.9652866E-05 ( -26.52%)
   displ. norm   :     0.0916287 α      lambda       -0.2082654E-04
   maximum displ.:     0.0657828 α      in ANC's #1, #8, #15, ...

........................................................................
.............................. CYCLE   36 ..............................
........................................................................
   1    -84.3426333 -0.843426E+02  0.626E-03    0.04       0.0  T
   2    -84.3413048  0.132847E-02  0.959E-02    0.06       1.0  T
   3    -84.3426129 -0.130802E-02  0.132E-02    0.04       1.2  T
   4    -84.3426343 -0.214476E-04  0.461E-03    0.04       3.3  T
   5    -84.3426370 -0.265142E-05  0.134E-03    0.04      11.5  T
   6    -84.3426372 -0.217922E-06  0.301E-04    0.04      51.2  T
   7    -84.3426372 -0.125828E-07  0.135E-05    0.04    1141.5  T
   8    -84.3426372 -0.727596E-11  0.572E-06    0.04    2695.9  T
     SCC iter.                  ...        0 min,  0.030 sec
     gradient                   ...        0 min,  0.083 sec
 * total energy  :   -83.6150486 Eh     change       -0.1701162E-04 Eh
   gradient norm :     0.0014685 Eh/α   predicted    -0.1051859E-04 ( -38.17%)
   displ. norm   :     0.2653438 α      lambda       -0.2922614E-04
   maximum displ.:     0.1887357 α      in ANC's #1, #8, #15, ...

........................................................................
.............................. CYCLE   37 ..............................
........................................................................
   1    -84.3419273 -0.843419E+02  0.843E-03    0.04       0.0  T
   2    -84.3418294  0.979159E-04  0.263E-02    0.05       1.0  T
   3    -84.3411609  0.668487E-03  0.733E-02    0.03       1.0  T
   4    -84.3419069 -0.746015E-03  0.133E-02    0.04       1.2  T
   5    -84.3419283 -0.213655E-04  0.455E-03    0.04       3.4  T
   6    -84.3419310 -0.267495E-05  0.813E-04    0.04      19.0  T
   7    -84.3419310 -0.879787E-07  0.134E-04    0.04     115.5  T
   8    -84.3419310 -0.200627E-08  0.454E-05    0.04     340.1  T
     SCC iter.                  ...        0 min,  0.032 sec
     gradient                   ...        0 min,  0.079 sec
 * total energy  :   -83.6150712 Eh     change       -0.2260802E-04 Eh
   gradient norm :     0.0022187 Eh/α   predicted    -0.1507457E-04 ( -33.32%)
   displ. norm   :     0.0286183 α      lambda       -0.8053869E-05
   maximum displ.:     0.0225676 α      in ANC's #1, #4, #15, ...

........................................................................
.............................. CYCLE   38 ..............................
........................................................................
   1    -84.3421631 -0.843422E+02  0.701E-03    0.04       0.0  T
   2    -84.3387212  0.344191E-02  0.154E-01    0.02       1.0  T
   3    -84.3421697 -0.344846E-02  0.167E-03    0.04       9.3  T
   4    -84.3421700 -0.315459E-06  0.438E-04    0.04      35.3  T
   5    -84.3421700 -0.112859E-07  0.185E-04    0.04      83.3  T
   6    -84.3421700 -0.732001E-10  0.580E-05    0.04     265.9  T
     SCC iter.                  ...        0 min,  0.022 sec
     gradient                   ...        0 min,  0.080 sec
 * total energy  :   -83.6150782 Eh     change       -0.6964107E-05 Eh
   gradient norm :     0.0016399 Eh/α   predicted    -0.4030653E-05 ( -42.12%)
   displ. norm   :     0.1167913 α      lambda       -0.1985401E-04
   maximum displ.:     0.0878771 α      in ANC's #1, #4, #15, ...

........................................................................
.............................. CYCLE   39 ..............................
........................................................................
   1    -84.3425801 -0.843426E+02  0.375E-02    0.05       0.0  T
   2    -84.2405258  0.102054E+00  0.839E-01    0.06       1.0  T
   3    -84.3427424 -0.102217E+00  0.156E-02    0.04       1.0  T
   4    -84.3427728 -0.304313E-04  0.481E-03    0.04       3.2  T
   5    -84.3427751 -0.227836E-05  0.245E-03    0.04       6.3  T
   6    -84.3427759 -0.753825E-06  0.294E-04    0.04      52.4  T
   7    -84.3427759 -0.947966E-08  0.247E-05    0.04     624.8  T
   8    -84.3427759 -0.157172E-10  0.136E-05    0.04    1134.0  T
     SCC iter.                  ...        0 min,  0.029 sec
     gradient                   ...        0 min,  0.081 sec
 * total energy  :   -83.6150951 Eh     change       -0.1695754E-04 Eh
   gradient norm :     0.0017771 Eh/α   predicted    -0.9988552E-05 ( -41.10%)
   displ. norm   :     0.0907201 α      lambda       -0.7395159E-05
   maximum displ.:     0.0694189 α      in ANC's #1, #8, #15, ...

........................................................................
.............................. CYCLE   40 ..............................
........................................................................
   1    -84.3425299 -0.843425E+02  0.310E-03    0.04       0.0  T
   2    -84.3420845  0.445389E-03  0.554E-02    0.04       1.0  T
   3    -84.3425294 -0.444918E-03  0.334E-03    0.04       4.6  T
   4    -84.3425307 -0.127716E-05  0.131E-03    0.04      11.8  T
   5    -84.3425309 -0.202951E-06  0.288E-04    0.04      53.6  T
   6    -84.3425309 -0.792018E-08  0.686E-05    0.04     224.9  T
   7    -84.3425309 -0.463501E-09  0.277E-05    0.04     556.4  T
     SCC iter.                  ...        0 min,  0.026 sec
     gradient                   ...        0 min,  0.079 sec
 * total energy  :   -83.6151038 Eh     change       -0.8610163E-05 Eh
   gradient norm :     0.0014606 Eh/α   predicted    -0.3712441E-05 ( -56.88%)
   displ. norm   :     0.0946683 α      lambda       -0.7738840E-05
   maximum displ.:     0.0724659 α      in ANC's #1, #15, #4, ...

........................................................................
.............................. CYCLE   41 ..............................
........................................................................
   1    -84.3423799 -0.843424E+02  0.912E-03    0.04       0.0  T
   2    -84.3381928  0.418718E-02  0.171E-01    0.07       1.0  T
   3    -84.3423915 -0.419871E-02  0.109E-03    0.04      14.1  T
   4    -84.3423915 -0.389688E-07  0.495E-04    0.04      31.1  T
   5    -84.3423915  0.419433E-09  0.220E-04    0.04      70.1  T
   6    -84.3423915 -0.118001E-08  0.631E-05    0.04     244.6  T
   7    -84.3423915 -0.228567E-09  0.357E-05    0.04     432.1  T
     SCC iter.                  ...        0 min,  0.025 sec
     gradient                   ...        0 min,  0.080 sec
 * total energy  :   -83.6151112 Eh     change       -0.7417825E-05 Eh
   gradient norm :     0.0010626 Eh/α   predicted    -0.3886520E-05 ( -47.61%)
   displ. norm   :     0.0810617 α      lambda       -0.6300434E-05
   maximum displ.:     0.0624869 α      in ANC's #1, #3, #4, ...

........................................................................
.............................. CYCLE   42 ..............................
........................................................................
   1    -84.3424790 -0.843425E+02  0.178E-02    0.04       0.0  T
   2    -84.3294559  0.130231E-01  0.301E-01    0.09       1.0  T
   3    -84.3425224 -0.130665E-01  0.406E-03    0.04       3.8  T
   4    -84.3425245 -0.216870E-05  0.804E-04    0.04      19.2  T
   5    -84.3425246 -0.574400E-07  0.303E-04    0.04      51.0  T
   6    -84.3425246  0.691224E-08  0.234E-04    0.04      65.9  T
   7    -84.3425246 -0.765962E-08  0.195E-05    0.04     790.2  T
   8    -84.3425246  0.910632E-10  0.306E-05    0.04     503.9  T
     SCC iter.                  ...        0 min,  0.029 sec
     gradient                   ...        0 min,  0.080 sec
 * total energy  :   -83.6151164 Eh     change       -0.5242005E-05 Eh
   gradient norm :     0.0008915 Eh/α   predicted    -0.3160685E-05 ( -39.70%)
   displ. norm   :     0.0310292 α      lambda       -0.2050540E-05
   maximum displ.:     0.0229191 α      in ANC's #1, #3, #2, ...
 * RMSD in coord.:     0.3278034 α      energy gain  -0.6658002E-03 Eh

generating ANC from model Hessian ...
Using Lindh-Hessian (1995)
 Shifting diagonal of input Hessian by   9.828450849314160E-003
 Lowest  eigenvalues of input Hessian
    0.000000    0.000000    0.000000    0.000000    0.000000    0.000000
    0.010000    0.010351    0.010553    0.010791    0.011902    0.011949
    0.013324    0.014090    0.015130    0.015505    0.016353    0.017391
 Highest eigenvalues
    2.046082    2.074345    2.084376    2.221388    2.241623    2.302666
 

........................................................................
.............................. CYCLE   43 ..............................
........................................................................
   1    -84.3424831 -0.843425E+02  0.310E-03    0.04       0.0  T
   2    -84.3419269  0.556146E-03  0.621E-02    0.05       1.0  T
   3    -84.3424844 -0.557468E-03  0.672E-04    0.04      23.0  T
   4    -84.3424844 -0.355877E-07  0.329E-04    0.04      46.9  T
   5    -84.3424844 -0.852717E-08  0.175E-04    0.04      88.3  T
   6    -84.3424844 -0.232085E-08  0.772E-05    0.04     199.8  T
     SCC iter.                  ...        0 min,  0.025 sec
     gradient                   ...        0 min,  0.083 sec
 * total energy  :   -83.6151190 Eh     change       -0.2546042E-05 Eh
   gradient norm :     0.0005585 Eh/α   predicted     0.0000000E+00 (-100.00%)
   displ. norm   :     0.0132067 α      lambda       -0.1187026E-05
   maximum displ.:     0.0093151 α      in ANC's #1, #15, #3, ...

   *** GEOMETRY OPTIMIZATION CONVERGED AFTER 43 ITERATIONS ***

------------------------------------------------------------------------
 total energy gain   :        -0.0349822 Eh      -21.9516 kcal/mol
 total RMSD          :         0.8451306 a0        0.4472 Å
 total power (kW/mol):        -2.1359447 (step)  -13.7576 (real)
------------------------------------------------------------------------

 ANCopt (total)                0 d,  0 h,  0 min,  6.676 sec
 optimizer setup                ...        0 min,  0.001 sec (  0.012%)
 model hessian                  ...        0 min,  0.090 sec (  1.345%)
 ANC generation                 ...        0 min,  0.008 sec (  0.114%)
 coordinate transformation      ...        0 min,  0.002 sec (  0.025%)
 single point calculation       ...        0 min,  6.548 sec ( 98.089%)
 optimization log               ...        0 min,  0.013 sec (  0.202%)
 hessian update                 ...        0 min,  0.002 sec (  0.023%)
 rational function              ...        0 min,  0.008 sec (  0.116%)

================
 final structure:
================
42
 xtb: 6.5.1 (579679a)
C           -2.82187779014298        2.11502457516697        2.52421787303802
O           -2.38896751236214        1.25947780360138        1.47491202190239
C           -2.92641854998547        1.50619911068832        0.25201055419660
O           -3.71148104650956        2.42960677835954        0.07964474224902
C           -2.56993110790655        0.46818321675837       -0.79632402182699
C           -2.65321808954322        1.08984063569676       -2.19360131548078
N           -1.24046472428856       -0.08010622861367       -0.58450046460426
C           -1.11188889180388       -1.03417483886696        0.26419501807158
C            0.28552372446490       -1.53849401956792        0.61496982448048
C            0.55886051271817       -1.23295736198706        2.09905530187255
C            0.39737407668020       -3.04638766199731        0.34378962695473
N            1.22083029748690       -0.82321631516096       -0.24104996143526
C            2.59185156516103       -0.86260635165607       -0.06463512237645
O            3.17328723281230       -1.74078121658067        0.60746132633922
C            3.24690192845289        0.18863249974757       -0.78992196430981
N            2.65030755518864        1.14426103294559       -1.50490349060425
N            3.64778475110603        1.94317660581970       -1.99346598838369
C            4.76966027600089        1.46043830381458       -1.57034886511017
C            6.12962386580768        1.99118684673575       -1.83655344772290
O            4.61637521022668        0.35354690325066       -0.80510637398217
N           -2.16072424304284       -1.60745568432667        0.90989194967603
C           -3.49839229823065       -1.56030639311875        0.37247731547142
O           -4.28485207098664       -2.47354731460363        0.76568480740899
C           -3.73111481457199       -0.54680309814518       -0.57693648024480
O           -4.80858068180901       -0.38411190388090       -1.24920869603012
H           -2.57528450312996        3.15731042975586        2.29867402527883
H           -2.30101484665052        1.80288028983086        3.42808783797085
H           -3.90338113239945        2.03285877577712        2.67275722233437
H           -1.88743375866671        1.85579998588122       -2.31418923098524
H           -2.50295141273032        0.31861796171094       -2.94866221689458
H           -3.63523005973655        1.53955006560544       -2.33902581014167
H            1.53966073278929       -1.60606324608380        2.38879829692106
H           -0.19360618710219       -1.71320611648283        2.72195539567802
H            0.52290267387039       -0.15709577924053        2.26914584256886
H            1.39796855364721       -3.39458646560053        0.59561645523144
H           -0.32276455454671       -3.59696736360895        0.94655066470188
H            0.20800569689613       -3.25045811574384       -0.70996788778677
H            0.84394335837684        0.02539695873560       -0.66086147589930
H            6.73550960979896        1.24568011473242       -2.35200177593899
H            6.05693723002796        2.88366689124318       -2.45346660269142
H            6.62943134188331        2.24024073579703       -0.90042285045420
H           -1.99315791725344       -2.40224904638739        1.50468194055382
 
 Bond Distances (Angstroems)
 ---------------------------
C1-O2=1.4214         C1-H26=1.0945        C1-H27=1.0889        C1-H28=1.0947        O2-C1=1.4214         O2-C3=1.3584         
C3-O2=1.3584         C3-O4=1.2242         C3-C5=1.5178         O4-C3=1.2242         C5-C3=1.5178         C5-C6=1.5316         
C5-N7=1.4536         C5-C24=1.5578        C6-C5=1.5316         C6-H29=1.0898        C6-H30=1.0897        C6-H31=1.0898        
N7-C5=1.4536         N7-C8=1.2834         C8-N7=1.2834         C8-C9=1.5265         C8-N21=1.3585        C9-C8=1.5265         
C9-C10=1.5397        C9-C11=1.5362        C9-N12=1.4557        C10-C9=1.5397        C10-H32=1.0886       C10-H33=1.0885       
C10-H34=1.0898       C11-C9=1.5362        C11-H35=1.0890       C11-H36=1.0886       C11-H37=1.0899       N12-C9=1.4557        
N12-C13=1.3829       N12-H38=1.0190       C13-N12=1.3829       C13-O14=1.2494       C13-C15=1.4354       O14-C13=1.2494       
C15-C13=1.4354       C15-N16=1.3343       C15-O20=1.3795       N16-C15=1.3343       N16-N17=1.3682       N17-N16=1.3682       
N17-C18=1.2925       C18-N17=1.2925       C18-C19=1.4839       C18-O20=1.3544       C19-C18=1.4839       C19-H39=1.0902       
C19-H40=1.0874       C19-H41=1.0900       O20-C15=1.3795       O20-C18=1.3544       N21-C8=1.3585        N21-C22=1.4424       
N21-H42=1.0068       C22-N21=1.4424       C22-O23=1.2677       C22-C24=1.4081       O23-C22=1.2677       C24-C5=1.5578        
C24-C22=1.4081       C24-O25=1.2804       O25-C24=1.2804       H26-C1=1.0945        H27-C1=1.0889        H28-C1=1.0947        
H29-C6=1.0898        H30-C6=1.0897        H31-C6=1.0898        H32-C10=1.0886       H33-C10=1.0885       H34-C10=1.0898       
H35-C11=1.0890       H36-C11=1.0886       H37-C11=1.0899       H38-N12=1.0190       H39-C19=1.0902       H40-C19=1.0874       
H41-C19=1.0900       H42-N21=1.0068       
 C  H  Rav=1.0900 sigma=0.0020  Rmin=1.0874  Rmax=1.0947    15
 C  C  Rav=1.5041 sigma=0.0483  Rmin=1.4081  Rmax=1.5578     9
 N  H  Rav=1.0129 sigma=0.0061  Rmin=1.0068  Rmax=1.0190     2
 N  C  Rav=1.3754 sigma=0.0656  Rmin=1.2834  Rmax=1.4557     8
 N  N  Rav=1.3682 sigma=0.0000  Rmin=1.3682  Rmax=1.3682     1
 O  C  Rav=1.3169 sigma=0.0660  Rmin=1.2242  Rmax=1.4214     8
 
 selected bond angles (degree)
 --------------------
H26-C1-O2=110.64               H27-C1-O2=107.13               H27-C1-H26=109.65              H28-C1-O2=110.85               
H28-C1-H26=108.78              H28-C1-H27=109.78              C3-O2-C1=115.77                O4-C3-O2=121.16                
C5-C3-O2=113.87                C5-C3-O4=124.70                C6-C5-C3=109.86                N7-C5-C3=111.85                
N7-C5-C6=109.62                C24-C5-C3= 99.98               C24-C5-C6=110.63               C24-C5-N7=114.55               
H29-C6-C5=110.37               H30-C6-C5=109.72               H30-C6-H29=108.90              H31-C6-C5=109.77               
H31-C6-H29=109.17              H31-C6-H30=108.89              C8-N7-C5=117.93                C9-C8-N7=119.29                
N21-C8-N7=123.41               N21-C8-C9=117.27               C10-C9-C8=108.57               C11-C9-C8=110.51               
C11-C9-C10=110.61              N12-C9-C8=106.90               N12-C9-C10=110.81              N12-C9-C11=109.37              
H32-C10-C9=110.39              H33-C10-C9=109.96              H33-C10-H32=108.62             H34-C10-C9=109.91              
H34-C10-H32=109.06             H34-C10-H33=108.87             
 
 selected dihedral angles (degree)
 ---------------------------------
C3-O2-C1-H26=300.09           C3-O2-C1-H27=180.62           C3-O2-C1-H28= 60.86           O4-C3-O2-C1=  1.44            
C5-C3-O2-C1=187.13            C6-C5-C3-O2=205.07            C6-C5-C3-O4= 30.99            N7-C5-C3-O2=327.04            
N7-C5-C3-O4=152.96            C24-C5-C3-O2= 88.71           C24-C5-C3-O4=274.63           H29-C6-C5-C3= 66.08           
H29-C6-C5-N7=302.80           H29-C6-C5-C24=175.53          H30-C6-C5-C3=186.08           H30-C6-C5-N7= 62.80           
H30-C6-C5-C24=295.53          H31-C6-C5-C3=305.71           H31-C6-C5-N7=182.42           H31-C6-C5-C24= 55.15          
C8-N7-C5-C3= 83.06            C8-N7-C5-C6=205.17            C8-N7-C5-C24=330.21           C9-C8-N7-C5=186.09            
N21-C8-N7-C5=  4.11           C10-C9-C8-N7=115.19           C10-C9-C8-N21=297.05          C11-C9-C8-N7=236.67           
C11-C9-C8-N21= 58.53          N12-C9-C8-N7=355.60           N12-C9-C8-N21=177.47          H32-C10-C9-C8=178.43          
H32-C10-C9-C11= 57.01         H32-C10-C9-N12=295.54         H33-C10-C9-C8= 58.60          H33-C10-C9-C11=297.18         
H33-C10-C9-N12=175.71         H34-C10-C9-C8=298.77          H34-C10-C9-C11=177.35         H34-C10-C9-N12= 55.88         
           -------------------------------------------------
          |                Final Singlepoint                |
           -------------------------------------------------

          ...................................................
          :                      SETUP                      :
          :.................................................:
          :  # basis functions                 134          :
          :  # atomic orbitals                 134          :
          :  # shells                           84          :
          :  # electrons                       136          :
          :  # halogen bonds                     0          :
          :  max. iterations                   250          :
          :  Hamiltonian                  GFN1-xTB          :
          :  restarted?                      false          :
          :  GBSA solvation                   true          :
          :  PC potential                    false          :
          :  electronic temp.          300.0000000     K    :
          :  accuracy                    1.0000000          :
          :  -> integral cutoff          0.2500000E+02      :
          :  -> integral neglect         0.1000000E-07      :
          :  -> SCF convergence          0.1000000E-05 Eh   :
          :  -> wf. convergence          0.2000000E-04 e    :
          :  Broyden damping             0.4000000          :
          ...................................................

 iter      E             dE          RMSdq      gap      omega  full diag
   1    -84.3424844 -0.843425E+02  0.929E-06    0.04       0.0  T
   2    -84.3424844  0.469045E-08  0.180E-04    0.04      85.7  T
   3    -84.3424844 -0.469981E-08  0.336E-06    0.04    4595.7  T

   *** convergence criteria satisfied after 3 iterations ***

         #    Occupation            Energy/Eh            Energy/eV
      -------------------------------------------------------------
         1        2.0000           -0.8053162             -21.9138
       ...           ...                  ...                  ...
        62        2.0000           -0.4044211             -11.0049
        63        2.0000           -0.3996479             -10.8750
        64        2.0000           -0.3893761             -10.5955
        65        2.0000           -0.3807417             -10.3605
        66        2.0000           -0.3753875             -10.2148
        67        2.0000           -0.3445953              -9.3769
        68        1.3917           -0.2688616              -7.3161 (HOMO)
        69        0.6083           -0.2672889              -7.2733 (LUMO)
        70                         -0.2223017              -6.0491
        71                         -0.2133142              -5.8046
        72                         -0.2032680              -5.5312
        73                         -0.1421998              -3.8695
       ...                                ...                  ...
       134                          0.7150564              19.4577
      -------------------------------------------------------------
                  HL-Gap            0.0015726 Eh            0.0428 eV
             Fermi-level           -0.2680753 Eh           -7.2947 eV

 SCC (total)                   0 d,  0 h,  0 min,  0.138 sec
 SCC setup                      ...        0 min,  0.002 sec (  1.516%)
 Dispersion                     ...        0 min,  0.000 sec (  0.271%)
 classical contributions        ...        0 min,  0.000 sec (  0.092%)
 integral evaluation            ...        0 min,  0.037 sec ( 27.265%)
 iterations                     ...        0 min,  0.013 sec (  9.498%)
 molecular gradient             ...        0 min,  0.083 sec ( 60.506%)
 printout                       ...        0 min,  0.001 sec (  0.796%)

         :::::::::::::::::::::::::::::::::::::::::::::::::::::
         ::                     SUMMARY                     ::
         :::::::::::::::::::::::::::::::::::::::::::::::::::::
         :: total energy             -83.615118961752 Eh    ::
         :: total w/o Gsasa/hb       -83.597016058650 Eh    ::
         :: gradient norm              0.000560516024 Eh/a0 ::
         :: HOMO-LUMO gap              0.042793589906 eV    ::
         ::.................................................::
         :: SCC energy               -84.342484441244 Eh    ::
         :: -> electrostatic           0.700912588422 Eh    ::
         :: -> Gsolv                  -0.271617900302 Eh    ::
         ::    -> Gelec               -0.253514997200 Eh    ::
         ::    -> Gsasa               -0.023367031100 Eh    ::
         ::    -> Ghb                 -0.002360151006 Eh    ::
         ::    -> Gshift               0.007624279005 Eh    ::
         :: repulsion energy           0.754421957682 Eh    ::
         :: dispersion energy         -0.027056478191 Eh    ::
         :: halogen bond corr.         0.000000000000 Eh    ::
         :: add. restraining           0.000000000000 Eh    ::
         :: total charge              -2.000000000000 e     ::
         :::::::::::::::::::::::::::::::::::::::::::::::::::::

           -------------------------------------------------
          |                Property Printout                |
           -------------------------------------------------

    * Orbital Energies and Occupations

         #    Occupation            Energy/Eh            Energy/eV
      -------------------------------------------------------------
         1        2.0000           -0.8053162             -21.9138
       ...           ...                  ...                  ...
        56        2.0000           -0.4461227             -12.1396
        57        2.0000           -0.4431421             -12.0585
        58        2.0000           -0.4331342             -11.7862
        59        2.0000           -0.4245265             -11.5520
        60        2.0000           -0.4109636             -11.1829
        61        2.0000           -0.4076783             -11.0935
        62        2.0000           -0.4044211             -11.0049
        63        2.0000           -0.3996479             -10.8750
        64        2.0000           -0.3893761             -10.5955
        65        2.0000           -0.3807417             -10.3605
        66        2.0000           -0.3753875             -10.2148
        67        2.0000           -0.3445953              -9.3769
        68        1.3917           -0.2688616              -7.3161 (HOMO)
        69        0.6083           -0.2672889              -7.2733 (LUMO)
        70                         -0.2223017              -6.0491
        71                         -0.2133142              -5.8046
        72                         -0.2032680              -5.5312
        73                         -0.1421998              -3.8695
        74                         -0.1261738              -3.4334
        75                         -0.1222920              -3.3277
        76                         -0.1137541              -3.0954
        77                         -0.1048999              -2.8545
        78                         -0.0982588              -2.6738
        79                         -0.0883654              -2.4045
       ...                                ...                  ...
       134                          0.7150564              19.4577
      -------------------------------------------------------------
                  HL-Gap            0.0015726 Eh            0.0428 eV
             Fermi-level           -0.2680753 Eh           -7.2947 eV

  Mulliken/CM5 charges         n(s)   n(p)   n(d)
     1C     0.17533  0.05584   0.970  2.855  0.000
     2O    -0.43927 -0.52154   1.691  4.748  0.000
     3C     0.53261  0.59484   0.994  2.474  0.000
     4O    -0.61495 -0.66392   1.736  4.879  0.000
     5C     0.11050  0.16459   1.067  2.822  0.000
     6C    -0.07144 -0.20839   1.004  3.067  0.000
     7N    -0.47669 -0.66320   1.549  3.927  0.000
     8C     0.27889  0.43274   1.013  2.708  0.000
     9C     0.15628  0.19783   1.060  2.784  0.000
    10C    -0.09678 -0.23634   1.015  3.082  0.000
    11C    -0.09672 -0.23613   1.015  3.082  0.000
    12N    -0.37501 -0.71512   1.436  3.939  0.000
    13C     0.39858  0.49934   0.972  2.630  0.000
    14O    -0.66235 -0.70592   1.743  4.920  0.000
    15C     0.27444  0.39054   1.003  2.723  0.000
    16N    -0.33265 -0.43594   1.581  3.751  0.000
    17N    -0.30459 -0.41259   1.570  3.735  0.000
    18C     0.35783  0.46663   0.994  2.648  0.000
    19C    -0.11034 -0.24762   1.008  3.102  0.000
    20O    -0.39531 -0.44447   1.706  4.690  0.000
    21N    -0.36276 -0.70478   1.442  3.921  0.000
    22C     0.33456  0.42376   0.987  2.679  0.000
    23O    -0.71433 -0.74951   1.756  4.959  0.000
    24C     0.19688  0.23754   1.023  2.780  0.000
    25O    -0.70407 -0.74447   1.762  4.942  0.000
    26H     0.03204  0.09382   0.968  0.000  0.000
    27H     0.03260  0.09294   0.967  0.000  0.000
    28H     0.03411  0.09561   0.966  0.000  0.000
    29H     0.00997  0.06623   0.990  0.000  0.000
    30H     0.01752  0.07385   0.982  0.000  0.000
    31H     0.02995  0.09027   0.970  0.000  0.000
    32H     0.04339  0.10342   0.957  0.000  0.000
    33H     0.02570  0.08251   0.974  0.000  0.000
    34H     0.02775  0.08501   0.972  0.000  0.000
    35H     0.04333  0.10342   0.957  0.000  0.000
    36H     0.02563  0.08200   0.974  0.000  0.000
    37H     0.02564  0.08216   0.974  0.000  0.000
    38H     0.21084  0.42519   0.789  0.000  0.000
    39H     0.05606  0.11035   0.944  0.000  0.000
    40H     0.04898  0.10484   0.951  0.000  0.000
    41H     0.05648  0.11084   0.944  0.000  0.000
    42H     0.22137  0.42385   0.779  0.000  0.000

Wiberg/Mayer (AO) data.
largest (>0.10) Wiberg bond orders for each atom

 ---------------------------------------------------------------------------
     #   Z sym  total        # sym  WBO       # sym  WBO       # sym  WBO
 ---------------------------------------------------------------------------
     1   6 C    3.898 --    27 H    0.987    26 H    0.981    28 H    0.981
                             2 O    0.922
     2   8 O    2.148 --     3 C    1.047     1 C    0.922     4 O    0.107
     3   6 C    3.782 --     4 O    1.592     2 O    1.047     5 C    0.949
     4   8 O    1.859 --     3 C    1.592     2 O    0.107
     5   6 C    3.957 --     6 C    0.991     7 N    0.978     3 C    0.949
                            24 C    0.873
     6   6 C    3.991 --     5 C    0.991    29 H    0.989    30 H    0.988
                            31 H    0.984
     7   7 N    2.963 --     8 C    1.649     5 C    0.978    21 N    0.149
     8   6 C    3.933 --     7 N    1.649    21 N    1.180     9 C    0.970
     9   6 C    3.952 --    11 C    0.987    10 C    0.979     8 C    0.970
                            12 N    0.950
    10   6 C    3.991 --    34 H    0.987    33 H    0.986    32 H    0.981
                             9 C    0.979
    11   6 C    3.992 --     9 C    0.987    37 H    0.987    36 H    0.985
                            35 H    0.981
    12   7 N    3.185 --    13 C    1.128     9 C    0.950    38 H    0.895
                            14 O    0.122
    13   6 C    3.772 --    14 O    1.447    15 C    1.130    12 N    1.128
    14   8 O    1.701 --    13 C    1.447    12 N    0.122
    15   6 C    3.692 --    16 N    1.411    13 C    1.130    20 O    0.982
    16   7 N    2.759 --    15 C    1.411    17 N    1.185
    17   7 N    2.980 --    18 C    1.628    16 N    1.185
    18   6 C    3.822 --    17 N    1.628    20 O    1.051    19 C    1.024
    19   6 C    3.994 --    18 C    1.024    40 H    0.986    41 H    0.971
                            39 H    0.971
    20   8 O    2.190 --    18 C    1.051    15 C    0.982
    21   7 N    3.317 --     8 C    1.180    22 C    0.944    42 H    0.914
                             7 N    0.149
    22   6 C    3.746 --    23 O    1.379    24 C    1.264    21 N    0.944
    23   8 O    1.596 --    22 C    1.379
    24   6 C    3.743 --    25 O    1.361    22 C    1.264     5 C    0.873
    25   8 O    1.571 --    24 C    1.361
    26   1 H    1.014 --     1 C    0.981
    27   1 H    1.016 --     1 C    0.987
    28   1 H    1.013 --     1 C    0.981
    29   1 H    1.011 --     6 C    0.989
    30   1 H    1.013 --     6 C    0.988
    31   1 H    1.027 --     6 C    0.984
    32   1 H    1.016 --    10 C    0.981
    33   1 H    1.006 --    10 C    0.986
    34   1 H    1.007 --    10 C    0.987
    35   1 H    1.020 --    11 C    0.981
    36   1 H    1.005 --    11 C    0.985
    37   1 H    1.009 --    11 C    0.987
    38   1 H    0.997 --    12 N    0.895
    39   1 H    1.001 --    19 C    0.971
    40   1 H    1.004 --    19 C    0.986
    41   1 H    1.001 --    19 C    0.971
    42   1 H    0.969 --    21 N    0.914
 ---------------------------------------------------------------------------

Topologies differ in total number of bonds
Writing topology from bond orders to xtbtopo.mol

 dipole moment from electron density (au)
     X       Y       Z   
   7.8229   1.7974   2.4186  total (Debye):   21.308

           -------------------------------------------------
          |                Geometry Summary                 |
           -------------------------------------------------

      molecular mass/u    :      351.3152409
   center of mass at/Å    :       -0.2053480      -0.0337697      -0.1308535
  moments of inertia/u·Å² :        0.1299617E+04   0.4170678E+04   0.4686008E+04
rotational constants/cm⁻¹ :        0.1297123E-01   0.4041941E-02   0.3597440E-02

 * 34 selected distances

     #   Z          #   Z                                           value/Å
     1   6 C        2   8 O                                       1.4214129
     2   8 O        3   6 C                                       1.3583863
     3   6 C        4   8 O                                       1.2242202
     5   6 C        6   6 C                                       1.5315936
     7   7 N        8   6 C                                       1.2833795
     9   6 C       10   6 C                                       1.5396674 (max)
     9   6 C       11   6 C                                       1.5361617
     9   6 C       12   7 N                                       1.4557441
    12   7 N       13   6 C                                       1.3828859
    13   6 C       15   6 C                                       1.4353520
    15   6 C       16   7 N                                       1.3342974
    17   7 N       18   6 C                                       1.2925438
    18   6 C       19   6 C                                       1.4839341
    15   6 C       20   8 O                                       1.3794509
    18   6 C       20   8 O                                       1.3543638
     8   6 C       21   7 N                                       1.3585402
    22   6 C       24   6 C                                       1.4080965
     1   6 C       26   1 H                                       1.0945494
     1   6 C       27   1 H                                       1.0889047
     1   6 C       28   1 H                                       1.0947442
     6   6 C       29   1 H                                       1.0897986
     6   6 C       30   1 H                                       1.0897163
     6   6 C       31   1 H                                       1.0898324
    10   6 C       32   1 H                                       1.0886360
    10   6 C       33   1 H                                       1.0885080
    10   6 C       34   1 H                                       1.0898175
    11   6 C       35   1 H                                       1.0889668
    11   6 C       36   1 H                                       1.0886040
    11   6 C       37   1 H                                       1.0899130
    12   7 N       38   1 H                                       1.0190339
    19   6 C       39   1 H                                       1.0902133
    19   6 C       40   1 H                                       1.0873758
    19   6 C       41   1 H                                       1.0900349
    21   7 N       42   1 H                                       1.0067523 (min)

 * 5 distinct bonds (by element types)

   Z      Z             #   av. dist./Å        max./Å        min./Å
   1 H    6 C          15     1.0899743     1.0947442     1.0873758
   6 C    6 C           6     1.4891342     1.5396674     1.4080965
   1 H    7 N           2     1.0128931     1.0190339     1.0067523
   6 C    7 N           6     1.3512318     1.4557441     1.2833795
   6 C    8 O           5     1.3475668     1.4214129     1.2242202


optimized geometry written to: xtbopt.xyz


           -------------------------------------------------
          | TOTAL ENERGY              -83.615118961752 Eh   |
          | GRADIENT NORM               0.000560516024 Eh/α |
          | HOMO-LUMO GAP               0.042793589906 eV   |
           -------------------------------------------------

------------------------------------------------------------------------
 * finished run on 2023/06/21 at 17:10:43.541     
------------------------------------------------------------------------
 total:
 * wall-time:     0 d,  0 h,  0 min,  7.228 sec
 *  cpu-time:     0 d,  0 h,  0 min,  7.063 sec
 * ratio c/w:     0.977 speedup
 SCF:
 * wall-time:     0 d,  0 h,  0 min,  0.281 sec
 *  cpu-time:     0 d,  0 h,  0 min,  0.210 sec
 * ratio c/w:     0.746 speedup
 ANC optimizer:
 * wall-time:     0 d,  0 h,  0 min,  6.822 sec
 *  cpu-time:     0 d,  0 h,  0 min,  6.799 sec
 * ratio c/w:     0.997 speedup

