42
 energy: -82.994892267390 gnorm: 0.000734676037 xtb: 6.5.1 (579679a)
C           -4.41302481567563        2.93000232739600       -1.94147544413509
O           -4.12400578844935        1.81383947459306       -1.09935946735998
C           -2.84332023825102        1.43911346373077       -1.03678598699572
O           -1.97976272000631        2.01071763116756       -1.68311774649137
C           -2.60382067971922        0.33704603266406       -0.09423238572184
C           -3.51862070557214        0.07085392218223        0.96301913681646
O           -4.63672161894634        0.56859055172958        1.09738450687960
C           -3.02765277210468       -0.88342028513711        2.02188306621944
O           -3.66514450449351       -1.25432951363875        2.98533002973097
N           -1.71878048233622       -1.31612424618079        1.86524200708068
C           -0.91052501229252       -1.09012838908951        0.80429948186160
C            0.43664088207756       -1.80720205560825        0.82852511136763
C            0.29292393478815       -3.14991093427241        0.09404643349001
C            0.91518593990491       -2.05883496402189        2.26824497528864
N            1.43064225993711       -0.92456169281149        0.21283973213475
C            2.65269821304325       -1.35006958238863       -0.20541001990574
O            2.99404557534060       -2.50848701194352       -0.34380255879936
C            3.55335948882634       -0.21775646342583       -0.52597825624061
N            4.76871198452496       -0.27569869148370       -0.97416027602770
N            5.20511366909248        1.00772890180468       -1.09569029103624
C            4.23020628898605        1.77323633932661       -0.71321056846694
C            4.21214646942399        3.25031516412421       -0.64781141532829
O            3.15372862966730        1.06013632717316       -0.34103639807718
N           -1.36802536361381       -0.33229165627040       -0.17031448600932
C           -0.63844205542139       -0.23815034748332       -1.44334344199822
H           -3.89061720239392        3.82071229020548       -1.58284676220121
H           -4.10037245307135        2.72063497277502       -2.96733616887632
H           -5.49032082517589        3.08216566600646       -1.89988777383094
H           -1.39251226106104       -1.91312230302455        2.60942434113685
H            1.12970009535761       -3.80027915779582        0.33902328048503
H           -0.62946512996772       -3.62909406629820        0.41878622209656
H            0.26194328593198       -3.01437385968171       -0.98441724408731
H            0.31996125028470       -2.82773126612062        2.75641966794688
H            1.94600234656642       -2.40778353945372        2.22616102950116
H            0.88100605892226       -1.14016560691818        2.85014110380965
H            1.35758219228058        0.04860000592825        0.46781634120203
H            5.16261145502182        3.64323777915538       -1.00208760078884
H            4.04345324020135        3.57248062847655        0.38012852912092
H            3.40021759966496        3.64230770737565       -1.26061078039798
H           -0.02258392750619       -1.11890333285547       -1.57742053834608
H           -0.01546606669167        0.65361402202415       -1.44534249824916
H           -1.35869723709007       -0.18691624190043       -2.25572988680820
