42
 energy: -83.592302380705 gnorm: 0.000635158333 xtb: 6.5.1 (579679a)
C           -5.28316120460116       -1.88636856266684       -1.60377050901074
O           -4.07971278134806       -1.37043023991874       -1.08116330032080
C           -4.02698412987598        0.04362109217966       -1.00238208142544
O           -5.02362528757970        0.68245778230780       -1.38468407932834
C           -2.80600800864921        0.51373063924188       -0.47668064253919
C           -2.50311031287534        1.94968482020527       -0.29889251195525
O           -3.30988418689090        2.87693156559061       -0.61615038540016
C           -1.23841382730386        2.20360225248691        0.24814343216244
O           -0.68718560425790        3.46231138159881        0.47954863651242
C           -1.45161656345746        4.34381658621411        1.29067412316135
N           -0.37836775184140        1.16195839170427        0.62741144487294
C           -0.72466733635864       -0.13846461643207        0.36659737049414
C            0.26814332197377       -1.20660141278241        0.79437645302973
C            0.18027153157475       -1.34286334720472        2.32425052615814
C           -0.07622632476741       -2.53690394676084        0.10940136566025
N            1.60543942419825       -0.74259222087952        0.40855205549574
C            2.72758111626850       -1.56212751301396        0.58737294772446
O            2.75070630658467       -2.52045243763936        1.39300774812066
C            3.85872808822394       -1.16372678324983       -0.18751897456832
N            5.07681347662732       -1.71711957981024       -0.20377341901102
N            5.81205541406429       -1.01001441981239       -1.11316171979363
C            5.04824293080358       -0.08802875795865       -1.60258350212906
C            5.40921589718768        0.92724898594001       -2.62691970554124
O            3.79647150730947       -0.10596106168276       -1.08097652017502
N           -1.86295962095539       -0.46321512587406       -0.13260131729525
H           -5.45805639121141       -1.54064730254635       -2.63147113518644
H           -5.20026253045455       -2.97494644589670       -1.60448405523112
H           -6.14754220455241       -1.59418959595154       -0.99250434204351
H           -2.40187790144702        4.60675984729898        0.80929849295753
H           -0.85558104846120        5.24840329370313        1.42521762534233
H           -1.65854501788335        3.90370575381599        2.27451858459412
H            0.54550757371357        1.39931570993951        0.94468024654477
H           -0.84680932984414       -1.57133676504645        2.60961778514987
H            0.83078467420580       -2.13762064370545        2.68506331340838
H            0.47530930247266       -0.40525247271723        2.79438147253006
H           -1.11249958395178       -2.79691562352256        0.32620367117173
H            0.57445211064815       -3.33257816513886        0.46869251992727
H            0.03922862493222       -2.44101785798230       -0.97026884766183
H            1.62324248739395       -0.22233048787102       -0.45911625868964
H            6.28436593796838        1.49259009483674       -2.30686846495604
H            4.57762738603661        1.61164970300458       -2.77889169598933
H            5.64890683638323        0.44391648600149       -3.57466534677122
