42
 energy: -83.654902999547 gnorm: 0.000681542937 xtb: 6.5.1 (579679a)
C            5.68133793439329       -1.95445214923756        2.04962933560738
O            5.04901189468800       -0.82795968395759        1.45297886660164
C            3.92319277917645       -1.07771785486634        0.75599840379533
O            3.47463753178480       -2.20497404608185        0.65806101621800
C            3.32075190330319        0.12488829063841        0.14222194126206
N            2.18500231172575       -0.11804959847947       -0.58068780095207
C            1.59993692719838        0.90292462099567       -1.17282673032622
C            0.34670581164562        0.57278114291724       -1.98485664017253
C           -0.20866938141324        1.83715981280310       -2.65581341686362
C            0.73141115543796       -0.47658799071334       -3.04025351508436
N           -0.61878502804571        0.00147726339889       -1.04272215633188
C           -1.94016106447776       -0.26565383105507       -1.41698337764467
O           -2.26478296916262       -0.45616633799589       -2.60688292037441
C           -2.80108803759377       -0.34317971771817       -0.29182827782136
N           -2.44493411798068       -0.10429749043319        0.96057540187350
N           -3.45388139471157       -0.23636768086232        1.77622014716723
C           -4.62402033591900       -0.60704947211578        0.96520589740641
C           -5.71853015890761        0.46567871772404        1.10878820433351
C           -5.15485404321852       -1.98055057560431        1.41375899594967
O           -4.16848722588095       -0.66936527869580       -0.37843192072748
N            1.99082740696062        2.17875959397386       -1.14249349768848
C            3.10002509045969        2.50021660174494       -0.44186811015639
O            3.55999738415978        3.65890667989136       -0.33986098206119
C            3.80061356008602        1.40647244585582        0.23426987805297
O            4.91007141270741        1.77965534142959        0.91751080405499
H            5.93055776208238       -2.70179216995270        1.29027581265091
H            5.02611635854533       -2.41243949587532        2.79664554905271
H            6.59067242365463       -1.59216780328920        2.52604143006543
H           -0.50155274062216        2.56628541473630       -1.90000411080582
H           -1.07250773851207        1.59488455852578       -3.27337537019995
H            0.56097129064342        2.28348537088282       -3.28483352561035
H            1.49788456737165       -0.06931555567901       -3.69944652722890
H           -0.13259427217305       -0.76089355876333       -3.63885388034581
H            1.13084027839759       -1.36160497985345       -2.54326543402148
H           -0.52480916761105        0.35220494245769       -0.09486243818411
H           -6.57924285321614        0.21302863784205        0.49200458895818
H           -5.32427573175525        1.42976118890319        0.79124241150605
H           -6.02913534214930        0.53503104288117        2.14924155974216
H           -6.01042417036601       -2.27219670691647        0.80724179972994
H           -4.36934531552904       -2.72677698613582        1.30324251678379
H           -5.45418885589919       -1.93304480095988        2.45865633142807
H            4.98570316072313        2.74900609763795        0.78467574036455
