42
 energy: -83.004158991236 gnorm: 0.000472094999 xtb: 6.5.1 (579679a)
C           -5.33629299206891        0.43968408679785        2.15246698027481
O           -4.14154183982255        0.27641916237409        1.37567808848787
C           -4.12986916341368        0.83948097423812        0.17972209836576
O           -5.04850344385804        1.46031487924365       -0.29221827858954
C           -2.81985795907640        0.57329777276477       -0.54522885768399
N           -1.75143810558384        0.19282215926163        0.29744450139157
C           -0.69662309767451       -0.29657753745335       -0.22256242889634
C            0.48303937364940       -0.65536589341909        0.65678530696264
C            0.37161349391225        0.05259986634296        2.00988707097210
C            0.50147546817641       -2.18170271119059        0.83072047465418
N            1.69210539965038       -0.21196385797808       -0.04322400656801
C            2.93924575089051       -0.40812265651530        0.44384749727020
O            3.22089455922469       -1.06206517464749        1.43036976437187
C            3.94550046169524        0.28357842634057       -0.40100923854350
N            3.69290571342350        1.03348253730872       -1.43154007102900
N            4.89288771521223        1.47764629979114       -1.89768008986688
C            5.80200625762881        0.97158691242487       -1.11987086389180
C            7.26761282892031        1.15235527093900       -1.20652111715958
O            5.26561148482446        0.21021811030326       -0.15509348689907
N           -0.58171763145807       -0.62949712940782       -1.55758721514371
C           -1.65570866901146       -0.67644455589037       -2.41740208977385
O           -1.63383041997439       -1.34561727460603       -3.42741169326897
C           -2.83469543913465        0.14290946528091       -1.98582156377932
C           -4.10023089636446       -0.05659174380547       -2.78433857110007
O           -2.51069020396589        1.45032463965148       -1.58624691379999
H           -5.17536689851316       -0.09950734705226        3.08288547879300
H           -5.51013547233881        1.49960094783944        2.34861623112168
H           -6.18916067493294        0.02426728783558        1.61221897704705
H           -0.55777643894808       -0.24038126636513        2.49502844292814
H            1.21046082622371       -0.22616056608203        2.64441020988521
H            0.37038767331401        1.13207290756046        1.86750284197372
H           -0.45326958245372       -2.50880979856368        1.23923672112798
H            1.29787678965612       -2.47144268501603        1.51300775836147
H            0.66284649226807       -2.66697137381024       -0.13005944850385
H            1.58943109107857        0.42888309932040       -0.81640832724561
H            7.51010440680283        1.76795256747512       -2.06899139678407
H            7.63828913441496        1.63122721797325       -0.30058132234956
H            7.75625485679314        0.18305023096923       -1.29909481032302
H            0.22707532743087       -1.15924970842675       -1.84721781511495
H           -4.54478254920806       -1.01999510339007       -2.54118437807036
H           -3.85544061547653       -0.04507392389626       -3.84618862223052
H           -4.81069101190928        0.73776648547773       -2.56911383736976
