9
 energy: -15.745940473355 gnorm: 0.000516515981 xtb: 6.5.1 (579679a)
C           -1.04031315175379       -0.41437978217496       -0.07156629332041
B            0.46535274967317        0.04410535871665        0.02093554078974
O            1.45235257710708       -0.90063458331684        0.03727586691714
O            0.84772991216577        1.36213411534484        0.09332126614828
H           -1.12071098112379       -1.47552504317822       -0.30225209522243
H           -1.57775078131155        0.14717872915732       -0.83385650305526
H           -1.54932245683600       -0.23531300902182        0.87540386379290
H            2.34664911061537       -0.56643608102438        0.09943659495988
H            0.17601302146375        2.03887029549741        0.08130175899017
