46
 energy: -86.340183257315 gnorm: 0.000910665973 xtb: 6.5.1 (579679a)
C           -4.86244570335099       -2.75659957978861       -0.58914402121404
O           -4.27744927416214       -1.50249283988099       -0.19832237601184
C           -2.96573491238076       -1.42533795432033       -0.21568590790703
O           -2.22866662497795       -2.32396807340908       -0.53749306453358
C           -2.47616713354130       -0.07872416713341        0.26289217583077
C           -3.12497947769799        0.63669285088106        1.22187093918937
O           -4.27348940153725        0.26762802893804        1.76771039387076
C           -2.57508307423653        1.90246891756560        1.68781726722402
O           -3.17052030075109        2.62932673409331        2.45251348215366
N           -1.30340817766450        2.22298391806540        1.19364401598733
C           -0.87351745461878        3.56322679185928        1.62179305347167
C           -0.60652953457591        1.42133774326924        0.36240166121085
C            0.89853854257519        1.63002094668846        0.13879245121324
C            1.15426055327256        2.60218349944321       -1.02418682351890
C            1.62500107928889        2.08710718840299        1.42081804410898
N            1.44347026939734        0.30179718742405       -0.14397585003118
C            2.65995952285453        0.08734441734370       -0.72975204309366
O            3.35734647665938        0.93026976589756       -1.24895474626815
C            2.97787806390392       -1.35732230582304       -0.69090838477224
N            2.20412806943648       -2.29368872548428       -0.22591422122785
N            2.86213422494077       -3.46959477002637       -0.40452509866654
C            3.99765920488058       -3.17788161209563       -0.96905770341358
C            5.07631022553919       -4.10736142551317       -1.36885142168603
O            4.12547522673514       -1.85961462768506       -1.17526756088732
N           -1.23925613465881        0.38124303254827       -0.19039756671405
C           -0.75318839869179       -0.24114829264337       -1.43930968536274
H           -5.93602772705513       -2.64876028396710       -0.44662974906684
H           -4.63039081435452       -2.95713473577990       -1.63727896162018
H           -4.46638914738404       -3.56002690229642        0.03587455376245
H           -4.57600310837588        0.93917068521460        2.40792309119725
H           -1.76689606104061        4.18722640072744        1.64568738638503
H           -0.45115657911328        3.51236918802614        2.62318071313413
H           -0.16694100376929        3.97629877771941        0.91394410459355
H            1.05403527286786        2.09735481043886       -1.98240556085259
H            0.44165503173723        3.42296442324252       -0.98843940397234
H            2.16194047676260        3.00576793763637       -0.94920305116063
H            2.66777661384220        1.78513390986775        1.32927747481589
H            1.60800451082549        3.16503007062264        1.54533933991844
H            1.19976832584648        1.60599352577827        2.29900972636235
H            1.11134759920326       -0.43924022801956        0.45663257248745
H            5.97421795555016       -3.90686724210031       -0.78320519485761
H            4.75694901464101       -5.13351772663249       -1.20373375740094
H            5.32037493623668       -3.96101595268473       -2.42097273643096
H           -0.08976587055285        0.44577559395057       -1.94921930726381
H           -1.62066801033556       -0.42805015917251       -2.06832375992030
H           -0.24355727218011       -1.17836774116795       -1.22308048906458
