      -----------------------------------------------------------      
     |                   =====================                   |     
     |                           x T B                           |     
     |                   =====================                   |     
     |                         S. Grimme                         |     
     |          Mulliken Center for Theoretical Chemistry        |     
     |                    University of Bonn                     |     
      -----------------------------------------------------------      

   * xtb version 6.5.1 (579679a) compiled by 'ehlert@majestix' on 2022-07-11

   xtb is free software: you can redistribute it and/or modify it under
   the terms of the GNU Lesser General Public License as published by
   the Free Software Foundation, either version 3 of the License, or
   (at your option) any later version.
   
   xtb is distributed in the hope that it will be useful,
   but WITHOUT ANY WARRANTY; without even the implied warranty of
   MERCHANTABILITY or FITNESS FOR A PARTICULAR PURPOSE.  See the
   GNU Lesser General Public License for more details.
   
   Cite this work as:
   * C. Bannwarth, E. Caldeweyher, S. Ehlert, A. Hansen, P. Pracht,
     J. Seibert, S. Spicher, S. Grimme, WIREs Comput. Mol. Sci., 2020, 11,
     e01493. DOI: 10.1002/wcms.1493
   
   for GFN2-xTB:
   * C. Bannwarth, S. Ehlert and S. Grimme., J. Chem. Theory Comput., 2019,
     15, 1652-1671. DOI: 10.1021/acs.jctc.8b01176
   for GFN1-xTB:
   * S. Grimme, C. Bannwarth, P. Shushkov, J. Chem. Theory Comput., 2017,
     13, 1989-2009. DOI: 10.1021/acs.jctc.7b00118
   for GFN0-xTB:
   * P. Pracht, E. Caldeweyher, S. Ehlert, S. Grimme, ChemRxiv, 2019, preprint.
     DOI: 10.26434/chemrxiv.8326202.v1
   for GFN-FF:
   * S. Spicher and S. Grimme, Angew. Chem. Int. Ed., 2020, 59, 15665-15673.
     DOI: 10.1002/anie.202004239
   
   for ALPB and GBSA implicit solvation:
   * S. Ehlert, M. Stahn, S. Spicher, S. Grimme, J. Chem. Theory Comput.,
     2021, 17, 4250-4261. DOI: 10.1021/acs.jctc.1c00471
   
   for DFT-D4:
   * E. Caldeweyher, C. Bannwarth and S. Grimme, J. Chem. Phys., 2017,
     147, 034112. DOI: 10.1063/1.4993215
   * E. Caldeweyher, S. Ehlert, A. Hansen, H. Neugebauer, S. Spicher,
     C. Bannwarth and S. Grimme, J. Chem. Phys., 2019, 150, 154122.
     DOI: 10.1063/1.5090222
   * E. Caldeweyher, J.-M. Mewes, S. Ehlert and S. Grimme, Phys. Chem. Chem. Phys.
     2020, 22, 8499-8512. DOI: 10.1039/D0CP00502A
   
   for sTDA-xTB:
   * S. Grimme and C. Bannwarth, J. Chem. Phys., 2016, 145, 054103.
     DOI: 10.1063/1.4959605
   
   in the mass-spec context:
   * V. Asgeirsson, C. Bauer and S. Grimme, Chem. Sci., 2017, 8, 4879.
     DOI: 10.1039/c7sc00601b
   * J. Koopman and S. Grimme, ACS Omega 2019, 4, 12, 15120-15133.
     DOI: 10.1021/acsomega.9b02011
   
   for metadynamics refer to:
   * S. Grimme, J. Chem. Theory Comput., 2019, 155, 2847-2862
     DOI: 10.1021/acs.jctc.9b00143
   
   for SPH calculations refer to:
   * S. Spicher and S. Grimme, J. Chem. Theory Comput., 2021, 17, 1701-1714
     DOI: 10.1021/acs.jctc.0c01306
   
   with help from (in alphabetical order)
   P. Atkinson, C. Bannwarth, F. Bohle, G. Brandenburg, E. Caldeweyher
   M. Checinski, S. Dohm, S. Ehlert, S. Ehrlich, I. Gerasimov, C. Hölzer
   A. Katbashev, J. Koopman, C. Lavigne, S. Lehtola, F. März, M. Müller,
   F. Musil, H. Neugebauer, J. Pisarek, C. Plett, P. Pracht, F. Pultar,
   J. Seibert, P. Shushkov, S. Spicher, M. Stahn, M. Steiner, T. Strunk,
   J. Stückrath, T. Rose, and J. Unsleber
   
 * started run on 2023/06/21 at 17:37:49.624     

           -------------------------------------------------
          |                Calculation Setup                |
           -------------------------------------------------

          program call               : /lustre/hpc/kemi/ree/PhD/git/ReactivityQM/dep/xtb-6.5.1/bin/xtb --gfn 1 /lustre/hpc/kemi/ree/PhD/git/ReactivityQM/calculations/R02oxygendeprot/reac01prodN17/conf13/R02oxygendeprot_reac01prodN17_conf13_gfn1.xyz --opt --vfukui --chrg 0 --uhf 0 --alpb DMSO
          hostname                   : node070
          coordinate file            : /lustre/hpc/kemi/ree/PhD/git/ReactivityQM/calculations/R02oxygendeprot/reac01prodN17/conf13/R02oxygendeprot_reac01prodN17_conf13_gfn1.xyz
          omp threads                :                     1

   ID    Z sym.   atoms
    1    6 C      1, 3, 5, 7-10, 12, 13, 15, 18, 19, 22, 24
    2    8 O      2, 4, 14, 20, 23, 25
    3    7 N      6, 11, 16, 17, 21
    4    1 H      26-42

           -------------------------------------------------
          |                 G F N 1 - x T B                 |
           -------------------------------------------------

        Reference                      10.1021/acs.jctc.7b00118
      * Hamiltonian:
        H0-scaling (s, p, d)           1.850000    2.250000    2.000000
        zeta-weighting                 0.000000
      * Dispersion:
        s8                             2.400000
        a1                             0.630000
        a2                             5.000000
        s9                             0.000000
      * Repulsion:
        kExp                           1.500000
        rExp                           1.000000
      * Coulomb:
        alpha                          2.000000
        third order                    atomic
        anisotropic                    false
      * Halogen bond correction:
        rad-scale                      1.300000
        damping                        0.440000

      * Solvation model:               ALPB
        Solvent                        DMSO
        Parameter file                 internal GFN1-xTB/ALPB
        Dielectric constant                4.6680E+01
        Reference state                gsolv [1 M gas/solution]
        Free energy shift                  7.6243E-03 Eh       4.7843E+00 kcal/mol
        Temperature                        2.9815E+02 K
        Density                            1.1000E+00 kg/L
        Solvent mass                       7.8130E+01 g/mol
        Interaction kernel             P16
        Born radius scaling (c1)           1.7672E+00
        Born radii integrator          GBOBC
        Born offset                        0.0000E+00 a0       0.0000E+00 AA
        H-bond correction              true
        Ion screening                  false
        Surface tension                    1.0000E-05 Eh       1.5569E+01 dyn/cm
        Grid points                               230 per atom

          ...................................................
          :                      SETUP                      :
          :.................................................:
          :  # basis functions                 134          :
          :  # atomic orbitals                 134          :
          :  # shells                           84          :
          :  # electrons                       134          :
          :  # halogen bonds                     0          :
          :  max. iterations                   250          :
          :  Hamiltonian                  GFN1-xTB          :
          :  restarted?                      false          :
          :  GBSA solvation                   true          :
          :  PC potential                    false          :
          :  electronic temp.          300.0000000     K    :
          :  accuracy                    1.0000000          :
          :  -> integral cutoff          0.2500000E+02      :
          :  -> integral neglect         0.1000000E-07      :
          :  -> SCF convergence          0.1000000E-05 Eh   :
          :  -> wf. convergence          0.2000000E-04 e    :
          :  Broyden damping             0.4000000          :
          ...................................................

 iter      E             dE          RMSdq      gap      omega  full diag
   1    -83.2171442 -0.832171E+02  0.853E+00    2.46       0.0  T
   2    -83.6658271 -0.448683E+00  0.514E+00    0.83       1.0  T
   3    -83.6506527  0.151743E-01  0.200E+00    0.28       1.0  T
   4    -83.3812635  0.269389E+00  0.160E+00    0.18       1.0  T
   5    -83.7002523 -0.318989E+00  0.295E-01    0.45       1.0  T
   6    -83.7027869 -0.253461E-02  0.127E-01    0.44       1.0  T
   7    -83.7030322 -0.245292E-03  0.116E-01    0.43       1.0  T
   8    -83.7033575 -0.325317E-03  0.948E-02    0.39       1.0  T
   9    -83.7036442 -0.286692E-03  0.750E-02    0.35       1.0  T
  10    -83.7038818 -0.237573E-03  0.549E-02    0.32       1.0  T
  11    -83.7041320 -0.250198E-03  0.206E-02    0.27       1.0  T
  12    -83.7041721 -0.401246E-04  0.344E-03    0.25       4.5  T
  13    -83.7041735 -0.137571E-05  0.315E-04    0.26      49.0  T
  14    -83.7041735 -0.774854E-08  0.756E-05    0.26     204.1  T
  15    -83.7041735  0.336883E-09  0.814E-05    0.26     189.5  T

   *** convergence criteria satisfied after 15 iterations ***

         #    Occupation            Energy/Eh            Energy/eV
      -------------------------------------------------------------
         1        2.0000           -0.8911164             -24.2485
       ...           ...                  ...                  ...
        61        2.0000           -0.4711852             -12.8216
        62        2.0000           -0.4707919             -12.8109
        63        2.0000           -0.4639669             -12.6252
        64        2.0000           -0.4508155             -12.2673
        65        2.0000           -0.4413509             -12.0098
        66        2.0000           -0.3927753             -10.6880
        67        1.9859           -0.3799041             -10.3377 (HOMO)
        68        0.0141           -0.3705082             -10.0820 (LUMO)
        69                         -0.2867953              -7.8041
        70                         -0.2858743              -7.7790
        71                         -0.2687459              -7.3129
        72                         -0.2500462              -6.8041
       ...                                ...                  ...
       134                          0.7983878              21.7252
      -------------------------------------------------------------
                  HL-Gap            0.0093959 Eh            0.2557 eV
             Fermi-level           -0.3752061 Eh          -10.2099 eV

 SCC (total)                   0 d,  0 h,  0 min,  0.170 sec
 SCC setup                      ...        0 min,  0.002 sec (  1.123%)
 Dispersion                     ...        0 min,  0.000 sec (  0.167%)
 classical contributions        ...        0 min,  0.000 sec (  0.056%)
 integral evaluation            ...        0 min,  0.026 sec ( 15.254%)
 iterations                     ...        0 min,  0.081 sec ( 47.422%)
 molecular gradient             ...        0 min,  0.060 sec ( 35.161%)
 printout                       ...        0 min,  0.001 sec (  0.804%)

         :::::::::::::::::::::::::::::::::::::::::::::::::::::
         ::                     SUMMARY                     ::
         :::::::::::::::::::::::::::::::::::::::::::::::::::::
         :: total energy             -82.932463542056 Eh    ::
         :: total w/o Gsasa/hb       -82.912485804454 Eh    ::
         :: gradient norm              0.131155301531 Eh/a0 ::
         :: HOMO-LUMO gap              0.255676373808 eV    ::
         ::.................................................::
         :: SCC energy               -83.704173476336 Eh    ::
         :: -> electrostatic           0.431204730719 Eh    ::
         :: -> Gsolv                  -0.099215331888 Eh    ::
         ::    -> Gelec               -0.079237594286 Eh    ::
         ::    -> Gsasa               -0.023925156595 Eh    ::
         ::    -> Ghb                 -0.003676860011 Eh    ::
         ::    -> Gshift               0.007624279005 Eh    ::
         :: repulsion energy           0.798983264381 Eh    ::
         :: dispersion energy         -0.027273330101 Eh    ::
         :: halogen bond corr.         0.000000000000 Eh    ::
         :: add. restraining           0.000000000000 Eh    ::
         :: total charge              -0.000000000000 e     ::
         :::::::::::::::::::::::::::::::::::::::::::::::::::::

      ----------------------------------------------------------- 
     |                   =====================                   |
     |                        A N C O P T                        |
     |                   =====================                   |
     |               Approximate Normal Coordinate               |
     |                Rational Function Optimizer                |
      ----------------------------------------------------------- 

          ...................................................
          :                      SETUP                      :
          :.................................................:
          :   optimization level            normal          :
          :   max. optcycles                   200          :
          :   ANC micro-cycles                  20          :
          :   degrees of freedom               120          :
          :.................................................:
          :   RF solver                   davidson          :
          :   write xtbopt.log                true          :
          :   linear?                        false          :
          :   energy convergence         0.5000000E-05 Eh   :
          :   grad. convergence          0.1000000E-02 Eh/α :
          :   maximium RF displ.         1.0000000          :
          :   Hlow (freq-cutoff)         0.1000000E-01      :
          :   Hmax (freq-cutoff)         5.0000000          :
          :   S6 in model hess.         20.0000000          :
          ...................................................

generating ANC from model Hessian ...
Using Lindh-Hessian (1995)
 Shifting diagonal of input Hessian by   9.814793598298416E-003
 Lowest  eigenvalues of input Hessian
    0.000000    0.000000    0.000000    0.000000    0.000000    0.000000
    0.010000    0.010103    0.010497    0.011039    0.012182    0.012385
    0.012964    0.013707    0.014083    0.015100    0.016846    0.017254
 Highest eigenvalues
    2.086040    2.134462    2.257202    2.329999    2.335688    2.457957
 

........................................................................
.............................. CYCLE    1 ..............................
........................................................................
   1    -83.7041735 -0.837042E+02  0.256E-05    0.26       0.0  T
   2    -83.7041735  0.169834E-09  0.470E-05    0.26     328.3  T
   3    -83.7041735 -0.238103E-09  0.366E-06    0.26    4213.1  T
     SCC iter.                  ...        0 min,  0.016 sec
     gradient                   ...        0 min,  0.058 sec
 * total energy  :   -82.9324635 Eh     change       -0.3975344E-09 Eh
   gradient norm :     0.1311521 Eh/α   predicted     0.0000000E+00 (-100.00%)
   displ. norm   :     0.3209744 α      lambda       -0.1863264E-01
   maximum displ.:     0.1261464 α      in ANC's #27, #26, #65, ...

........................................................................
.............................. CYCLE    2 ..............................
........................................................................
   1    -83.7135058 -0.837135E+02  0.912E-02    0.35       0.0  T
   2    -83.7132088  0.297016E-03  0.876E-02    0.22       1.0  T
   3    -83.7138546 -0.645812E-03  0.431E-02    0.32       1.0  T
   4    -83.7139868 -0.132240E-03  0.155E-02    0.28       1.0  T
   5    -83.7139881 -0.128515E-05  0.969E-03    0.26       1.6  T
   6    -83.7139964 -0.827791E-05  0.257E-03    0.27       6.0  T
   7    -83.7139971 -0.703244E-06  0.454E-04    0.27      34.0  T
   8    -83.7139971 -0.144417E-07  0.136E-04    0.27     113.7  T
   9    -83.7139971 -0.973344E-09  0.451E-05    0.27     342.2  T
     SCC iter.                  ...        0 min,  0.052 sec
     gradient                   ...        0 min,  0.058 sec
 * total energy  :   -82.9458253 Eh     change       -0.1336174E-01 Eh
   gradient norm :     0.0627618 Eh/α   predicted    -0.1029010E-01 ( -22.99%)
   displ. norm   :     0.3198854 α      lambda       -0.7608351E-02
   maximum displ.:     0.1373099 α      in ANC's #27, #9, #26, ...

........................................................................
.............................. CYCLE    3 ..............................
........................................................................
   1    -83.7229024 -0.837229E+02  0.819E-02    0.34       0.0  T
   2    -83.7228446  0.577265E-04  0.627E-02    0.24       1.0  T
   3    -83.7231553 -0.310680E-03  0.350E-02    0.32       1.0  T
   4    -83.7232372 -0.819251E-04  0.131E-02    0.29       1.2  T
   5    -83.7232404 -0.311137E-05  0.590E-03    0.28       2.6  T
   6    -83.7232435 -0.313471E-05  0.151E-03    0.28      10.2  T
   7    -83.7232437 -0.256004E-06  0.204E-04    0.28      75.6  T
   8    -83.7232438 -0.102277E-08  0.915E-05    0.28     168.7  T
   9    -83.7232438 -0.496712E-09  0.232E-05    0.28     665.0  T
     SCC iter.                  ...        0 min,  0.048 sec
     gradient                   ...        0 min,  0.058 sec
 * total energy  :   -82.9503801 Eh     change       -0.4554798E-02 Eh
   gradient norm :     0.0176714 Eh/α   predicted    -0.4195207E-02 (  -7.89%)
   displ. norm   :     0.2335244 α      lambda       -0.1201284E-02
   maximum displ.:     0.1180695 α      in ANC's #9, #5, #27, ...

........................................................................
.............................. CYCLE    4 ..............................
........................................................................
   1    -83.7247578 -0.837248E+02  0.226E-02    0.29       0.0  T
   2    -83.7247621 -0.422074E-05  0.149E-02    0.27       1.0  T
   3    -83.7247762 -0.141371E-04  0.988E-03    0.29       1.6  T
   4    -83.7247821 -0.589234E-05  0.352E-03    0.28       4.4  T
   5    -83.7247822 -0.672606E-07  0.764E-04    0.28      20.2  T
   6    -83.7247822 -0.857037E-08  0.131E-04    0.28     118.1  T
   7    -83.7247822 -0.431086E-09  0.664E-05    0.28     232.4  T
     SCC iter.                  ...        0 min,  0.036 sec
     gradient                   ...        0 min,  0.058 sec
 * total energy  :   -82.9512606 Eh     change       -0.8804969E-03 Eh
   gradient norm :     0.0112033 Eh/α   predicted    -0.6334080E-03 ( -28.06%)
   displ. norm   :     0.3211710 α      lambda       -0.9128823E-03
   maximum displ.:     0.1736470 α      in ANC's #9, #5, #3, ...

........................................................................
.............................. CYCLE    5 ..............................
........................................................................
   1    -83.7249889 -0.837250E+02  0.174E-02    0.28       0.0  T
   2    -83.7250011 -0.122227E-04  0.732E-03    0.28       2.1  T
   3    -83.7250018 -0.691228E-06  0.504E-03    0.28       3.1  T
   4    -83.7250017  0.139185E-06  0.307E-03    0.28       5.0  T
   5    -83.7250023 -0.670439E-06  0.148E-03    0.28      10.4  T
   6    -83.7250025 -0.115460E-06  0.135E-04    0.28     114.4  T
   7    -83.7250025 -0.343221E-09  0.616E-05    0.28     250.4  T
     SCC iter.                  ...        0 min,  0.036 sec
     gradient                   ...        0 min,  0.058 sec
 * total energy  :   -82.9518999 Eh     change       -0.6393345E-03 Eh
   gradient norm :     0.0094152 Eh/α   predicted    -0.5035999E-03 ( -21.23%)
   displ. norm   :     0.3131975 α      lambda       -0.5298249E-03
   maximum displ.:     0.1645759 α      in ANC's #9, #3, #5, ...

........................................................................
.............................. CYCLE    6 ..............................
........................................................................
   1    -83.7252854 -0.837253E+02  0.113E-02    0.27       0.0  T
   2    -83.7252902 -0.474803E-05  0.685E-03    0.28       2.3  T
   3    -83.7252912 -0.991942E-06  0.367E-03    0.28       4.2  T
   4    -83.7252920 -0.874169E-06  0.290E-03    0.28       5.3  T
   5    -83.7252925 -0.426221E-06  0.816E-04    0.28      18.9  T
   6    -83.7252925 -0.127759E-07  0.982E-05    0.28     157.2  T
   7    -83.7252925 -0.271058E-09  0.414E-05    0.28     372.4  T
     SCC iter.                  ...        0 min,  0.036 sec
     gradient                   ...        0 min,  0.058 sec
 * total energy  :   -82.9522905 Eh     change       -0.3905697E-03 Eh
   gradient norm :     0.0084325 Eh/α   predicted    -0.2908985E-03 ( -25.52%)
   displ. norm   :     0.3401096 α      lambda       -0.4393668E-03
   maximum displ.:     0.1575657 α      in ANC's #9, #3, #5, ...

........................................................................
.............................. CYCLE    7 ..............................
........................................................................
   1    -83.7261354 -0.837261E+02  0.105E-02    0.27       0.0  T
   2    -83.7261367 -0.130867E-05  0.822E-03    0.29       1.9  T
   3    -83.7261408 -0.412552E-05  0.361E-03    0.28       4.3  T
   4    -83.7261419 -0.106036E-05  0.172E-03    0.28       9.0  T
   5    -83.7261420 -0.112203E-06  0.555E-04    0.28      27.8  T
   6    -83.7261420 -0.309018E-08  0.906E-05    0.28     170.4  T
   7    -83.7261420 -0.301284E-09  0.289E-05    0.28     534.7  T
     SCC iter.                  ...        0 min,  0.036 sec
     gradient                   ...        0 min,  0.058 sec
 * total energy  :   -82.9526168 Eh     change       -0.3262769E-03 Eh
   gradient norm :     0.0069215 Eh/α   predicted    -0.2450953E-03 ( -24.88%)
   displ. norm   :     0.3276351 α      lambda       -0.3459904E-03
   maximum displ.:     0.1746555 α      in ANC's #3, #2, #9, ...

........................................................................
.............................. CYCLE    8 ..............................
........................................................................
   1    -83.7272932 -0.837273E+02  0.107E-02    0.28       0.0  T
   2    -83.7272918  0.135534E-05  0.930E-03    0.29       1.7  T
   3    -83.7272991 -0.727492E-05  0.393E-03    0.28       3.9  T
   4    -83.7273001 -0.967396E-06  0.126E-03    0.28      12.2  T
   5    -83.7273001 -0.229122E-08  0.457E-04    0.28      33.8  T
   6    -83.7273001 -0.295375E-08  0.814E-05    0.28     189.4  T
   7    -83.7273001 -0.332093E-09  0.185E-05    0.28     832.7  T
     SCC iter.                  ...        0 min,  0.036 sec
     gradient                   ...        0 min,  0.058 sec
 * total energy  :   -82.9528779 Eh     change       -0.2611416E-03 Eh
   gradient norm :     0.0064649 Eh/α   predicted    -0.1915662E-03 ( -26.64%)
   displ. norm   :     0.3114299 α      lambda       -0.2756417E-03
   maximum displ.:     0.1862497 α      in ANC's #3, #2, #8, ...

........................................................................
.............................. CYCLE    9 ..............................
........................................................................
   1    -83.7281684 -0.837282E+02  0.101E-02    0.28       0.0  T
   2    -83.7281658  0.261019E-05  0.934E-03    0.30       1.7  T
   3    -83.7281743 -0.857486E-05  0.370E-03    0.29       4.2  T
   4    -83.7281750 -0.632124E-06  0.140E-03    0.29      11.0  T
   5    -83.7281750 -0.114623E-07  0.434E-04    0.29      35.6  T
   6    -83.7281750 -0.556453E-08  0.730E-05    0.29     211.3  T
   7    -83.7281750 -0.159332E-09  0.232E-05    0.29     665.8  T
     SCC iter.                  ...        0 min,  0.035 sec
     gradient                   ...        0 min,  0.057 sec
 * total energy  :   -82.9530914 Eh     change       -0.2134979E-03 Eh
   gradient norm :     0.0061731 Eh/α   predicted    -0.1511883E-03 ( -29.19%)
   displ. norm   :     0.2888840 α      lambda       -0.2286936E-03
   maximum displ.:     0.1917994 α      in ANC's #3, #2, #10, ...

........................................................................
.............................. CYCLE   10 ..............................
........................................................................
   1    -83.7286502 -0.837287E+02  0.843E-03    0.29       0.0  T
   2    -83.7286492  0.100397E-05  0.695E-03    0.30       2.2  T
   3    -83.7286540 -0.476874E-05  0.354E-03    0.29       4.4  T
   4    -83.7286545 -0.556790E-06  0.144E-03    0.30      10.7  T
   5    -83.7286545 -0.268038E-07  0.426E-04    0.30      36.2  T
   6    -83.7286545 -0.689575E-08  0.619E-05    0.30     249.3  T
   7    -83.7286545 -0.654126E-10  0.241E-05    0.30     641.6  T
     SCC iter.                  ...        0 min,  0.035 sec
     gradient                   ...        0 min,  0.057 sec
 * total energy  :   -82.9532728 Eh     change       -0.1814505E-03 Eh
   gradient norm :     0.0051723 Eh/α   predicted    -0.1238934E-03 ( -31.72%)
   displ. norm   :     0.2635119 α      lambda       -0.1927751E-03
   maximum displ.:     0.1863576 α      in ANC's #3, #2, #4, ...

........................................................................
.............................. CYCLE   11 ..............................
........................................................................
   1    -83.7287199 -0.837287E+02  0.723E-03    0.30       0.0  T
   2    -83.7287196  0.364806E-06  0.584E-03    0.31       2.6  T
   3    -83.7287229 -0.334530E-05  0.286E-03    0.30       5.4  T
   4    -83.7287233 -0.373111E-06  0.114E-03    0.30      13.5  T
   5    -83.7287233 -0.145100E-07  0.339E-04    0.30      45.5  T
   6    -83.7287233 -0.344123E-08  0.502E-05    0.30     307.1  T
   7    -83.7287233 -0.401599E-10  0.196E-05    0.30     786.1  T
     SCC iter.                  ...        0 min,  0.037 sec
     gradient                   ...        0 min,  0.041 sec
 * total energy  :   -82.9534314 Eh     change       -0.1585768E-03 Eh
   gradient norm :     0.0040339 Eh/α   predicted    -0.1030809E-03 ( -35.00%)
   displ. norm   :     0.2555458 α      lambda       -0.1712345E-03
   maximum displ.:     0.1856111 α      in ANC's #3, #2, #7, ...

........................................................................
.............................. CYCLE   12 ..............................
........................................................................
   1    -83.7285670 -0.837286E+02  0.597E-03    0.31       0.0  T
   2    -83.7285675 -0.442853E-06  0.391E-03    0.31       3.9  T
   3    -83.7285686 -0.113695E-05  0.244E-03    0.31       6.3  T
   4    -83.7285690 -0.358332E-06  0.821E-04    0.31      18.8  T
   5    -83.7285690 -0.150459E-08  0.211E-04    0.31      73.1  T
   6    -83.7285690 -0.128581E-08  0.380E-05    0.31     405.6  T
   7    -83.7285690 -0.240732E-10  0.141E-05    0.31    1096.0  T
     SCC iter.                  ...        0 min,  0.024 sec
     gradient                   ...        0 min,  0.048 sec
 * total energy  :   -82.9535737 Eh     change       -0.1422855E-03 Eh
   gradient norm :     0.0039606 Eh/α   predicted    -0.9121033E-04 ( -35.90%)
   displ. norm   :     0.2487821 α      lambda       -0.1512297E-03
   maximum displ.:     0.1818110 α      in ANC's #3, #2, #7, ...

........................................................................
.............................. CYCLE   13 ..............................
........................................................................
   1    -83.7284729 -0.837285E+02  0.552E-03    0.31       0.0  T
   2    -83.7284731 -0.199306E-06  0.457E-03    0.32       3.4  T
   3    -83.7284748 -0.169990E-05  0.156E-03    0.31       9.9  T
   4    -83.7284750 -0.133938E-06  0.650E-04    0.31      23.7  T
   5    -83.7284750 -0.265558E-08  0.179E-04    0.31      86.4  T
   6    -83.7284750 -0.101048E-08  0.329E-05    0.31     469.2  T
     SCC iter.                  ...        0 min,  0.023 sec
     gradient                   ...        0 min,  0.066 sec
 * total energy  :   -82.9537020 Eh     change       -0.1282755E-03 Eh
   gradient norm :     0.0042849 Eh/α   predicted    -0.8029687E-04 ( -37.40%)
   displ. norm   :     0.2564888 α      lambda       -0.1446956E-03
   maximum displ.:     0.1877874 α      in ANC's #3, #2, #7, ...

........................................................................
.............................. CYCLE   14 ..............................
........................................................................
   1    -83.7283657 -0.837284E+02  0.467E-03    0.31       0.0  T
   2    -83.7283657 -0.387553E-07  0.433E-03    0.32       3.6  T
   3    -83.7283671 -0.140835E-05  0.110E-03    0.32      14.1  T
   4    -83.7283671 -0.379230E-07  0.703E-04    0.32      22.0  T
   5    -83.7283672 -0.136050E-07  0.132E-04    0.32     116.7  T
   6    -83.7283672 -0.299949E-09  0.350E-05    0.32     441.5  T
     SCC iter.                  ...        0 min,  0.035 sec
     gradient                   ...        0 min,  0.067 sec
 * total energy  :   -82.9538273 Eh     change       -0.1253128E-03 Eh
   gradient norm :     0.0040958 Eh/α   predicted    -0.7710786E-04 ( -38.47%)
   displ. norm   :     0.2815692 α      lambda       -0.1492323E-03
   maximum displ.:     0.2074339 α      in ANC's #3, #2, #4, ...

........................................................................
.............................. CYCLE   15 ..............................
........................................................................
   1    -83.7284064 -0.837284E+02  0.575E-03    0.32       0.0  T
   2    -83.7284057  0.774722E-06  0.655E-03    0.33       2.4  T
   3    -83.7284092 -0.349584E-05  0.107E-03    0.32      14.4  T
   4    -83.7284091  0.851917E-08  0.839E-04    0.32      18.4  T
   5    -83.7284092 -0.239299E-07  0.153E-04    0.32     101.2  T
   6    -83.7284092 -0.123023E-09  0.404E-05    0.32     382.4  T
     SCC iter.                  ...        0 min,  0.035 sec
     gradient                   ...        0 min,  0.066 sec
 * total energy  :   -82.9539560 Eh     change       -0.1287014E-03 Eh
   gradient norm :     0.0036067 Eh/α   predicted    -0.8053284E-04 ( -37.43%)
   displ. norm   :     0.3083971 α      lambda       -0.1496432E-03
   maximum displ.:     0.2304493 α      in ANC's #3, #2, #4, ...

........................................................................
.............................. CYCLE   16 ..............................
........................................................................
   1    -83.7283046 -0.837283E+02  0.642E-03    0.32       0.0  T
   2    -83.7283036  0.101942E-05  0.715E-03    0.33       2.2  T
   3    -83.7283079 -0.431950E-05  0.106E-03    0.32      14.5  T
   4    -83.7283079  0.983150E-09  0.806E-04    0.32      19.1  T
   5    -83.7283079 -0.201150E-07  0.196E-04    0.32      78.7  T
   6    -83.7283079 -0.315652E-09  0.422E-05    0.32     365.9  T
     SCC iter.                  ...        0 min,  0.036 sec
     gradient                   ...        0 min,  0.066 sec
 * total energy  :   -82.9540866 Eh     change       -0.1306084E-03 Eh
   gradient norm :     0.0031617 Eh/α   predicted    -0.8193877E-04 ( -37.26%)
   displ. norm   :     0.3412109 α      lambda       -0.1577747E-03
   maximum displ.:     0.2593875 α      in ANC's #3, #4, #2, ...

........................................................................
.............................. CYCLE   17 ..............................
........................................................................
   1    -83.7283667 -0.837284E+02  0.812E-03    0.32       0.0  T
   2    -83.7283645  0.222707E-05  0.941E-03    0.34       1.6  T
   3    -83.7283725 -0.805170E-05  0.105E-03    0.33      14.8  T
   4    -83.7283725  0.826006E-09  0.722E-04    0.33      21.4  T
   5    -83.7283725 -0.111014E-07  0.192E-04    0.33      80.3  T
   6    -83.7283725 -0.399652E-09  0.488E-05    0.33     316.1  T
     SCC iter.                  ...        0 min,  0.036 sec
     gradient                   ...        0 min,  0.066 sec
 * total energy  :   -82.9542303 Eh     change       -0.1436480E-03 Eh
   gradient norm :     0.0034353 Eh/α   predicted    -0.8807470E-04 ( -38.69%)
   displ. norm   :     0.4332734 α      lambda       -0.2103773E-03
   maximum displ.:     0.3333258 α      in ANC's #3, #4, #2, ...

........................................................................
.............................. CYCLE   18 ..............................
........................................................................
   1    -83.7281203 -0.837281E+02  0.936E-03    0.33       0.0  T
   2    -83.7281177  0.264665E-05  0.104E-02    0.34       1.5  T
   3    -83.7281278 -0.101847E-04  0.130E-03    0.33      11.9  T
   4    -83.7281279 -0.156737E-07  0.754E-04    0.33      20.5  T
   5    -83.7281279 -0.464401E-08  0.186E-04    0.33      83.0  T
   6    -83.7281279 -0.589324E-09  0.556E-05    0.33     277.4  T
     SCC iter.                  ...        0 min,  0.036 sec
     gradient                   ...        0 min,  0.067 sec
 * total energy  :   -82.9544293 Eh     change       -0.1990707E-03 Eh
   gradient norm :     0.0043576 Eh/α   predicted    -0.1249373E-03 ( -37.24%)
   displ. norm   :     0.5594517 α      lambda       -0.3070917E-03
   maximum displ.:     0.4361883 α      in ANC's #3, #4, #2, ...

........................................................................
.............................. CYCLE   19 ..............................
........................................................................
   1    -83.7273980 -0.837274E+02  0.124E-02    0.33       0.0  T
   2    -83.7273930  0.493536E-05  0.142E-02    0.35       1.1  T
   3    -83.7274120 -0.190221E-04  0.193E-03    0.34       8.0  T
   4    -83.7274120 -0.937833E-08  0.104E-03    0.34      14.9  T
   5    -83.7274121 -0.269851E-08  0.219E-04    0.34      70.5  T
   6    -83.7274121 -0.710031E-09  0.612E-05    0.34     252.1  T
   7    -83.7274121 -0.457732E-10  0.206E-05    0.34     748.1  T
     SCC iter.                  ...        0 min,  0.042 sec
     gradient                   ...        0 min,  0.066 sec
 * total energy  :   -82.9547003 Eh     change       -0.2709511E-03 Eh
   gradient norm :     0.0061002 Eh/α   predicted    -0.2016061E-03 ( -25.59%)
   displ. norm   :     0.5593349 α      lambda       -0.3311693E-03
   maximum displ.:     0.4410031 α      in ANC's #3, #4, #2, ...

........................................................................
.............................. CYCLE   20 ..............................
........................................................................
   1    -83.7269088 -0.837269E+02  0.102E-02    0.34       0.0  T
   2    -83.7269064  0.243058E-05  0.107E-02    0.36       1.4  T
   3    -83.7269170 -0.106217E-04  0.239E-03    0.35       6.5  T
   4    -83.7269170 -0.319434E-07  0.108E-03    0.35      14.3  T
   5    -83.7269170 -0.300717E-08  0.196E-04    0.35      78.6  T
   6    -83.7269170 -0.725734E-09  0.527E-05    0.35     292.6  T
     SCC iter.                  ...        0 min,  0.034 sec
     gradient                   ...        0 min,  0.065 sec
 * total energy  :   -82.9549562 Eh     change       -0.2559230E-03 Eh
   gradient norm :     0.0083436 Eh/α   predicted    -0.2173976E-03 ( -15.05%)
   displ. norm   :     0.4081483 α      lambda       -0.2769441E-03
   maximum displ.:     0.3215893 α      in ANC's #3, #4, #15, ...
 * RMSD in coord.:     0.8192923 α      energy gain  -0.2249266E-01 Eh

generating ANC from model Hessian ...
Using Lindh-Hessian (1995)
 Shifting diagonal of input Hessian by   9.799824970010760E-003
 Lowest  eigenvalues of input Hessian
    0.000000    0.000000    0.000000    0.000000    0.000000    0.000000
    0.010000    0.010079    0.010459    0.011114    0.011999    0.012170
    0.012731    0.013487    0.013943    0.015338    0.016408    0.017307
 Highest eigenvalues
    2.078684    2.165704    2.249928    2.322143    2.364998    2.377251
 

........................................................................
.............................. CYCLE   21 ..............................
........................................................................
   1    -83.7275293 -0.837275E+02  0.910E-03    0.35       0.0  T
   2    -83.7275269  0.242297E-05  0.102E-02    0.37       1.5  T
   3    -83.7275369 -0.100665E-04  0.178E-03    0.36       8.7  T
   4    -83.7275369  0.303697E-08  0.803E-04    0.36      19.2  T
   5    -83.7275369 -0.105593E-07  0.223E-04    0.36      69.1  T
   6    -83.7275369 -0.645599E-09  0.451E-05    0.36     342.0  T
   7    -83.7275369 -0.599272E-10  0.134E-05    0.36    1150.6  T
     SCC iter.                  ...        0 min,  0.040 sec
     gradient                   ...        0 min,  0.066 sec
 * total energy  :   -82.9551692 Eh     change       -0.2130362E-03 Eh
   gradient norm :     0.0083520 Eh/α   predicted     0.0000000E+00 (-100.00%)
   displ. norm   :     0.0667119 α      lambda       -0.1746840E-03
   maximum displ.:     0.0358155 α      in ANC's #3, #15, #5, ...

........................................................................
.............................. CYCLE   22 ..............................
........................................................................
   1    -83.7294382 -0.837294E+02  0.733E-03    0.36       0.0  T
   2    -83.7294385 -0.324662E-06  0.554E-03    0.35       2.8  T
   3    -83.7294402 -0.163546E-05  0.253E-03    0.36       6.1  T
   4    -83.7294404 -0.229140E-06  0.118E-03    0.36      13.1  T
   5    -83.7294404 -0.367327E-07  0.193E-04    0.36      80.1  T
   6    -83.7294405 -0.807418E-09  0.486E-05    0.36     317.2  T
     SCC iter.                  ...        0 min,  0.034 sec
     gradient                   ...        0 min,  0.065 sec
 * total energy  :   -82.9552996 Eh     change       -0.1303314E-03 Eh
   gradient norm :     0.0034450 Eh/α   predicted    -0.8895718E-04 ( -31.75%)
   displ. norm   :     0.1201315 α      lambda       -0.1317220E-03
   maximum displ.:     0.0722871 α      in ANC's #3, #15, #5, ...

........................................................................
.............................. CYCLE   23 ..............................
........................................................................
   1    -83.7305193 -0.837305E+02  0.756E-03    0.37       0.0  T
   2    -83.7305198 -0.436411E-06  0.622E-03    0.36       2.5  T
   3    -83.7305226 -0.279968E-05  0.198E-03    0.36       7.8  T
   4    -83.7305227 -0.155159E-06  0.113E-03    0.36      13.7  T
   5    -83.7305227 -0.218912E-07  0.189E-04    0.36      81.7  T
   6    -83.7305227 -0.107475E-08  0.449E-05    0.36     344.0  T
     SCC iter.                  ...        0 min,  0.034 sec
     gradient                   ...        0 min,  0.064 sec
 * total energy  :   -82.9553886 Eh     change       -0.8901137E-04 Eh
   gradient norm :     0.0023299 Eh/α   predicted    -0.6681513E-04 ( -24.94%)
   displ. norm   :     0.1167064 α      lambda       -0.6595231E-04
   maximum displ.:     0.0733376 α      in ANC's #3, #15, #5, ...

........................................................................
.............................. CYCLE   24 ..............................
........................................................................
   1    -83.7304996 -0.837305E+02  0.394E-03    0.37       0.0  T
   2    -83.7304998 -0.219362E-06  0.313E-03    0.36       4.9  T
   3    -83.7305006 -0.782533E-06  0.906E-04    0.36      17.0  T
   4    -83.7305006 -0.459950E-07  0.501E-04    0.36      30.8  T
   5    -83.7305006 -0.320381E-08  0.151E-04    0.36     102.1  T
   6    -83.7305006 -0.738652E-09  0.232E-05    0.36     663.8  T
     SCC iter.                  ...        0 min,  0.034 sec
     gradient                   ...        0 min,  0.064 sec
 * total energy  :   -82.9554401 Eh     change       -0.5155411E-04 Eh
   gradient norm :     0.0028648 Eh/α   predicted    -0.3342549E-04 ( -35.16%)
   displ. norm   :     0.1527283 α      lambda       -0.6978116E-04
   maximum displ.:     0.0961508 α      in ANC's #3, #15, #2, ...

........................................................................
.............................. CYCLE   25 ..............................
........................................................................
   1    -83.7300149 -0.837300E+02  0.288E-03    0.37       0.0  T
   2    -83.7300152 -0.251834E-06  0.162E-03    0.36       9.6  T
   3    -83.7300153 -0.850605E-07  0.957E-04    0.37      16.1  T
   4    -83.7300153 -0.312735E-07  0.562E-04    0.36      27.5  T
   5    -83.7300153 -0.115138E-07  0.123E-04    0.36     125.7  T
   6    -83.7300153 -0.241769E-09  0.215E-05    0.36     717.5  T
     SCC iter.                  ...        0 min,  0.034 sec
     gradient                   ...        0 min,  0.064 sec
 * total energy  :   -82.9554929 Eh     change       -0.5277694E-04 Eh
   gradient norm :     0.0026122 Eh/α   predicted    -0.3571152E-04 ( -32.33%)
   displ. norm   :     0.1469272 α      lambda       -0.5232311E-04
   maximum displ.:     0.0946047 α      in ANC's #3, #15, #2, ...

........................................................................
.............................. CYCLE   26 ..............................
........................................................................
   1    -83.7296391 -0.837296E+02  0.260E-03    0.36       0.0  T
   2    -83.7296392 -0.999743E-07  0.197E-03    0.37       7.8  T
   3    -83.7296394 -0.210947E-06  0.845E-04    0.36      18.3  T
   4    -83.7296394 -0.150526E-07  0.444E-04    0.37      34.8  T
   5    -83.7296395 -0.635126E-08  0.100E-04    0.36     153.7  T
   6    -83.7296395 -0.335135E-09  0.208E-05    0.36     741.3  T
     SCC iter.                  ...        0 min,  0.035 sec
     gradient                   ...        0 min,  0.064 sec
 * total energy  :   -82.9555326 Eh     change       -0.3967341E-04 Eh
   gradient norm :     0.0024676 Eh/α   predicted    -0.2672703E-04 ( -32.63%)
   displ. norm   :     0.1344971 α      lambda       -0.4427459E-04
   maximum displ.:     0.0885338 α      in ANC's #3, #15, #2, ...

........................................................................
.............................. CYCLE   27 ..............................
........................................................................
   1    -83.7296510 -0.837297E+02  0.368E-03    0.36       0.0  T
   2    -83.7296510 -0.618427E-08  0.335E-03    0.37       4.6  T
   3    -83.7296519 -0.941628E-06  0.719E-04    0.36      21.5  T
   4    -83.7296520 -0.146809E-07  0.404E-04    0.36      38.2  T
   5    -83.7296520 -0.237236E-08  0.976E-05    0.36     158.0  T
   6    -83.7296520 -0.109324E-09  0.226E-05    0.36     681.4  T
     SCC iter.                  ...        0 min,  0.032 sec
     gradient                   ...        0 min,  0.058 sec
 * total energy  :   -82.9555681 Eh     change       -0.3546899E-04 Eh
   gradient norm :     0.0023081 Eh/α   predicted    -0.2253940E-04 ( -36.45%)
   displ. norm   :     0.1611313 α      lambda       -0.5171045E-04
   maximum displ.:     0.1061025 α      in ANC's #3, #4, #2, ...

........................................................................
.............................. CYCLE   28 ..............................
........................................................................
   1    -83.7299283 -0.837299E+02  0.495E-03    0.36       0.0  T
   2    -83.7299283  0.119476E-07  0.448E-03    0.37       3.4  T
   3    -83.7299301 -0.176739E-05  0.921E-04    0.36      16.8  T
   4    -83.7299301 -0.320426E-07  0.465E-04    0.36      33.2  T
   5    -83.7299301 -0.227877E-08  0.135E-04    0.36     114.2  T
   6    -83.7299301 -0.306812E-09  0.332E-05    0.36     465.1  T
     SCC iter.                  ...        0 min,  0.031 sec
     gradient                   ...        0 min,  0.058 sec
 * total energy  :   -82.9556086 Eh     change       -0.4053735E-04 Eh
   gradient norm :     0.0021871 Eh/α   predicted    -0.2652723E-04 ( -34.56%)
   displ. norm   :     0.1740713 α      lambda       -0.4614939E-04
   maximum displ.:     0.1156569 α      in ANC's #3, #4, #2, ...

........................................................................
.............................. CYCLE   29 ..............................
........................................................................
   1    -83.7301684 -0.837302E+02  0.400E-03    0.36       0.0  T
   2    -83.7301684 -0.106811E-07  0.350E-03    0.37       4.4  T
   3    -83.7301695 -0.108578E-05  0.868E-04    0.36      17.8  T
   4    -83.7301695 -0.298160E-07  0.378E-04    0.37      40.8  T
   5    -83.7301695 -0.119442E-08  0.131E-04    0.37     117.4  T
   6    -83.7301695 -0.343988E-09  0.329E-05    0.37     469.0  T
     SCC iter.                  ...        0 min,  0.028 sec
     gradient                   ...        0 min,  0.035 sec
 * total energy  :   -82.9556447 Eh     change       -0.3609954E-04 Eh
   gradient norm :     0.0022317 Eh/α   predicted    -0.2377891E-04 ( -34.13%)
   displ. norm   :     0.1652213 α      lambda       -0.3762068E-04
   maximum displ.:     0.1101607 α      in ANC's #3, #4, #2, ...

........................................................................
.............................. CYCLE   30 ..............................
........................................................................
   1    -83.7303545 -0.837304E+02  0.235E-03    0.37       0.0  T
   2    -83.7303546 -0.824932E-07  0.168E-03    0.37       9.2  T
   3    -83.7303548 -0.195851E-06  0.745E-04    0.37      20.7  T
   4    -83.7303548 -0.286346E-07  0.276E-04    0.37      55.8  T
   5    -83.7303548 -0.131051E-08  0.923E-05    0.37     167.2  T
   6    -83.7303548 -0.109196E-09  0.254E-05    0.37     608.6  T
     SCC iter.                  ...        0 min,  0.020 sec
     gradient                   ...        0 min,  0.041 sec
 * total energy  :   -82.9556747 Eh     change       -0.2999479E-04 Eh
   gradient norm :     0.0019814 Eh/α   predicted    -0.1932720E-04 ( -35.56%)
   displ. norm   :     0.2460558 α      lambda       -0.3521792E-04
   maximum displ.:     0.1621403 α      in ANC's #3, #4, #2, ...

........................................................................
.............................. CYCLE   31 ..............................
........................................................................
   1    -83.7305147 -0.837305E+02  0.301E-03    0.37       0.0  T
   2    -83.7305150 -0.271837E-06  0.118E-03    0.37      13.1  T
   3    -83.7305150 -0.146245E-07  0.595E-04    0.37      25.9  T
   4    -83.7305150 -0.143930E-08  0.188E-04    0.37      82.2  T
   5    -83.7305150 -0.709548E-10  0.929E-05    0.37     166.1  T
     SCC iter.                  ...        0 min,  0.026 sec
     gradient                   ...        0 min,  0.056 sec
 * total energy  :   -82.9557122 Eh     change       -0.3748982E-04 Eh
   gradient norm :     0.0016921 Eh/α   predicted    -0.1808389E-04 ( -51.76%)
   displ. norm   :     0.1729583 α      lambda       -0.2328724E-04
   maximum displ.:     0.1100551 α      in ANC's #3, #4, #2, ...

........................................................................
.............................. CYCLE   32 ..............................
........................................................................
   1    -83.7305079 -0.837305E+02  0.214E-03    0.37       0.0  T
   2    -83.7305080 -0.141455E-06  0.945E-04    0.37      16.3  T
   3    -83.7305080 -0.218116E-07  0.466E-04    0.37      33.1  T
   4    -83.7305080  0.284911E-08  0.359E-04    0.37      43.0  T
   5    -83.7305080 -0.877340E-08  0.764E-05    0.37     201.9  T
   6    -83.7305080 -0.684537E-10  0.226E-05    0.37     682.5  T
     SCC iter.                  ...        0 min,  0.019 sec
     gradient                   ...        0 min,  0.035 sec
 * total energy  :   -82.9557385 Eh     change       -0.2629344E-04 Eh
   gradient norm :     0.0015335 Eh/α   predicted    -0.1180098E-04 ( -55.12%)
   displ. norm   :     0.1881036 α      lambda       -0.2453635E-04
   maximum displ.:     0.1121044 α      in ANC's #3, #2, #4, ...

........................................................................
.............................. CYCLE   33 ..............................
........................................................................
   1    -83.7305339 -0.837305E+02  0.248E-03    0.38       0.0  T
   2    -83.7305342 -0.227217E-06  0.134E-03    0.38      11.5  T
   3    -83.7305342 -0.527420E-07  0.549E-04    0.38      28.1  T
   4    -83.7305342  0.609093E-08  0.374E-04    0.38      41.3  T
   5    -83.7305342 -0.996482E-08  0.966E-05    0.38     159.7  T
   6    -83.7305342 -0.435051E-09  0.228E-05    0.38     675.8  T
     SCC iter.                  ...        0 min,  0.019 sec
     gradient                   ...        0 min,  0.035 sec
 * total energy  :   -82.9557607 Eh     change       -0.2227848E-04 Eh
   gradient norm :     0.0015402 Eh/α   predicted    -0.1246167E-04 ( -44.06%)
   displ. norm   :     0.1254861 α      lambda       -0.1254237E-04
   maximum displ.:     0.0726623 α      in ANC's #3, #2, #4, ...

........................................................................
.............................. CYCLE   34 ..............................
........................................................................
   1    -83.7302913 -0.837303E+02  0.253E-03    0.38       0.0  T
   2    -83.7302914 -0.422536E-07  0.222E-03    0.38       6.9  T
   3    -83.7302918 -0.410463E-06  0.550E-04    0.38      28.1  T
   4    -83.7302918 -0.727701E-08  0.261E-04    0.38      59.1  T
   5    -83.7302918 -0.557151E-09  0.882E-05    0.38     175.0  T
   6    -83.7302918 -0.221959E-09  0.179E-05    0.38     861.1  T
     SCC iter.                  ...        0 min,  0.019 sec
     gradient                   ...        0 min,  0.035 sec
 * total energy  :   -82.9557723 Eh     change       -0.1150404E-04 Eh
   gradient norm :     0.0009200 Eh/α   predicted    -0.6318648E-05 ( -45.07%)
   displ. norm   :     0.0717990 α      lambda       -0.5916184E-05
   maximum displ.:     0.0379005 α      in ANC's #3, #2, #1, ...

........................................................................
.............................. CYCLE   35 ..............................
........................................................................
   1    -83.7303756 -0.837304E+02  0.197E-03    0.38       0.0  T
   2    -83.7303756 -0.583051E-08  0.173E-03    0.38       8.9  T
   3    -83.7303759 -0.275425E-06  0.365E-04    0.38      42.3  T
   4    -83.7303759 -0.493107E-08  0.158E-04    0.38      97.7  T
   5    -83.7303759 -0.573550E-10  0.411E-05    0.38     375.2  T
     SCC iter.                  ...        0 min,  0.016 sec
     gradient                   ...        0 min,  0.035 sec
 * total energy  :   -82.9557793 Eh     change       -0.7037719E-05 Eh
   gradient norm :     0.0005945 Eh/α   predicted    -0.2969483E-05 ( -57.81%)
   displ. norm   :     0.0958667 α      lambda       -0.8354349E-05
   maximum displ.:     0.0516626 α      in ANC's #2, #3, #5, ...

........................................................................
.............................. CYCLE   36 ..............................
........................................................................
   1    -83.7303256 -0.837303E+02  0.255E-03    0.38       0.0  T
   2    -83.7303256 -0.790840E-08  0.227E-03    0.38       6.8  T
   3    -83.7303261 -0.483082E-06  0.467E-04    0.38      33.0  T
   4    -83.7303261 -0.769110E-08  0.201E-04    0.38      76.7  T
   5    -83.7303261 -0.148816E-09  0.607E-05    0.38     254.4  T
   6    -83.7303261 -0.409415E-10  0.144E-05    0.38    1073.9  T
     SCC iter.                  ...        0 min,  0.020 sec
     gradient                   ...        0 min,  0.035 sec
 * total energy  :   -82.9557882 Eh     change       -0.8870641E-05 Eh
   gradient norm :     0.0008190 Eh/α   predicted    -0.4197064E-05 ( -52.69%)
   displ. norm   :     0.0787419 α      lambda       -0.5354873E-05
   maximum displ.:     0.0425039 α      in ANC's #2, #5, #1, ...

........................................................................
.............................. CYCLE   37 ..............................
........................................................................
   1    -83.7305282 -0.837305E+02  0.122E-03    0.38       0.0  T
   2    -83.7305282 -0.209735E-07  0.914E-04    0.38      16.9  T
   3    -83.7305283 -0.612975E-07  0.361E-04    0.38      42.8  T
   4    -83.7305283 -0.566789E-08  0.155E-04    0.38      99.3  T
   5    -83.7305283 -0.236099E-09  0.509E-05    0.38     303.3  T
     SCC iter.                  ...        0 min,  0.016 sec
     gradient                   ...        0 min,  0.035 sec
 * total energy  :   -82.9557937 Eh     change       -0.5569729E-05 Eh
   gradient norm :     0.0009695 Eh/α   predicted    -0.2687974E-05 ( -51.74%)
   displ. norm   :     0.0716146 α      lambda       -0.4407335E-05
   maximum displ.:     0.0413876 α      in ANC's #2, #5, #1, ...

........................................................................
.............................. CYCLE   38 ..............................
........................................................................
   1    -83.7303152 -0.837303E+02  0.112E-03    0.38       0.0  T
   2    -83.7303153 -0.193297E-07  0.531E-04    0.38      29.1  T
   3    -83.7303153  0.216940E-08  0.390E-04    0.38      39.6  T
   4    -83.7303153 -0.699958E-08  0.148E-04    0.38     104.6  T
   5    -83.7303153 -0.989914E-09  0.415E-05    0.38     372.2  T
     SCC iter.                  ...        0 min,  0.016 sec
     gradient                   ...        0 min,  0.035 sec
 * total energy  :   -82.9557981 Eh     change       -0.4414920E-05 Eh
   gradient norm :     0.0006637 Eh/α   predicted    -0.2209740E-05 ( -49.95%)
   displ. norm   :     0.0466558 α      lambda       -0.2817455E-05
   maximum displ.:     0.0273007 α      in ANC's #2, #1, #5, ...

   *** GEOMETRY OPTIMIZATION CONVERGED AFTER 38 ITERATIONS ***

------------------------------------------------------------------------
 total energy gain   :        -0.0233346 Eh      -14.6427 kcal/mol
 total RMSD          :         1.0402320 a0        0.5505 Å
 total power (kW/mol):        -1.6122366 (step)  -13.8947 (real)
------------------------------------------------------------------------

 ANCopt (total)                0 d,  0 h,  0 min,  4.409 sec
 optimizer setup                ...        0 min,  0.001 sec (  0.014%)
 model hessian                  ...        0 min,  0.066 sec (  1.499%)
 ANC generation                 ...        0 min,  0.006 sec (  0.126%)
 coordinate transformation      ...        0 min,  0.001 sec (  0.020%)
 single point calculation       ...        0 min,  4.321 sec ( 98.001%)
 optimization log               ...        0 min,  0.009 sec (  0.208%)
 hessian update                 ...        0 min,  0.001 sec (  0.019%)
 rational function              ...        0 min,  0.003 sec (  0.075%)

================
 final structure:
================
42
 xtb: 6.5.1 (579679a)
C            6.55882460184226       -0.01393881894565        0.92256268754402
O            5.33869020571678        0.67760565730479        0.67517687431543
C            4.26990927102644       -0.09102648689102        0.38967063304240
O            4.35334863690848       -1.30928815022099        0.35027325317860
C            3.03377931555021        0.65552093882196        0.14123772138736
N            1.97882076682269       -0.15923553998219       -0.17211509229337
C            0.81814688938763        0.32577216481366       -0.44401652020146
C           -0.30503723755089       -0.60894836853101       -0.79834456108629
C           -1.20383272499392       -0.05445627724136       -1.89860427226952
C            0.24373744503348       -1.97991877807518       -1.17197256441180
N           -1.19065027443854       -0.71790800461704        0.48522895551658
C           -0.46227429673962       -1.27825703918415        1.65404273171583
C           -2.42814914326651       -1.52828664230319        0.24948671941703
O           -2.36122773186244       -2.72381609325159        0.20665751384149
C           -3.60925127180339       -0.71612389282424        0.11878063182019
N           -4.84168935962503       -1.11774045492906       -0.06157054747156
N           -5.61072726711514       -0.01801486438393       -0.09436818130521
C           -4.82289864306751        1.01138742342898        0.06796305440899
C           -5.20033552405321        2.43608875756573        0.10330553204208
O           -3.54576971577786        0.63460365766505        0.20831042888265
N            0.56563895736471        1.68129615038069       -0.38084170550292
C            1.52609655324531        2.61923101302692       -0.06749934858408
O            1.22644989547082        3.80348160894933       -0.02800328784299
C            2.91224715128304        2.07430129592344        0.21119186603054
O            3.81920174705642        2.87164725437813        0.47944141514986
H            6.85455396803357       -0.59509697912273        0.04410520056486
H            6.44942125993826       -0.69020385195986        1.77542273982406
H            7.31310678037502        0.74116013837418        1.14044360094403
H           -1.93660816770764       -0.80008192873976       -2.20250195291562
H           -0.58925891425470        0.20384718019618       -2.75989025219260
H           -1.73264714698165        0.83595563047466       -1.56613357772116
H            0.78990177487364       -1.87622305503069       -2.10918077699885
H            0.93539938960007       -2.34128193723074       -0.41255748349372
H           -0.55720281313512       -2.70093053182605       -1.31250662464908
H           -1.47787548926569        0.23592801633569        0.70840515119248
H           -1.05007352090388       -1.06015760968524        2.54154906210545
H           -0.35975967059629       -2.35248331129357        1.52304030004273
H            0.51311978433354       -0.79959741089557        1.71012699034829
H           -4.72373656111455        2.96521973255392       -0.72222043745949
H           -4.85408725116259        2.88808702087737        1.03273431519432
H           -6.28056876649623        2.53234910959496        0.02402830112355
H           -0.35673190194378        2.03527027650333       -0.56085849323921
 
 Bond Distances (Angstroems)
 ---------------------------
C1-O2=1.4241         C1-H26=1.0940        C1-H27=1.0939        C1-H28=1.0893        O2-C1=1.4241         O2-C3=1.3471         
C3-O2=1.3471         C3-O4=1.2218         C3-C5=1.4653         O4-C3=1.2218         C5-C3=1.4653         C5-N6=1.3693         
C5-C24=1.4257        N6-C5=1.3693         N6-C7=1.2870         C7-N6=1.2870         C7-C8=1.5036         C7-N21=1.3803        
C8-C7=1.5036         C8-C9=1.5251         C8-C10=1.5233        C8-N11=1.5632        C9-C8=1.5251         C9-H29=1.0887        
C9-H30=1.0891        C9-H31=1.0877        C10-C8=1.5233        C10-H32=1.0897       C10-H33=1.0889       C10-H34=1.0868       
N11-C8=1.5632        N11-C12=1.4868       N11-C13=1.4979       N11-H35=1.0208       C12-N11=1.4868       C12-H36=1.0866       
C12-H37=1.0870       C12-H38=1.0880       C13-N11=1.4979       C13-O14=1.1982       C13-C15=1.4393       O14-C13=1.1982       
C15-C13=1.4393       C15-N16=1.3087       C15-O20=1.3552       N16-C15=1.3087       N16-N17=1.3423       N17-N16=1.3423       
N17-C18=1.3064       C18-N17=1.3064       C18-C19=1.4743       C18-O20=1.3389       C19-C18=1.4743       C19-H39=1.0902       
C19-H40=1.0900       C19-H41=1.0874       O20-C15=1.3552       O20-C18=1.3389       N21-C7=1.3803        N21-C22=1.3785       
N21-H42=1.0042       C22-N21=1.3785       C22-O23=1.2222       C22-C24=1.5153       O23-C22=1.2222       C24-C5=1.4257        
C24-C22=1.5153       C24-O25=1.2370       O25-C24=1.2370       H26-C1=1.0940        H27-C1=1.0939        H28-C1=1.0893        
H29-C9=1.0887        H30-C9=1.0891        H31-C9=1.0877        H32-C10=1.0897       H33-C10=1.0889       H34-C10=1.0868       
H35-N11=1.0208       H36-C12=1.0866       H37-C12=1.0870       H38-C12=1.0880       H39-C19=1.0902       H40-C19=1.0900       
H41-C19=1.0874       H42-N21=1.0042       
 C  H  Rav=1.0892 sigma=0.0022  Rmin=1.0866  Rmax=1.0940    15
 C  C  Rav=1.4840 sigma=0.0361  Rmin=1.4257  Rmax=1.5251     8
 N  H  Rav=1.0125 sigma=0.0083  Rmin=1.0042  Rmax=1.0208     2
 N  C  Rav=1.3976 sigma=0.0915  Rmin=1.2870  Rmax=1.5632     9
 N  N  Rav=1.3423 sigma=0.0000  Rmin=1.3423  Rmax=1.3423     1
 O  C  Rav=1.2931 sigma=0.0777  Rmin=1.1982  Rmax=1.4241     8
 
 selected bond angles (degree)
 --------------------
H26-C1-O2=110.49               H27-C1-O2=110.48               H27-C1-H26=108.94              H28-C1-O2=106.94               
H28-C1-H26=109.98              H28-C1-H27=109.99              C3-O2-C1=116.07                O4-C3-O2=121.44                
C5-C3-O2=114.49                C5-C3-O4=124.07                N6-C5-C3=112.68                C24-C5-C3=124.79               
C24-C5-N6=122.53               C7-N6-C5=121.26                C8-C7-N6=119.29                N21-C7-N6=121.70               
N21-C7-C8=118.99               C9-C8-C7=112.60                C10-C8-C7=110.38               C10-C8-C9=111.26               
N11-C8-C7=105.84               N11-C8-C9=106.49               N11-C8-C10=110.05              H29-C9-C8=110.43               
H30-C9-C8=108.92               H30-C9-H29=108.75              H31-C9-C8=111.32               H31-C9-H29=108.59              
H31-C9-H30=108.78              H32-C10-C8=107.81              H33-C10-C8=110.88              H33-C10-H32=108.24             
H34-C10-C8=111.30              H34-C10-H32=108.74             H34-C10-H33=109.76             
 
 selected dihedral angles (degree)
 ---------------------------------
C3-O2-C1-H26= 60.63           C3-O2-C1-H27=299.99           C3-O2-C1-H28=180.31           O4-C3-O2-C1=  0.12            
C5-C3-O2-C1=180.00            N6-C5-C3-O2=178.73            N6-C5-C3-O4=358.61            C24-C5-C3-O2=358.71           
C24-C5-C3-O4=178.59           C7-N6-C5-C3=181.19            C7-N6-C5-C24=  1.21           C8-C7-N6-C5=179.27            
N21-C7-N6-C5=357.34           C9-C8-C7-N6=218.18            C9-C8-C7-N21= 40.06           C10-C8-C7-N6=343.18           
C10-C8-C7-N21=165.06          N11-C8-C7-N6=102.22           N11-C8-C7-N21=284.11          H29-C9-C8-C7=173.86           
H29-C9-C8-C10= 49.35          H29-C9-C8-N11=289.43          H30-C9-C8-C7= 54.50           H30-C9-C8-C10=289.99          
H30-C9-C8-N11=170.07          H31-C9-C8-C7=294.56           H31-C9-C8-C10=170.05          H31-C9-C8-N11= 50.13          
H32-C10-C8-C7=292.21          H32-C10-C8-C9= 57.97          H32-C10-C8-N11=175.75         H33-C10-C8-C7= 50.54          
H33-C10-C8-C9=176.29          H33-C10-C8-N11=294.08         H34-C10-C8-C7=173.03          H34-C10-C8-C9=298.79          
H34-C10-C8-N11= 56.58         
           -------------------------------------------------
          |                Final Singlepoint                |
           -------------------------------------------------

          ...................................................
          :                      SETUP                      :
          :.................................................:
          :  # basis functions                 134          :
          :  # atomic orbitals                 134          :
          :  # shells                           84          :
          :  # electrons                       134          :
          :  # halogen bonds                     0          :
          :  max. iterations                   250          :
          :  Hamiltonian                  GFN1-xTB          :
          :  restarted?                      false          :
          :  GBSA solvation                   true          :
          :  PC potential                    false          :
          :  electronic temp.          300.0000000     K    :
          :  accuracy                    1.0000000          :
          :  -> integral cutoff          0.2500000E+02      :
          :  -> integral neglect         0.1000000E-07      :
          :  -> SCF convergence          0.1000000E-05 Eh   :
          :  -> wf. convergence          0.2000000E-04 e    :
          :  Broyden damping             0.4000000          :
          ...................................................

 iter      E             dE          RMSdq      gap      omega  full diag
   1    -83.7303153 -0.837303E+02  0.102E-05    0.38       0.0  T
   2    -83.7303153 -0.909495E-12  0.544E-06    0.38    2838.3  T
   3    -83.7303153 -0.994760E-13  0.285E-06    0.38    5418.4  T

   *** convergence criteria satisfied after 3 iterations ***

         #    Occupation            Energy/Eh            Energy/eV
      -------------------------------------------------------------
         1        2.0000           -0.8955636             -24.3695
       ...           ...                  ...                  ...
        61        2.0000           -0.4753321             -12.9344
        62        2.0000           -0.4748572             -12.9215
        63        2.0000           -0.4607656             -12.5381
        64        2.0000           -0.4508872             -12.2693
        65        2.0000           -0.4391123             -11.9489
        66        2.0000           -0.3969108             -10.8005
        67        1.9987           -0.3860329             -10.5045 (HOMO)
        68        0.0013           -0.3720731             -10.1246 (LUMO)
        69                         -0.2855681              -7.7707
        70                         -0.2833665              -7.7108
        71                         -0.2701647              -7.3516
        72                         -0.2456994              -6.6858
       ...                                ...                  ...
       134                          0.7545345              20.5319
      -------------------------------------------------------------
                  HL-Gap            0.0139598 Eh            0.3799 eV
             Fermi-level           -0.3790530 Eh          -10.3146 eV

 SCC (total)                   0 d,  0 h,  0 min,  0.063 sec
 SCC setup                      ...        0 min,  0.001 sec (  1.719%)
 Dispersion                     ...        0 min,  0.000 sec (  0.234%)
 classical contributions        ...        0 min,  0.000 sec (  0.108%)
 integral evaluation            ...        0 min,  0.016 sec ( 25.280%)
 iterations                     ...        0 min,  0.010 sec ( 15.647%)
 molecular gradient             ...        0 min,  0.035 sec ( 55.836%)
 printout                       ...        0 min,  0.001 sec (  1.150%)

         :::::::::::::::::::::::::::::::::::::::::::::::::::::
         ::                     SUMMARY                     ::
         :::::::::::::::::::::::::::::::::::::::::::::::::::::
         :: total energy             -82.955798145415 Eh    ::
         :: total w/o Gsasa/hb       -82.936077629910 Eh    ::
         :: gradient norm              0.000663168748 Eh/a0 ::
         :: HOMO-LUMO gap              0.379864238259 eV    ::
         ::.................................................::
         :: SCC energy               -83.730315268991 Eh    ::
         :: -> electrostatic           0.427179473058 Eh    ::
         :: -> Gsolv                  -0.096274684622 Eh    ::
         ::    -> Gelec               -0.076554169116 Eh    ::
         ::    -> Gsasa               -0.023613256712 Eh    ::
         ::    -> Ghb                 -0.003731537798 Eh    ::
         ::    -> Gshift               0.007624279005 Eh    ::
         :: repulsion energy           0.802418945211 Eh    ::
         :: dispersion energy         -0.027901821635 Eh    ::
         :: halogen bond corr.         0.000000000000 Eh    ::
         :: add. restraining           0.000000000000 Eh    ::
         :: total charge              -0.000000000000 e     ::
         :::::::::::::::::::::::::::::::::::::::::::::::::::::

           -------------------------------------------------
          |                Property Printout                |
           -------------------------------------------------

    * Orbital Energies and Occupations

         #    Occupation            Energy/Eh            Energy/eV
      -------------------------------------------------------------
         1        2.0000           -0.8955636             -24.3695
       ...           ...                  ...                  ...
        55        2.0000           -0.5137916             -13.9810
        56        2.0000           -0.5084016             -13.8343
        57        2.0000           -0.5035585             -13.7025
        58        2.0000           -0.4963648             -13.5068
        59        2.0000           -0.4837104             -13.1624
        60        2.0000           -0.4792649             -13.0415
        61        2.0000           -0.4753321             -12.9344
        62        2.0000           -0.4748572             -12.9215
        63        2.0000           -0.4607656             -12.5381
        64        2.0000           -0.4508872             -12.2693
        65        2.0000           -0.4391123             -11.9489
        66        2.0000           -0.3969108             -10.8005
        67        1.9987           -0.3860329             -10.5045 (HOMO)
        68        0.0013           -0.3720731             -10.1246 (LUMO)
        69                         -0.2855681              -7.7707
        70                         -0.2833665              -7.7108
        71                         -0.2701647              -7.3516
        72                         -0.2456994              -6.6858
        73                         -0.2121873              -5.7739
        74                         -0.1608642              -4.3773
        75                         -0.1521364              -4.1398
        76                         -0.1489680              -4.0536
        77                         -0.1392303              -3.7886
        78                         -0.1306764              -3.5559
       ...                                ...                  ...
       134                          0.7545345              20.5319
      -------------------------------------------------------------
                  HL-Gap            0.0139598 Eh            0.3799 eV
             Fermi-level           -0.3790530 Eh          -10.3146 eV

  Mulliken/CM5 charges         n(s)   n(p)   n(d)
     1C     0.16907  0.04926   0.974  2.857  0.000
     2O    -0.42178 -0.50484   1.686  4.736  0.000
     3C     0.55609  0.62180   0.972  2.472  0.000
     4O    -0.60800 -0.65163   1.732  4.876  0.000
     5C     0.00174  0.07958   1.043  2.955  0.000
     6N    -0.35744 -0.54986   1.530  3.828  0.000
     7C     0.22753  0.37490   0.994  2.778  0.000
     8C     0.12019  0.14614   1.103  2.776  0.000
     9C    -0.12480 -0.26581   1.027  3.098  0.000
    10C    -0.10055 -0.24029   1.017  3.083  0.000
    11N    -0.18076 -0.57709   1.491  3.690  0.000
    12C     0.03514 -0.06109   1.011  2.954  0.000
    13C     0.46759  0.55332   1.014  2.518  0.000
    14O    -0.46911 -0.51957   1.719  4.751  0.000
    15C     0.32100  0.44163   0.988  2.691  0.000
    16N    -0.17072 -0.27298   1.562  3.609  0.000
    17N    -0.23143 -0.33745   1.556  3.676  0.000
    18C     0.41156  0.51823   1.017  2.571  0.000
    19C    -0.11174 -0.24910   1.015  3.097  0.000
    20O    -0.35005 -0.41356   1.695  4.655  0.000
    21N    -0.32292 -0.67014   1.436  3.887  0.000
    22C     0.43643  0.53916   1.010  2.553  0.000
    23O    -0.58299 -0.62113   1.731  4.852  0.000
    24C     0.30110  0.34714   1.035  2.664  0.000
    25O    -0.59992 -0.63858   1.740  4.860  0.000
    26H     0.03929  0.10094   0.961  0.000  0.000
    27H     0.03960  0.10135   0.960  0.000  0.000
    28H     0.04159  0.10182   0.958  0.000  0.000
    29H     0.06166  0.11996   0.938  0.000  0.000
    30H     0.07735  0.13245   0.923  0.000  0.000
    31H     0.06052  0.12340   0.939  0.000  0.000
    32H     0.06489  0.12076   0.935  0.000  0.000
    33H     0.05933  0.12105   0.941  0.000  0.000
    34H     0.06097  0.12242   0.939  0.000  0.000
    35H     0.28386  0.49236   0.716  0.000  0.000
    36H     0.08477  0.14791   0.915  0.000  0.000
    37H     0.08994  0.15775   0.910  0.000  0.000
    38H     0.08431  0.15416   0.916  0.000  0.000
    39H     0.09548  0.14995   0.905  0.000  0.000
    40H     0.09483  0.14944   0.905  0.000  0.000
    41H     0.08202  0.13785   0.918  0.000  0.000
    42H     0.26437  0.46839   0.736  0.000  0.000

Wiberg/Mayer (AO) data.
largest (>0.10) Wiberg bond orders for each atom

 ---------------------------------------------------------------------------
     #   Z sym  total        # sym  WBO       # sym  WBO       # sym  WBO
 ---------------------------------------------------------------------------
     1   6 C    3.890 --    28 H    0.987    26 H    0.980    27 H    0.980
                             2 O    0.916
     2   8 O    2.175 --     3 C    1.073     1 C    0.916     4 O    0.117
     3   6 C    3.848 --     4 O    1.596     5 C    1.079     2 O    1.073
     4   8 O    1.861 --     3 C    1.596     2 O    0.117
     5   6 C    3.870 --    24 C    1.236     6 N    1.204     3 C    1.079
                            25 O    0.112
     6   7 N    3.042 --     7 C    1.575     5 C    1.204
     7   6 C    3.925 --     6 N    1.575    21 N    1.097     8 C    0.994
     8   6 C    3.878 --    10 C    1.008     9 C    1.003     7 C    0.994
                            11 N    0.794
     9   6 C    3.987 --     8 C    1.003    29 H    0.979    31 H    0.978
                            30 H    0.977
    10   6 C    3.984 --     8 C    1.008    34 H    0.980    33 H    0.977
                            32 H    0.976
    11   7 N    3.593 --    12 C    0.901    35 H    0.887    13 C    0.878
                             8 C    0.794
    12   6 C    3.886 --    36 H    0.982    37 H    0.980    38 H    0.975
                            11 N    0.901
    13   6 C    3.846 --    14 O    1.735    15 C    1.093    11 N    0.878
    14   8 O    2.003 --    13 C    1.735
    15   6 C    3.877 --    16 N    1.529    13 C    1.093    20 O    1.030
    16   7 N    2.980 --    15 C    1.529    17 N    1.264
    17   7 N    2.987 --    18 C    1.543    16 N    1.264
    18   6 C    3.841 --    17 N    1.543    20 O    1.086    19 C    1.040
    19   6 C    3.979 --    18 C    1.040    41 H    0.980    40 H    0.956
                            39 H    0.953
    20   8 O    2.322 --    18 C    1.086    15 C    1.030
    21   7 N    3.415 --    22 C    1.140     7 C    1.097    42 H    0.892
                            23 O    0.134
    22   6 C    3.868 --    23 O    1.610    21 N    1.140    24 C    0.958
    23   8 O    1.881 --    22 C    1.610    21 N    0.134
    24   6 C    3.927 --    25 O    1.559     5 C    1.236    22 C    0.958
    25   8 O    1.835 --    24 C    1.559     5 C    0.112
    26   1 H    1.011 --     1 C    0.980
    27   1 H    1.011 --     1 C    0.980
    28   1 H    1.014 --     1 C    0.987
    29   1 H    0.997 --     9 C    0.979
    30   1 H    0.996 --     9 C    0.977
    31   1 H    1.000 --     9 C    0.978
    32   1 H    1.001 --    10 C    0.976
    33   1 H    1.013 --    10 C    0.977
    34   1 H    1.003 --    10 C    0.980
    35   1 H    0.938 --    11 N    0.887
    36   1 H    0.991 --    12 C    0.982
    37   1 H    0.999 --    12 C    0.980
    38   1 H    1.003 --    12 C    0.975
    39   1 H    0.991 --    19 C    0.953
    40   1 H    0.991 --    19 C    0.956
    41   1 H    0.995 --    19 C    0.980
    42   1 H    0.938 --    21 N    0.892
 ---------------------------------------------------------------------------

Topologies differ in total number of bonds
Writing topology from bond orders to xtbtopo.mol

 dipole moment from electron density (au)
     X       Y       Z   
  -7.4302  -0.9144   0.0867  total (Debye):   19.029

           -------------------------------------------------
          |                Geometry Summary                 |
           -------------------------------------------------

      molecular mass/u    :      351.3152409
   center of mass at/Å    :        0.0818601       0.2621095       0.0560997
  moments of inertia/u·Å² :        0.1079890E+04   0.4442185E+04   0.5190681E+04
rotational constants/cm⁻¹ :        0.1561050E-01   0.3794897E-02   0.3247672E-02

 * 37 selected distances

     #   Z          #   Z                                           value/Å
     1   6 C        2   8 O                                       1.4241355
     2   8 O        3   6 C                                       1.3470717
     3   6 C        4   8 O                                       1.2217512
     5   6 C        6   7 N                                       1.3692903
     6   7 N        7   6 C                                       1.2869837
     8   6 C        9   6 C                                       1.5250792 (max)
     8   6 C       10   6 C                                       1.5232570
    11   7 N       12   6 C                                       1.4868250
    13   6 C       14   8 O                                       1.1981668
    13   6 C       15   6 C                                       1.4393384
    15   6 C       16   7 N                                       1.3087117
    17   7 N       18   6 C                                       1.3064053
    18   6 C       19   6 C                                       1.4742734
    15   6 C       20   8 O                                       1.3551792
    18   6 C       20   8 O                                       1.3389257
     7   6 C       21   7 N                                       1.3802887
    21   7 N       22   6 C                                       1.3785443
    22   6 C       23   8 O                                       1.2222102
     5   6 C       24   6 C                                       1.4256934
    24   6 C       25   8 O                                       1.2370470
     1   6 C       26   1 H                                       1.0940240
     1   6 C       27   1 H                                       1.0939259
     1   6 C       28   1 H                                       1.0893064
     9   6 C       29   1 H                                       1.0887017
     9   6 C       30   1 H                                       1.0891443
     9   6 C       31   1 H                                       1.0876649
    10   6 C       32   1 H                                       1.0896824
    10   6 C       33   1 H                                       1.0888944
    10   6 C       34   1 H                                       1.0867904
    11   7 N       35   1 H                                       1.0208375
    12   6 C       36   1 H                                       1.0866200
    12   6 C       37   1 H                                       1.0870295
    12   6 C       38   1 H                                       1.0879588
    19   6 C       39   1 H                                       1.0902383
    19   6 C       40   1 H                                       1.0899671
    19   6 C       41   1 H                                       1.0874075
    21   7 N       42   1 H                                       1.0042270 (min)

 * 5 distinct bonds (by element types)

   Z      Z             #   av. dist./Å        max./Å        min./Å
   1 H    6 C          15     1.0891570     1.0940240     1.0866200
   6 C    6 C           5     1.4775283     1.5250792     1.4256934
   1 H    7 N           2     1.0125323     1.0208375     1.0042270
   6 C    7 N           7     1.3595784     1.4868250     1.2869837
   6 C    8 O           8     1.2930609     1.4241355     1.1981668


optimized geometry written to: xtbopt.xyz


           -------------------------------------------------
          | TOTAL ENERGY              -82.955798145415 Eh   |
          | GRADIENT NORM               0.000663168748 Eh/α |
          | HOMO-LUMO GAP               0.379864238259 eV   |
           -------------------------------------------------

------------------------------------------------------------------------
 * finished run on 2023/06/21 at 17:37:54.337     
------------------------------------------------------------------------
 total:
 * wall-time:     0 d,  0 h,  0 min,  4.712 sec
 *  cpu-time:     0 d,  0 h,  0 min,  4.644 sec
 * ratio c/w:     0.985 speedup
 SCF:
 * wall-time:     0 d,  0 h,  0 min,  0.171 sec
 *  cpu-time:     0 d,  0 h,  0 min,  0.170 sec
 * ratio c/w:     0.997 speedup
 ANC optimizer:
 * wall-time:     0 d,  0 h,  0 min,  4.477 sec
 *  cpu-time:     0 d,  0 h,  0 min,  4.445 sec
 * ratio c/w:     0.993 speedup

