42
 energy: -82.955798145415 gnorm: 0.000663168748 xtb: 6.5.1 (579679a)
C            6.55882460184226       -0.01393881894565        0.92256268754402
O            5.33869020571678        0.67760565730479        0.67517687431543
C            4.26990927102644       -0.09102648689102        0.38967063304240
O            4.35334863690848       -1.30928815022099        0.35027325317860
C            3.03377931555021        0.65552093882196        0.14123772138736
N            1.97882076682269       -0.15923553998219       -0.17211509229337
C            0.81814688938763        0.32577216481366       -0.44401652020146
C           -0.30503723755089       -0.60894836853101       -0.79834456108629
C           -1.20383272499392       -0.05445627724136       -1.89860427226952
C            0.24373744503348       -1.97991877807518       -1.17197256441180
N           -1.19065027443854       -0.71790800461704        0.48522895551658
C           -0.46227429673962       -1.27825703918415        1.65404273171583
C           -2.42814914326651       -1.52828664230319        0.24948671941703
O           -2.36122773186244       -2.72381609325159        0.20665751384149
C           -3.60925127180339       -0.71612389282424        0.11878063182019
N           -4.84168935962503       -1.11774045492906       -0.06157054747156
N           -5.61072726711514       -0.01801486438393       -0.09436818130521
C           -4.82289864306751        1.01138742342898        0.06796305440899
C           -5.20033552405321        2.43608875756573        0.10330553204208
O           -3.54576971577786        0.63460365766505        0.20831042888265
N            0.56563895736471        1.68129615038069       -0.38084170550292
C            1.52609655324531        2.61923101302692       -0.06749934858408
O            1.22644989547082        3.80348160894933       -0.02800328784299
C            2.91224715128304        2.07430129592344        0.21119186603054
O            3.81920174705642        2.87164725437813        0.47944141514986
H            6.85455396803357       -0.59509697912273        0.04410520056486
H            6.44942125993826       -0.69020385195986        1.77542273982406
H            7.31310678037502        0.74116013837418        1.14044360094403
H           -1.93660816770764       -0.80008192873976       -2.20250195291562
H           -0.58925891425470        0.20384718019618       -2.75989025219260
H           -1.73264714698165        0.83595563047466       -1.56613357772116
H            0.78990177487364       -1.87622305503069       -2.10918077699885
H            0.93539938960007       -2.34128193723074       -0.41255748349372
H           -0.55720281313512       -2.70093053182605       -1.31250662464908
H           -1.47787548926569        0.23592801633569        0.70840515119248
H           -1.05007352090388       -1.06015760968524        2.54154906210545
H           -0.35975967059629       -2.35248331129357        1.52304030004273
H            0.51311978433354       -0.79959741089557        1.71012699034829
H           -4.72373656111455        2.96521973255392       -0.72222043745949
H           -4.85408725116259        2.88808702087737        1.03273431519432
H           -6.28056876649623        2.53234910959496        0.02402830112355
H           -0.35673190194378        2.03527027650333       -0.56085849323921
