4
xtbopt.out	Energy:     -39.5849991
C          0.00031       -0.00008        0.00133
H          1.07437       -0.24786        0.00701
H         -0.75192       -0.80607       -0.01208
H         -0.32276        1.05401        0.00375
