42
 energy: -83.620828557208 gnorm: 0.000474927842 xtb: 6.5.1 (579679a)
C           -2.47647455111458        3.57540682902210       -0.70695412619561
O           -2.78960212304522        2.21599228984867       -0.67862779002666
C           -2.17547765750267        1.44159794307984        0.53743624036134
C           -3.26999669191204        1.57234220794994        1.65940564939352
O           -1.02041394885957        1.90280636197117        0.88903242548604
C           -2.16279571711793       -0.03754756262435        0.00222475675097
N           -0.90365762921772       -0.54858098152577       -0.08440585444942
C           -0.68346245815163       -1.75262114071024       -0.49084098930968
C            0.73205288680393       -2.30011006550206       -0.51809836751757
C            0.87952766967792       -3.43579911950532        0.50667739726436
C            1.11412410107351       -2.78686322783703       -1.92333294094432
N            1.58651557620348       -1.17298394034166       -0.14394941730404
C            2.91034865350038       -1.23675185696605       -0.01362729329249
O            3.60226813791463       -2.23935773764457       -0.16783647102858
C            3.53559341466624        0.06962016411512        0.34669628397807
N            4.77503813540814        0.27740698139430        0.67665583684711
N            4.90232170771967        1.61787267292822        0.90244193621167
C            3.73353583857445        2.14249900206398        0.69175331951584
C            3.36217783995554        3.57173754055392        0.78429075660209
O            2.82798156099189        1.21779226185218        0.34094362864131
N           -1.72074172756467       -2.57282137078000       -0.87320903045736
C           -3.04005857304007       -2.17805182098271       -0.84019352683487
O           -3.90591325303641       -2.98482814120940       -1.22404523433867
C           -3.30262314983507       -0.79437039007797       -0.33507273323151
O           -4.50876454700902       -0.41172637474707       -0.24682979495896
H           -2.45292429966077        3.92096920359790       -1.75013701203249
H           -1.48591126387671        3.78094599460228       -0.26385351096156
H           -3.21882750619243        4.19281041143416       -0.16755157568460
H           -3.03520923988563        0.86861036927887        2.45836010872313
H           -3.22661236548292        2.58375386828903        2.06338478462673
H           -4.27199377620180        1.37736419157393        1.28152824508708
H            0.17655710189841       -4.23153202617415        0.26817821740035
H            1.88816048173579       -3.84423603106843        0.48479789055832
H            0.66636874319978       -3.06495374135610        1.50881171938103
H            2.13353843429936       -3.16861380802266       -1.92726235814248
H            1.03872507097465       -1.96701314157153       -2.63690451600685
H            0.44365129085624       -3.58657117399060       -2.23117128173502
H            1.07933846928460       -0.29904797904738        0.03629422388822
H            4.21737062984523        4.14454236327559        1.13208328558085
H            2.52836750182843        3.70370629380803        1.47368730009189
H            3.05676897299159        3.94073050960071       -0.19472140221796
H           -1.53887274071011       -3.50412782855079       -1.20425077971214
