      -----------------------------------------------------------      
     |                   =====================                   |     
     |                           x T B                           |     
     |                   =====================                   |     
     |                         S. Grimme                         |     
     |          Mulliken Center for Theoretical Chemistry        |     
     |                    University of Bonn                     |     
      -----------------------------------------------------------      

   * xtb version 6.5.1 (579679a) compiled by 'ehlert@majestix' on 2022-07-11

   xtb is free software: you can redistribute it and/or modify it under
   the terms of the GNU Lesser General Public License as published by
   the Free Software Foundation, either version 3 of the License, or
   (at your option) any later version.
   
   xtb is distributed in the hope that it will be useful,
   but WITHOUT ANY WARRANTY; without even the implied warranty of
   MERCHANTABILITY or FITNESS FOR A PARTICULAR PURPOSE.  See the
   GNU Lesser General Public License for more details.
   
   Cite this work as:
   * C. Bannwarth, E. Caldeweyher, S. Ehlert, A. Hansen, P. Pracht,
     J. Seibert, S. Spicher, S. Grimme, WIREs Comput. Mol. Sci., 2020, 11,
     e01493. DOI: 10.1002/wcms.1493
   
   for GFN2-xTB:
   * C. Bannwarth, S. Ehlert and S. Grimme., J. Chem. Theory Comput., 2019,
     15, 1652-1671. DOI: 10.1021/acs.jctc.8b01176
   for GFN1-xTB:
   * S. Grimme, C. Bannwarth, P. Shushkov, J. Chem. Theory Comput., 2017,
     13, 1989-2009. DOI: 10.1021/acs.jctc.7b00118
   for GFN0-xTB:
   * P. Pracht, E. Caldeweyher, S. Ehlert, S. Grimme, ChemRxiv, 2019, preprint.
     DOI: 10.26434/chemrxiv.8326202.v1
   for GFN-FF:
   * S. Spicher and S. Grimme, Angew. Chem. Int. Ed., 2020, 59, 15665-15673.
     DOI: 10.1002/anie.202004239
   
   for ALPB and GBSA implicit solvation:
   * S. Ehlert, M. Stahn, S. Spicher, S. Grimme, J. Chem. Theory Comput.,
     2021, 17, 4250-4261. DOI: 10.1021/acs.jctc.1c00471
   
   for DFT-D4:
   * E. Caldeweyher, C. Bannwarth and S. Grimme, J. Chem. Phys., 2017,
     147, 034112. DOI: 10.1063/1.4993215
   * E. Caldeweyher, S. Ehlert, A. Hansen, H. Neugebauer, S. Spicher,
     C. Bannwarth and S. Grimme, J. Chem. Phys., 2019, 150, 154122.
     DOI: 10.1063/1.5090222
   * E. Caldeweyher, J.-M. Mewes, S. Ehlert and S. Grimme, Phys. Chem. Chem. Phys.
     2020, 22, 8499-8512. DOI: 10.1039/D0CP00502A
   
   for sTDA-xTB:
   * S. Grimme and C. Bannwarth, J. Chem. Phys., 2016, 145, 054103.
     DOI: 10.1063/1.4959605
   
   in the mass-spec context:
   * V. Asgeirsson, C. Bauer and S. Grimme, Chem. Sci., 2017, 8, 4879.
     DOI: 10.1039/c7sc00601b
   * J. Koopman and S. Grimme, ACS Omega 2019, 4, 12, 15120-15133.
     DOI: 10.1021/acsomega.9b02011
   
   for metadynamics refer to:
   * S. Grimme, J. Chem. Theory Comput., 2019, 155, 2847-2862
     DOI: 10.1021/acs.jctc.9b00143
   
   for SPH calculations refer to:
   * S. Spicher and S. Grimme, J. Chem. Theory Comput., 2021, 17, 1701-1714
     DOI: 10.1021/acs.jctc.0c01306
   
   with help from (in alphabetical order)
   P. Atkinson, C. Bannwarth, F. Bohle, G. Brandenburg, E. Caldeweyher
   M. Checinski, S. Dohm, S. Ehlert, S. Ehrlich, I. Gerasimov, C. Hölzer
   A. Katbashev, J. Koopman, C. Lavigne, S. Lehtola, F. März, M. Müller,
   F. Musil, H. Neugebauer, J. Pisarek, C. Plett, P. Pracht, F. Pultar,
   J. Seibert, P. Shushkov, S. Spicher, M. Stahn, M. Steiner, T. Strunk,
   J. Stückrath, T. Rose, and J. Unsleber
   
 * started run on 2023/06/21 at 17:44:16.480     

           -------------------------------------------------
          |                Calculation Setup                |
           -------------------------------------------------

          program call               : /lustre/hpc/kemi/ree/PhD/git/ReactivityQM/dep/xtb-6.5.1/bin/xtb --gfn 1 /lustre/hpc/kemi/ree/PhD/git/ReactivityQM/calculations/R02methylcation/reac01prodN12/conf04/R02methylcation_reac01prodN12_conf04_gfn1.xyz --opt --vfukui --chrg 0 --uhf 0 --alpb DMSO
          hostname                   : node317
          coordinate file            : /lustre/hpc/kemi/ree/PhD/git/ReactivityQM/calculations/R02methylcation/reac01prodN12/conf04/R02methylcation_reac01prodN12_conf04_gfn1.xyz
          omp threads                :                     1

   ID    Z sym.   atoms
    1    6 C      1, 3, 5, 7-10, 12, 14, 15, 18, 19, 22, 24
    2    8 O      2, 4, 13, 20, 23, 25
    3    7 N      6, 11, 16, 17, 21
    4    1 H      26-42

           -------------------------------------------------
          |                 G F N 1 - x T B                 |
           -------------------------------------------------

        Reference                      10.1021/acs.jctc.7b00118
      * Hamiltonian:
        H0-scaling (s, p, d)           1.850000    2.250000    2.000000
        zeta-weighting                 0.000000
      * Dispersion:
        s8                             2.400000
        a1                             0.630000
        a2                             5.000000
        s9                             0.000000
      * Repulsion:
        kExp                           1.500000
        rExp                           1.000000
      * Coulomb:
        alpha                          2.000000
        third order                    atomic
        anisotropic                    false
      * Halogen bond correction:
        rad-scale                      1.300000
        damping                        0.440000

      * Solvation model:               ALPB
        Solvent                        DMSO
        Parameter file                 internal GFN1-xTB/ALPB
        Dielectric constant                4.6680E+01
        Reference state                gsolv [1 M gas/solution]
        Free energy shift                  7.6243E-03 Eh       4.7843E+00 kcal/mol
        Temperature                        2.9815E+02 K
        Density                            1.1000E+00 kg/L
        Solvent mass                       7.8130E+01 g/mol
        Interaction kernel             P16
        Born radius scaling (c1)           1.7672E+00
        Born radii integrator          GBOBC
        Born offset                        0.0000E+00 a0       0.0000E+00 AA
        H-bond correction              true
        Ion screening                  false
        Surface tension                    1.0000E-05 Eh       1.5569E+01 dyn/cm
        Grid points                               230 per atom

          ...................................................
          :                      SETUP                      :
          :.................................................:
          :  # basis functions                 134          :
          :  # atomic orbitals                 134          :
          :  # shells                           84          :
          :  # electrons                       134          :
          :  # halogen bonds                     0          :
          :  max. iterations                   250          :
          :  Hamiltonian                  GFN1-xTB          :
          :  restarted?                      false          :
          :  GBSA solvation                   true          :
          :  PC potential                    false          :
          :  electronic temp.          300.0000000     K    :
          :  accuracy                    1.0000000          :
          :  -> integral cutoff          0.2500000E+02      :
          :  -> integral neglect         0.1000000E-07      :
          :  -> SCF convergence          0.1000000E-05 Eh   :
          :  -> wf. convergence          0.2000000E-04 e    :
          :  Broyden damping             0.4000000          :
          ...................................................

 iter      E             dE          RMSdq      gap      omega  full diag
   1    -83.2281402 -0.832281E+02  0.851E+00    1.61       0.0  T
   2    -83.4052808 -0.177141E+00  0.525E+00    0.31       1.0  T
   3    -83.4317741 -0.264933E-01  0.322E+00    0.37       1.0  T
   4    -83.6105657 -0.178792E+00  0.110E+00    1.98       1.0  T
   5    -83.6524179 -0.418522E-01  0.600E-01    0.24       1.0  T
   6    -83.4313447  0.221073E+00  0.160E+00    0.46       1.0  T
   7    -83.6455668 -0.214222E+00  0.655E-01    0.36       1.0  T
   8    -83.6591279 -0.135611E-01  0.505E-01    0.02       1.0  T
   9    -83.6459689  0.131591E-01  0.639E-01    0.31       1.0  T
  10    -83.6698037 -0.238349E-01  0.411E-01    0.12       1.0  T
  11    -83.6511724  0.186314E-01  0.571E-01    0.03       1.0  T
  12    -83.6710367 -0.198644E-01  0.397E-01    0.12       1.0  T
  13    -83.6890821 -0.180454E-01  0.900E-03    0.05       1.7  T
  14    -83.6885713  0.510796E-03  0.669E-02    0.06       1.0  T
  15    -83.6890660 -0.494635E-03  0.146E-02    0.05       1.1  T
  16    -83.6890865 -0.205381E-04  0.592E-03    0.05       2.6  T
  17    -83.6890905 -0.402210E-05  0.402E-04    0.05      38.3  T
  18    -83.6890902  0.306049E-06  0.168E-03    0.05       9.2  T
  19    -83.6890905 -0.323648E-06  0.117E-04    0.05     131.6  T
  20    -83.6890905 -0.913900E-09  0.733E-05    0.05     210.6  T

   *** convergence criteria satisfied after 20 iterations ***

         #    Occupation            Energy/Eh            Energy/eV
      -------------------------------------------------------------
         1        2.0000           -0.8763145             -23.8457
       ...           ...                  ...                  ...
        61        2.0000           -0.4819801             -13.1153
        62        2.0000           -0.4786854             -13.0257
        63        2.0000           -0.4719468             -12.8423
        64        2.0000           -0.4707078             -12.8086
        65        2.0000           -0.4580527             -12.4642
        66        2.0000           -0.4191107             -11.4046
        67        1.4521           -0.4025876             -10.9550 (HOMO)
        68        0.5479           -0.4007356             -10.9046 (LUMO)
        69                         -0.3109541              -8.4615
        70                         -0.3000154              -8.1638
        71                         -0.2886995              -7.8559
        72                         -0.2844534              -7.7404
       ...                                ...                  ...
       134                          0.7727510              21.0276
      -------------------------------------------------------------
                  HL-Gap            0.0018520 Eh            0.0504 eV
             Fermi-level           -0.4016616 Eh          -10.9298 eV

 SCC (total)                   0 d,  0 h,  0 min,  0.209 sec
 SCC setup                      ...        0 min,  0.002 sec (  1.014%)
 Dispersion                     ...        0 min,  0.000 sec (  0.199%)
 classical contributions        ...        0 min,  0.000 sec (  0.064%)
 integral evaluation            ...        0 min,  0.033 sec ( 15.826%)
 iterations                     ...        0 min,  0.086 sec ( 41.393%)
 molecular gradient             ...        0 min,  0.085 sec ( 40.981%)
 printout                       ...        0 min,  0.001 sec (  0.497%)

         :::::::::::::::::::::::::::::::::::::::::::::::::::::
         ::                     SUMMARY                     ::
         :::::::::::::::::::::::::::::::::::::::::::::::::::::
         :: total energy             -82.929543540093 Eh    ::
         :: total w/o Gsasa/hb       -82.910302260770 Eh    ::
         :: gradient norm              0.093714979903 Eh/a0 ::
         :: HOMO-LUMO gap              0.050395123785 eV    ::
         ::.................................................::
         :: SCC energy               -83.689090533717 Eh    ::
         :: -> electrostatic           0.391270012200 Eh    ::
         :: -> Gsolv                  -0.074419793314 Eh    ::
         ::    -> Gelec               -0.055178513991 Eh    ::
         ::    -> Gsasa               -0.023592245776 Eh    ::
         ::    -> Ghb                 -0.003273312552 Eh    ::
         ::    -> Gshift               0.007624279005 Eh    ::
         :: repulsion energy           0.786810951991 Eh    ::
         :: dispersion energy         -0.027263958367 Eh    ::
         :: halogen bond corr.         0.000000000000 Eh    ::
         :: add. restraining           0.000000000000 Eh    ::
         :: total charge               0.000000000000 e     ::
         :::::::::::::::::::::::::::::::::::::::::::::::::::::

      ----------------------------------------------------------- 
     |                   =====================                   |
     |                        A N C O P T                        |
     |                   =====================                   |
     |               Approximate Normal Coordinate               |
     |                Rational Function Optimizer                |
      ----------------------------------------------------------- 

          ...................................................
          :                      SETUP                      :
          :.................................................:
          :   optimization level            normal          :
          :   max. optcycles                   200          :
          :   ANC micro-cycles                  20          :
          :   degrees of freedom               120          :
          :.................................................:
          :   RF solver                   davidson          :
          :   write xtbopt.log                true          :
          :   linear?                        false          :
          :   energy convergence         0.5000000E-05 Eh   :
          :   grad. convergence          0.1000000E-02 Eh/α :
          :   maximium RF displ.         1.0000000          :
          :   Hlow (freq-cutoff)         0.1000000E-01      :
          :   Hmax (freq-cutoff)         5.0000000          :
          :   S6 in model hess.         20.0000000          :
          ...................................................

generating ANC from model Hessian ...
Using Lindh-Hessian (1995)
 Shifting diagonal of input Hessian by   9.788055376985948E-003
 Lowest  eigenvalues of input Hessian
    0.000000    0.000000    0.000000    0.000000    0.000000    0.000000
    0.010000    0.010047    0.010334    0.010934    0.011918    0.012046
    0.012625    0.014072    0.014451    0.015189    0.017826    0.018291
 Highest eigenvalues
    2.016254    2.087963    2.233238    2.291921    2.357787    2.452988
 

........................................................................
.............................. CYCLE    1 ..............................
........................................................................
   1    -83.6890905 -0.836891E+02  0.347E-05    0.05       0.0  T
   2    -83.6890905  0.480567E-07  0.646E-04    0.05      23.9  T
   3    -83.6890905 -0.481958E-07  0.495E-07    0.05   31166.0  T
   4    -83.6890905  0.994760E-13  0.114E-06    0.05   13554.9  T
     SCC iter.                  ...        0 min,  0.014 sec
     gradient                   ...        0 min,  0.082 sec
 * total energy  :   -82.9295435 Eh     change       -0.6342020E-09 Eh
   gradient norm :     0.0937116 Eh/α   predicted     0.0000000E+00 (-100.00%)
   displ. norm   :     0.3504088 α      lambda       -0.1397781E-01
   maximum displ.:     0.1652195 α      in ANC's #23, #17, #8, ...

........................................................................
.............................. CYCLE    2 ..............................
........................................................................
   1    -83.6745729 -0.836746E+02  0.478E-01    0.16       0.0  T
   2    -83.4240792  0.250494E+00  0.169E+00    0.44       1.0  T
   3    -83.5206227 -0.965434E-01  0.125E+00    0.12       1.0  T
   4    -83.6999491 -0.179326E+00  0.890E-02    0.07       1.0  T
   5    -83.7007686 -0.819470E-03  0.175E-02    0.06       1.0  T
   6    -83.7007837 -0.151375E-04  0.581E-03    0.05       2.7  T
   7    -83.7006401  0.143629E-03  0.355E-02    0.06       1.0  T
   8    -83.7007783 -0.138250E-03  0.711E-03    0.05       2.2  T
   9    -83.7007764  0.195768E-05  0.820E-03    0.05       1.9  T
  10    -83.7007840 -0.763034E-05  0.976E-04    0.06      15.8  T
  11    -83.7007841 -0.107157E-06  0.308E-05    0.05     500.3  T
  12    -83.7007841  0.603066E-09  0.765E-05    0.05     201.7  T
     SCC iter.                  ...        0 min,  0.041 sec
     gradient                   ...        0 min,  0.083 sec
 * total energy  :   -82.9396800 Eh     change       -0.1013650E-01 Eh
   gradient norm :     0.0467350 Eh/α   predicted    -0.7855506E-02 ( -22.50%)
   displ. norm   :     0.3594836 α      lambda       -0.6245514E-02
   maximum displ.:     0.1639387 α      in ANC's #23, #17, #12, ...

........................................................................
.............................. CYCLE    3 ..............................
........................................................................
   1    -83.6869937 -0.836870E+02  0.428E-01    0.15       0.0  T
   2    -83.4242138  0.262780E+00  0.170E+00    0.42       1.0  T
   3    -83.5739069 -0.149693E+00  0.108E+00    0.08       1.0  T
   4    -83.6986376 -0.124731E+00  0.286E-01    0.11       1.0  T
   5    -83.7053394 -0.670182E-02  0.145E-01    0.08       1.0  T
   6    -83.7057641 -0.424622E-03  0.131E-01    0.05       1.0  T
   7    -83.7077183 -0.195421E-02  0.221E-03    0.06       7.0  T
   8    -83.7076999  0.184030E-04  0.129E-02    0.06       1.2  T
   9    -83.7077155 -0.156215E-04  0.522E-03    0.06       3.0  T
  10    -83.7077182 -0.271307E-05  0.189E-03    0.06       8.2  T
  11    -83.7077186 -0.400174E-06  0.250E-04    0.06      61.7  T
  12    -83.7077186 -0.619661E-08  0.900E-05    0.06     171.5  T
  13    -83.7077186 -0.917069E-09  0.153E-06    0.06   10063.2  T
     SCC iter.                  ...        0 min,  0.044 sec
     gradient                   ...        0 min,  0.084 sec
 * total energy  :   -82.9434682 Eh     change       -0.3788181E-02 Eh
   gradient norm :     0.0135403 Eh/α   predicted    -0.3527759E-02 (  -6.87%)
   displ. norm   :     0.2469987 α      lambda       -0.1099258E-02
   maximum displ.:     0.0864603 α      in ANC's #8, #10, #5, ...

........................................................................
.............................. CYCLE    4 ..............................
........................................................................
   1    -83.7060567 -0.837061E+02  0.143E-01    0.08       0.0  T
   2    -83.4554215  0.250635E+00  0.151E+00    0.26       1.0  T
   3    -83.7076476 -0.252226E+00  0.801E-02    0.05       1.0  T
   4    -83.7081214 -0.473834E-03  0.479E-02    0.07       1.0  T
   5    -83.7083785 -0.257118E-03  0.200E-03    0.06       7.7  T
   6    -83.7083704  0.811062E-05  0.841E-03    0.06       1.8  T
   7    -83.7083777 -0.722807E-05  0.282E-03    0.06       5.5  T
   8    -83.7083786 -0.893558E-06  0.697E-05    0.06     221.4  T
   9    -83.7083786  0.433391E-08  0.202E-04    0.06      76.2  T
  10    -83.7083786 -0.457388E-08  0.271E-05    0.06     569.4  T
     SCC iter.                  ...        0 min,  0.034 sec
     gradient                   ...        0 min,  0.084 sec
 * total energy  :   -82.9442814 Eh     change       -0.8131681E-03 Eh
   gradient norm :     0.0096758 Eh/α   predicted    -0.5831801E-03 ( -28.28%)
   displ. norm   :     0.3344924 α      lambda       -0.8885129E-03
   maximum displ.:     0.1325773 α      in ANC's #4, #5, #10, ...

........................................................................
.............................. CYCLE    5 ..............................
........................................................................
   1    -83.7085588 -0.837086E+02  0.509E-02    0.07       0.0  T
   2    -83.6013158  0.107243E+00  0.970E-01    0.06       1.0  T
   3    -83.7088012 -0.107485E+00  0.190E-02    0.07       1.0  T
   4    -83.7088408 -0.396108E-04  0.228E-03    0.07       6.8  T
   5    -83.7088402  0.598369E-06  0.283E-03    0.07       5.4  T
   6    -83.7088408 -0.544195E-06  0.129E-03    0.07      11.9  T
   7    -83.7088409 -0.175970E-06  0.232E-04    0.07      66.5  T
   8    -83.7088409 -0.503067E-08  0.691E-05    0.07     223.4  T
   9    -83.7088409 -0.471616E-09  0.574E-06    0.07    2686.2  T
     SCC iter.                  ...        0 min,  0.031 sec
     gradient                   ...        0 min,  0.084 sec
 * total energy  :   -82.9449203 Eh     change       -0.6389186E-03 Eh
   gradient norm :     0.0090464 Eh/α   predicted    -0.4940036E-03 ( -22.68%)
   displ. norm   :     0.3536139 α      lambda       -0.5900154E-03
   maximum displ.:     0.1733960 α      in ANC's #4, #5, #10, ...

........................................................................
.............................. CYCLE    6 ..............................
........................................................................
   1    -83.7096747 -0.837097E+02  0.181E-02    0.07       0.0  T
   2    -83.7036275  0.604724E-02  0.232E-01    0.10       1.0  T
   3    -83.7096636 -0.603607E-02  0.211E-02    0.07       1.0  T
   4    -83.7097135 -0.498916E-04  0.288E-03    0.07       5.4  T
   5    -83.7097128  0.685218E-06  0.328E-03    0.07       4.7  T
   6    -83.7097139 -0.113763E-05  0.133E-04    0.07     116.1  T
   7    -83.7097139 -0.417884E-09  0.837E-05    0.07     184.3  T
   8    -83.7097139 -0.276415E-09  0.537E-05    0.07     287.5  T
     SCC iter.                  ...        0 min,  0.027 sec
     gradient                   ...        0 min,  0.084 sec
 * total energy  :   -82.9453731 Eh     change       -0.4527964E-03 Eh
   gradient norm :     0.0086304 Eh/α   predicted    -0.3319042E-03 ( -26.70%)
   displ. norm   :     0.4097169 α      lambda       -0.5616171E-03
   maximum displ.:     0.2224162 α      in ANC's #4, #5, #3, ...

........................................................................
.............................. CYCLE    7 ..............................
........................................................................
   1    -83.7107513 -0.837108E+02  0.525E-02    0.07       0.0  T
   2    -83.6875521  0.231991E-01  0.465E-01    0.19       1.0  T
   3    -83.7104766 -0.229244E-01  0.731E-02    0.08       1.0  T
   4    -83.7108181 -0.341500E-03  0.487E-02    0.07       1.0  T
   5    -83.7110378 -0.219746E-03  0.213E-02    0.07       1.0  T
   6    -83.7110837 -0.458905E-04  0.701E-03    0.07       2.2  T
   7    -83.7110893 -0.557349E-05  0.327E-04    0.07      47.2  T
   8    -83.7110893 -0.823529E-08  0.167E-04    0.07      92.2  T
   9    -83.7110893 -0.230401E-08  0.888E-05    0.07     173.8  T
     SCC iter.                  ...        0 min,  0.031 sec
     gradient                   ...        0 min,  0.084 sec
 * total energy  :   -82.9458258 Eh     change       -0.4526493E-03 Eh
   gradient norm :     0.0076258 Eh/α   predicted    -0.3279549E-03 ( -27.55%)
   displ. norm   :     0.4727100 α      lambda       -0.6065393E-03
   maximum displ.:     0.2715313 α      in ANC's #4, #3, #5, ...

........................................................................
.............................. CYCLE    8 ..............................
........................................................................
   1    -83.7119167 -0.837119E+02  0.725E-02    0.07       0.0  T
   2    -83.6838713  0.280454E-01  0.519E-01    0.24       1.0  T
   3    -83.7108543 -0.269831E-01  0.123E-01    0.09       1.0  T
   4    -83.7115763 -0.722005E-03  0.926E-02    0.06       1.0  T
   5    -83.7125583 -0.981984E-03  0.554E-03    0.07       2.8  T
   6    -83.7125520  0.627547E-05  0.906E-03    0.08       1.7  T
   7    -83.7125609 -0.881557E-05  0.196E-03    0.07       7.9  T
   8    -83.7125613 -0.436849E-06  0.136E-04    0.07     113.3  T
   9    -83.7125613 -0.119442E-08  0.843E-05    0.07     183.1  T
     SCC iter.                  ...        0 min,  0.031 sec
     gradient                   ...        0 min,  0.084 sec
 * total energy  :   -82.9463251 Eh     change       -0.4993755E-03 Eh
   gradient norm :     0.0080417 Eh/α   predicted    -0.3710376E-03 ( -25.70%)
   displ. norm   :     0.5131875 α      lambda       -0.6315665E-03
   maximum displ.:     0.3056321 α      in ANC's #4, #3, #5, ...

........................................................................
.............................. CYCLE    9 ..............................
........................................................................
   1    -83.7131516 -0.837132E+02  0.603E-02    0.07       0.0  T
   2    -83.6876980  0.254536E-01  0.491E-01    0.21       1.0  T
   3    -83.7124454 -0.247474E-01  0.102E-01    0.09       1.0  T
   4    -83.7131483 -0.702913E-03  0.628E-02    0.07       1.0  T
   5    -83.7135892 -0.440933E-03  0.121E-02    0.08       1.3  T
   6    -83.7136031 -0.138672E-04  0.413E-03    0.08       3.7  T
   7    -83.7136049 -0.174071E-05  0.817E-04    0.08      18.9  T
   8    -83.7136049 -0.758223E-07  0.142E-04    0.08     108.6  T
   9    -83.7136049 -0.201777E-08  0.417E-05    0.08     370.3  T
     SCC iter.                  ...        0 min,  0.031 sec
     gradient                   ...        0 min,  0.085 sec
 * total energy  :   -82.9468423 Eh     change       -0.5171563E-03 Eh
   gradient norm :     0.0097124 Eh/α   predicted    -0.3989494E-03 ( -22.86%)
   displ. norm   :     0.5119513 α      lambda       -0.6058736E-03
   maximum displ.:     0.3130643 α      in ANC's #4, #3, #7, ...

........................................................................
.............................. CYCLE   10 ..............................
........................................................................
   1    -83.7143202 -0.837143E+02  0.202E-02    0.08       0.0  T
   2    -83.7068587  0.746144E-02  0.260E-01    0.12       1.0  T
   3    -83.7141403 -0.728154E-02  0.462E-02    0.08       1.0  T
   4    -83.7143718 -0.231500E-03  0.385E-03    0.08       4.0  T
   5    -83.7143712  0.546895E-06  0.385E-03    0.08       4.0  T
   6    -83.7143726 -0.133063E-05  0.110E-03    0.08      14.0  T
   7    -83.7143727 -0.110611E-06  0.409E-04    0.08      37.7  T
   8    -83.7143727 -0.186026E-07  0.103E-04    0.08     150.1  T
   9    -83.7143727 -0.604146E-09  0.706E-05    0.08     218.4  T
     SCC iter.                  ...        0 min,  0.031 sec
     gradient                   ...        0 min,  0.084 sec
 * total energy  :   -82.9473317 Eh     change       -0.4893811E-03 Eh
   gradient norm :     0.0097809 Eh/α   predicted    -0.3823369E-03 ( -21.87%)
   displ. norm   :     0.5196875 α      lambda       -0.5665540E-03
   maximum displ.:     0.3219419 α      in ANC's #4, #3, #7, ...

........................................................................
.............................. CYCLE   11 ..............................
........................................................................
   1    -83.7140445 -0.837140E+02  0.188E-02    0.08       0.0  T
   2    -83.7086925  0.535207E-02  0.217E-01    0.06       1.0  T
   3    -83.7138272 -0.513478E-02  0.472E-02    0.09       1.0  T
   4    -83.7140211 -0.193879E-03  0.211E-02    0.08       1.0  T
   5    -83.7140656 -0.444818E-04  0.535E-03    0.08       2.9  T
   6    -83.7140684 -0.284284E-05  0.856E-04    0.08      18.0  T
   7    -83.7140685 -0.673751E-07  0.195E-04    0.08      79.0  T
   8    -83.7140685 -0.262476E-08  0.108E-04    0.08     142.6  T
     SCC iter.                  ...        0 min,  0.029 sec
     gradient                   ...        0 min,  0.085 sec
 * total energy  :   -82.9477894 Eh     change       -0.4577703E-03 Eh
   gradient norm :     0.0109930 Eh/α   predicted    -0.3597833E-03 ( -21.41%)
   displ. norm   :     0.5054129 α      lambda       -0.6027338E-03
   maximum displ.:     0.3131229 α      in ANC's #4, #3, #7, ...

........................................................................
.............................. CYCLE   12 ..............................
........................................................................
   1    -83.7164134 -0.837164E+02  0.811E-02    0.09       0.0  T
   2    -83.5338675  0.182546E+00  0.127E+00    0.13       1.0  T
   3    -83.7170782 -0.183211E+00  0.226E-02    0.09       1.0  T
   4    -83.7171169 -0.386909E-04  0.116E-02    0.08       1.3  T
   5    -83.7171264 -0.950564E-05  0.620E-03    0.08       2.5  T
   6    -83.7171302 -0.387143E-05  0.386E-04    0.08      40.0  T
   7    -83.7171303 -0.110995E-07  0.141E-04    0.08     109.3  T
   8    -83.7171303 -0.143747E-08  0.700E-05    0.08     220.4  T
     SCC iter.                  ...        0 min,  0.029 sec
     gradient                   ...        0 min,  0.085 sec
 * total energy  :   -82.9482171 Eh     change       -0.4277068E-03 Eh
   gradient norm :     0.0099059 Eh/α   predicted    -0.3783513E-03 ( -11.54%)
   displ. norm   :     0.6270706 α      lambda       -0.6603268E-03
   maximum displ.:     0.3809498 α      in ANC's #4, #3, #19, ...

........................................................................
.............................. CYCLE   13 ..............................
........................................................................
   1    -83.7088557 -0.837089E+02  0.601E-02    0.08       0.0  T
   2    -83.6881752  0.206805E-01  0.441E-01    0.19       1.0  T
   3    -83.7090262 -0.208510E-01  0.440E-02    0.09       1.0  T
   4    -83.7092209 -0.194647E-03  0.623E-03    0.09       2.5  T
   5    -83.7091628  0.581202E-04  0.229E-02    0.09       1.0  T
   6    -83.7092020 -0.392695E-04  0.129E-02    0.08       1.2  T
   7    -83.7092193 -0.172265E-04  0.384E-03    0.09       4.0  T
   8    -83.7092209 -0.165033E-05  0.498E-04    0.09      31.0  T
   9    -83.7092209 -0.250217E-07  0.166E-04    0.09      93.1  T
  10    -83.7092209 -0.155893E-10  0.166E-04    0.09      93.2  T
     SCC iter.                  ...        0 min,  0.036 sec
     gradient                   ...        0 min,  0.085 sec
 * total energy  :   -82.9483821 Eh     change       -0.1649859E-03 Eh
   gradient norm :     0.0285964 Eh/α   predicted    -0.4599955E-03 ( 178.81%)
   displ. norm   :     0.1662697 α      lambda       -0.7722559E-03
   maximum displ.:     0.1157599 α      in ANC's #5, #14, #9, ...

........................................................................
.............................. CYCLE   14 ..............................
........................................................................
   1    -83.7160466 -0.837160E+02  0.104E-01    0.10       0.0  T
   2    -83.4942813  0.221765E+00  0.141E+00    0.19       1.0  T
   3    -83.7167684 -0.222487E+00  0.739E-02    0.08       1.0  T
   4    -83.7172905 -0.522023E-03  0.240E-02    0.08       1.0  T
   5    -83.7173310 -0.405847E-04  0.125E-02    0.09       1.2  T
   6    -83.7173460 -0.149524E-04  0.173E-03    0.09       8.9  T
   7    -83.7173462 -0.255034E-06  0.725E-04    0.09      21.3  T
   8    -83.7173463 -0.580018E-07  0.590E-05    0.09     261.4  T
   9    -83.7173463 -0.157883E-10  0.498E-05    0.09     309.6  T
     SCC iter.                  ...        0 min,  0.032 sec
     gradient                   ...        0 min,  0.085 sec
 * total energy  :   -82.9488369 Eh     change       -0.4547714E-03 Eh
   gradient norm :     0.0122269 Eh/α   predicted    -0.3968046E-03 ( -12.75%)
   displ. norm   :     0.3691567 α      lambda       -0.4197231E-03
   maximum displ.:     0.2100718 α      in ANC's #4, #3, #5, ...

........................................................................
.............................. CYCLE   15 ..............................
........................................................................
   1    -83.7181426 -0.837181E+02  0.235E-02    0.09       0.0  T
   2    -83.7106952  0.744734E-02  0.257E-01    0.07       1.0  T
   3    -83.7179427 -0.724749E-02  0.461E-02    0.09       1.0  T
   4    -83.7181749 -0.232151E-03  0.837E-03    0.09       1.8  T
   5    -83.7181817 -0.683007E-05  0.151E-03    0.09      10.2  T
   6    -83.7181817 -0.564571E-07  0.504E-04    0.09      30.6  T
   7    -83.7181817 -0.981308E-08  0.421E-04    0.09      36.6  T
   8    -83.7181818 -0.183416E-07  0.973E-05    0.09     158.6  T
   9    -83.7181818 -0.973586E-09  0.107E-05    0.09    1439.0  T
     SCC iter.                  ...        0 min,  0.032 sec
     gradient                   ...        0 min,  0.085 sec
 * total energy  :   -82.9491166 Eh     change       -0.2796815E-03 Eh
   gradient norm :     0.0075119 Eh/α   predicted    -0.2384608E-03 ( -14.74%)
   displ. norm   :     0.4915775 α      lambda       -0.4331698E-03
   maximum displ.:     0.2639767 α      in ANC's #4, #3, #19, ...

........................................................................
.............................. CYCLE   16 ..............................
........................................................................
   1    -83.7164790 -0.837165E+02  0.159E-02    0.09       0.0  T
   2    -83.7161397  0.339315E-03  0.558E-02    0.10       1.0  T
   3    -83.7161750 -0.353261E-04  0.543E-02    0.09       1.0  T
   4    -83.7164939 -0.318811E-03  0.503E-03    0.09       3.1  T
   5    -83.7164928  0.105259E-05  0.523E-03    0.09       3.0  T
   6    -83.7164956 -0.276098E-05  0.331E-04    0.09      46.7  T
   7    -83.7164956 -0.225491E-08  0.272E-04    0.09      56.6  T
   8    -83.7164956 -0.790911E-08  0.271E-05    0.09     569.7  T
   9    -83.7164956  0.773070E-11  0.168E-05    0.09     920.1  T
     SCC iter.                  ...        0 min,  0.031 sec
     gradient                   ...        0 min,  0.085 sec
 * total energy  :   -82.9494005 Eh     change       -0.2839031E-03 Eh
   gradient norm :     0.0083614 Eh/α   predicted    -0.2689251E-03 (  -5.28%)
   displ. norm   :     0.2573319 α      lambda       -0.2473065E-03
   maximum displ.:     0.1136632 α      in ANC's #3, #1, #4, ...

........................................................................
.............................. CYCLE   17 ..............................
........................................................................
   1    -83.7183217 -0.837183E+02  0.166E-02    0.09       0.0  T
   2    -83.7171689  0.115281E-02  0.101E-01    0.11       1.0  T
   3    -83.7180612 -0.892299E-03  0.510E-02    0.09       1.0  T
   4    -83.7183123 -0.251149E-03  0.163E-02    0.09       1.0  T
   5    -83.7183293 -0.169667E-04  0.951E-03    0.09       1.6  T
   6    -83.7183385 -0.921983E-05  0.157E-03    0.09       9.8  T
   7    -83.7183388 -0.265759E-06  0.151E-04    0.09     102.0  T
   8    -83.7183388 -0.212810E-08  0.560E-05    0.09     275.4  T
     SCC iter.                  ...        0 min,  0.029 sec
     gradient                   ...        0 min,  0.085 sec
 * total energy  :   -82.9495470 Eh     change       -0.1465189E-03 Eh
   gradient norm :     0.0109122 Eh/α   predicted    -0.1318471E-03 ( -10.01%)
   displ. norm   :     0.2670341 α      lambda       -0.2657058E-03
   maximum displ.:     0.1465558 α      in ANC's #3, #1, #4, ...

........................................................................
.............................. CYCLE   18 ..............................
........................................................................
   1    -83.7189129 -0.837189E+02  0.304E-02    0.10       0.0  T
   2    -83.7014194  0.174935E-01  0.394E-01    0.07       1.0  T
   3    -83.7188234 -0.174040E-01  0.393E-02    0.10       1.0  T
   4    -83.7189893 -0.165859E-03  0.819E-03    0.10       1.9  T
   5    -83.7189961 -0.681558E-05  0.156E-03    0.10       9.9  T
   6    -83.7189957  0.414939E-06  0.195E-03    0.10       7.9  T
   7    -83.7189961 -0.416073E-06  0.384E-04    0.10      40.2  T
   8    -83.7189961 -0.155366E-07  0.956E-05    0.10     161.5  T
   9    -83.7189961 -0.101531E-08  0.773E-06    0.10    1997.1  T
     SCC iter.                  ...        0 min,  0.032 sec
     gradient                   ...        0 min,  0.085 sec
 * total energy  :   -82.9496838 Eh     change       -0.1367707E-03 Eh
   gradient norm :     0.0117566 Eh/α   predicted    -0.1423281E-03 (   4.06%)
   displ. norm   :     0.2720533 α      lambda       -0.2262492E-03
   maximum displ.:     0.1470728 α      in ANC's #3, #1, #4, ...

........................................................................
.............................. CYCLE   19 ..............................
........................................................................
   1    -83.7179169 -0.837179E+02  0.859E-03    0.10       0.0  T
   2    -83.7179207 -0.386600E-05  0.581E-03    0.10       2.7  T
   3    -83.7177843  0.136414E-03  0.348E-02    0.09       1.0  T
   4    -83.7179116 -0.127287E-03  0.103E-02    0.10       1.5  T
   5    -83.7179221 -0.104643E-04  0.230E-03    0.10       6.7  T
   6    -83.7179225 -0.459539E-06  0.482E-04    0.10      32.0  T
   7    -83.7179225 -0.215691E-07  0.350E-05    0.10     441.3  T
   8    -83.7179225  0.339057E-09  0.584E-05    0.10     264.3  T
     SCC iter.                  ...        0 min,  0.029 sec
     gradient                   ...        0 min,  0.085 sec
 * total energy  :   -82.9498506 Eh     change       -0.1668614E-03 Eh
   gradient norm :     0.0075088 Eh/α   predicted    -0.1215016E-03 ( -27.18%)
   displ. norm   :     0.2798873 α      lambda       -0.3291645E-03
   maximum displ.:     0.1941491 α      in ANC's #1, #3, #13, ...

........................................................................
.............................. CYCLE   20 ..............................
........................................................................
   1    -83.7216488 -0.837216E+02  0.676E-02    0.11       0.0  T
   2    -83.5782393  0.143409E+00  0.113E+00    0.12       1.0  T
   3    -83.7221621 -0.143923E+00  0.149E-02    0.10       1.0  T
   4    -83.7221787 -0.166078E-04  0.688E-03    0.10       2.2  T
   5    -83.7221785  0.173823E-06  0.635E-03    0.10       2.4  T
   6    -83.7221825 -0.397895E-05  0.964E-04    0.10      16.0  T
   7    -83.7221826 -0.933676E-07  0.181E-04    0.10      85.1  T
   8    -83.7221826 -0.344539E-08  0.186E-05    0.10     828.6  T
     SCC iter.                  ...        0 min,  0.028 sec
     gradient                   ...        0 min,  0.085 sec
 * total energy  :   -82.9500354 Eh     change       -0.1847758E-03 Eh
   gradient norm :     0.0079917 Eh/α   predicted    -0.1774758E-03 (  -3.95%)
   displ. norm   :     0.4396079 α      lambda       -0.3153961E-03
   maximum displ.:     0.2439431 α      in ANC's #1, #3, #19, ...
 * RMSD in coord.:     0.9094761 α      energy gain  -0.2049187E-01 Eh

generating ANC from model Hessian ...
Using Lindh-Hessian (1995)
 Shifting diagonal of input Hessian by   9.789225470915069E-003
 Lowest  eigenvalues of input Hessian
    0.000000    0.000000    0.000000    0.000000    0.000000    0.000000
    0.010000    0.010125    0.010446    0.010814    0.011830    0.011964
    0.012676    0.013236    0.014241    0.016024    0.017499    0.017989
 Highest eigenvalues
    2.026722    2.098907    2.234488    2.371309    2.381027    2.385490
 

........................................................................
.............................. CYCLE   21 ..............................
........................................................................
   1    -83.7168752 -0.837169E+02  0.255E-02    0.10       0.0  T
   2    -83.7103700  0.650518E-02  0.240E-01    0.08       1.0  T
   3    -83.7164605 -0.609052E-02  0.651E-02    0.11       1.0  T
   4    -83.7168385 -0.377993E-03  0.272E-02    0.10       1.0  T
   5    -83.7169166 -0.780438E-04  0.290E-03    0.10       5.3  T
   6    -83.7169170 -0.485858E-06  0.101E-03    0.10      15.3  T
   7    -83.7169171 -0.102154E-06  0.318E-04    0.10      48.6  T
   8    -83.7169172 -0.868596E-08  0.134E-04    0.10     115.1  T
   9    -83.7169172 -0.195755E-08  0.654E-06    0.10    2360.5  T
     SCC iter.                  ...        0 min,  0.033 sec
     gradient                   ...        0 min,  0.085 sec
 * total energy  :   -82.9502093 Eh     change       -0.1739055E-03 Eh
   gradient norm :     0.0130953 Eh/α   predicted     0.0000000E+00 (-100.00%)
   displ. norm   :     0.0831711 α      lambda       -0.2769292E-03
   maximum displ.:     0.0459308 α      in ANC's #4, #1, #17, ...

........................................................................
.............................. CYCLE   22 ..............................
........................................................................
   1    -83.7199724 -0.837200E+02  0.131E-02    0.10       0.0  T
   2    -83.7184919  0.148051E-02  0.115E-01    0.09       1.0  T
   3    -83.7199657 -0.147380E-02  0.133E-02    0.10       1.2  T
   4    -83.7199841 -0.184568E-04  0.289E-03    0.10       5.3  T
   5    -83.7199845 -0.400630E-06  0.873E-04    0.10      17.7  T
   6    -83.7199845 -0.352279E-08  0.185E-04    0.10      83.3  T
   7    -83.7199845  0.530264E-09  0.172E-04    0.10      89.8  T
     SCC iter.                  ...        0 min,  0.025 sec
     gradient                   ...        0 min,  0.085 sec
 * total energy  :   -82.9504163 Eh     change       -0.2069774E-03 Eh
   gradient norm :     0.0051289 Eh/α   predicted    -0.1394246E-03 ( -32.64%)
   displ. norm   :     0.1694152 α      lambda       -0.2490378E-03
   maximum displ.:     0.1000020 α      in ANC's #4, #1, #6, ...

........................................................................
.............................. CYCLE   23 ..............................
........................................................................
   1    -83.7219776 -0.837220E+02  0.202E-02    0.10       0.0  T
   2    -83.7171623  0.481530E-02  0.209E-01    0.13       1.0  T
   3    -83.7220180 -0.485575E-02  0.402E-03    0.10       3.8  T
   4    -83.7220173  0.691785E-06  0.366E-03    0.10       4.2  T
   5    -83.7220184 -0.103261E-05  0.879E-04    0.10      17.6  T
   6    -83.7220184 -0.137635E-08  0.258E-04    0.10      59.7  T
   7    -83.7220184 -0.555140E-08  0.785E-05    0.10     196.6  T
   8    -83.7220184 -0.380112E-09  0.243E-05    0.10     635.0  T
     SCC iter.                  ...        0 min,  0.030 sec
     gradient                   ...        0 min,  0.085 sec
 * total energy  :   -82.9505940 Eh     change       -0.1777536E-03 Eh
   gradient norm :     0.0044464 Eh/α   predicted    -0.1280980E-03 ( -27.94%)
   displ. norm   :     0.2110602 α      lambda       -0.1861288E-03
   maximum displ.:     0.1226429 α      in ANC's #4, #1, #19, ...

........................................................................
.............................. CYCLE   24 ..............................
........................................................................
   1    -83.7218950 -0.837219E+02  0.367E-02    0.10       0.0  T
   2    -83.7087113  0.131837E-01  0.349E-01    0.17       1.0  T
   3    -83.7219982 -0.132870E-01  0.208E-02    0.11       1.0  T
   4    -83.7220401 -0.418936E-04  0.839E-03    0.10       1.8  T
   5    -83.7220433 -0.317192E-05  0.633E-03    0.10       2.4  T
   6    -83.7220476 -0.430639E-05  0.146E-03    0.10      10.5  T
   7    -83.7220479 -0.234712E-06  0.577E-05    0.10     267.3  T
   8    -83.7220479  0.722054E-10  0.369E-05    0.10     418.2  T
     SCC iter.                  ...        0 min,  0.029 sec
     gradient                   ...        0 min,  0.085 sec
 * total energy  :   -82.9507443 Eh     change       -0.1502582E-03 Eh
   gradient norm :     0.0065260 Eh/α   predicted    -0.9721019E-04 ( -35.30%)
   displ. norm   :     0.3333555 α      lambda       -0.2527232E-03
   maximum displ.:     0.1875151 α      in ANC's #4, #1, #19, ...

........................................................................
.............................. CYCLE   25 ..............................
........................................................................
   1    -83.7198125 -0.837198E+02  0.654E-02    0.10       0.0  T
   2    -83.6969857  0.228269E-01  0.468E-01    0.23       1.0  T
   3    -83.7197338 -0.227482E-01  0.711E-02    0.11       1.0  T
   4    -83.7201362 -0.402427E-03  0.387E-02    0.10       1.0  T
   5    -83.7202803 -0.144077E-03  0.152E-02    0.11       1.0  T
   6    -83.7203049 -0.246243E-04  0.325E-03    0.11       4.7  T
   7    -83.7203061 -0.111466E-05  0.683E-04    0.10      22.6  T
   8    -83.7203061 -0.515209E-07  0.463E-05    0.10     333.3  T
   9    -83.7203061  0.263978E-08  0.155E-04    0.10      99.5  T
     SCC iter.                  ...        0 min,  0.033 sec
     gradient                   ...        0 min,  0.085 sec
 * total energy  :   -82.9509347 Eh     change       -0.1903624E-03 Eh
   gradient norm :     0.0084201 Eh/α   predicted    -0.1404046E-03 ( -26.24%)
   displ. norm   :     0.3175319 α      lambda       -0.2148430E-03
   maximum displ.:     0.1783728 α      in ANC's #4, #1, #5, ...

........................................................................
.............................. CYCLE   26 ..............................
........................................................................
   1    -83.7182444 -0.837182E+02  0.449E-02    0.10       0.0  T
   2    -83.7016480  0.165964E-01  0.394E-01    0.19       1.0  T
   3    -83.7183041 -0.166561E-01  0.397E-02    0.11       1.0  T
   4    -83.7184653 -0.161202E-03  0.109E-02    0.11       1.4  T
   5    -83.7184651  0.244646E-06  0.111E-02    0.11       1.4  T
   6    -83.7184787 -0.136615E-04  0.692E-04    0.11      22.3  T
   7    -83.7184786  0.748402E-07  0.105E-03    0.11      14.8  T
   8    -83.7184788 -0.118907E-06  0.188E-04    0.11      82.2  T
   9    -83.7184788 -0.371780E-08  0.560E-05    0.11     275.7  T
     SCC iter.                  ...        0 min,  0.033 sec
     gradient                   ...        0 min,  0.085 sec
 * total energy  :   -82.9510975 Eh     change       -0.1627863E-03 Eh
   gradient norm :     0.0098244 Eh/α   predicted    -0.1182546E-03 ( -27.36%)
   displ. norm   :     0.3050441 α      lambda       -0.2649161E-03
   maximum displ.:     0.1706973 α      in ANC's #1, #4, #5, ...

........................................................................
.............................. CYCLE   27 ..............................
........................................................................
   1    -83.7182554 -0.837183E+02  0.115E-02    0.11       0.0  T
   2    -83.7176444  0.611007E-03  0.742E-02    0.10       1.0  T
   3    -83.7181734 -0.528987E-03  0.293E-02    0.11       1.0  T
   4    -83.7182608 -0.874275E-04  0.696E-03    0.11       2.2  T
   5    -83.7182658 -0.496834E-05  0.109E-03    0.11      14.2  T
   6    -83.7182659 -0.548661E-07  0.214E-04    0.11      72.2  T
   7    -83.7182659  0.531202E-10  0.124E-04    0.11     124.4  T
   8    -83.7182659 -0.149745E-08  0.218E-05    0.11     706.4  T
     SCC iter.                  ...        0 min,  0.029 sec
     gradient                   ...        0 min,  0.085 sec
 * total energy  :   -82.9512980 Eh     change       -0.2004966E-03 Eh
   gradient norm :     0.0081665 Eh/α   predicted    -0.1447990E-03 ( -27.78%)
   displ. norm   :     0.3654010 α      lambda       -0.2482484E-03
   maximum displ.:     0.2108505 α      in ANC's #1, #4, #5, ...

........................................................................
.............................. CYCLE   28 ..............................
........................................................................
   1    -83.7186678 -0.837187E+02  0.376E-02    0.11       0.0  T
   2    -83.6777136  0.409542E-01  0.602E-01    0.09       1.0  T
   3    -83.7187617 -0.410481E-01  0.221E-02    0.11       1.0  T
   4    -83.7188089 -0.472203E-04  0.737E-03    0.11       2.1  T
   5    -83.7188149 -0.600395E-05  0.828E-04    0.11      18.6  T
   6    -83.7188148  0.840338E-07  0.903E-04    0.11      17.1  T
   7    -83.7188149 -0.900059E-07  0.681E-05    0.11     226.7  T
   8    -83.7188149 -0.138030E-09  0.529E-05    0.11     291.8  T
     SCC iter.                  ...        0 min,  0.029 sec
     gradient                   ...        0 min,  0.085 sec
 * total energy  :   -82.9514951 Eh     change       -0.1971674E-03 Eh
   gradient norm :     0.0073385 Eh/α   predicted    -0.1406995E-03 ( -28.64%)
   displ. norm   :     0.4216680 α      lambda       -0.2576709E-03
   maximum displ.:     0.2517476 α      in ANC's #1, #4, #5, ...

........................................................................
.............................. CYCLE   29 ..............................
........................................................................
   1    -83.7196393 -0.837196E+02  0.517E-02    0.12       0.0  T
   2    -83.6386947  0.809446E-01  0.846E-01    0.10       1.0  T
   3    -83.7198627 -0.811680E-01  0.234E-02    0.11       1.0  T
   4    -83.7199234 -0.607149E-04  0.310E-03    0.11       5.0  T
   5    -83.7199240 -0.605359E-06  0.208E-03    0.11       7.4  T
   6    -83.7199242 -0.248218E-06  0.123E-03    0.11      12.5  T
   7    -83.7199244 -0.166151E-06  0.576E-05    0.11     267.9  T
   8    -83.7199244 -0.107249E-09  0.366E-05    0.11     421.6  T
     SCC iter.                  ...        0 min,  0.029 sec
     gradient                   ...        0 min,  0.170 sec
 * total energy  :   -82.9516993 Eh     change       -0.2041942E-03 Eh
   gradient norm :     0.0069565 Eh/α   predicted    -0.1517456E-03 ( -25.69%)
   displ. norm   :     0.4326178 α      lambda       -0.2396930E-03
   maximum displ.:     0.2667949 α      in ANC's #1, #4, #5, ...

........................................................................
.............................. CYCLE   30 ..............................
........................................................................
   1    -83.7208246 -0.837208E+02  0.422E-02    0.12       0.0  T
   2    -83.6661009  0.547237E-01  0.696E-01    0.09       1.0  T
   3    -83.7209782 -0.548773E-01  0.179E-02    0.11       1.0  T
   4    -83.7210149 -0.367056E-04  0.254E-03    0.11       6.1  T
   5    -83.7210142  0.727687E-06  0.342E-03    0.11       4.5  T
   6    -83.7210153 -0.114670E-05  0.896E-04    0.11      17.2  T
   7    -83.7210154 -0.889155E-07  0.319E-05    0.11     483.0  T
   8    -83.7210154 -0.238032E-10  0.147E-05    0.11    1049.2  T
     SCC iter.                  ...        0 min,  0.029 sec
     gradient                   ...        0 min,  0.085 sec
 * total energy  :   -82.9518933 Eh     change       -0.1939912E-03 Eh
   gradient norm :     0.0064743 Eh/α   predicted    -0.1422798E-03 ( -26.66%)
   displ. norm   :     0.4335075 α      lambda       -0.2394660E-03
   maximum displ.:     0.2765783 α      in ANC's #1, #4, #5, ...

........................................................................
.............................. CYCLE   31 ..............................
........................................................................
   1    -83.7224420 -0.837224E+02  0.425E-02    0.12       0.0  T
   2    -83.6648925  0.575494E-01  0.713E-01    0.09       1.0  T
   3    -83.7226331 -0.577405E-01  0.898E-03    0.11       1.7  T
   4    -83.7226369 -0.380084E-05  0.768E-03    0.11       2.0  T
   5    -83.7226398 -0.294766E-05  0.536E-03    0.11       2.9  T
   6    -83.7226426 -0.276681E-05  0.150E-03    0.11      10.3  T
   7    -83.7226428 -0.247629E-06  0.870E-05    0.11     177.3  T
   8    -83.7226428 -0.619380E-09  0.152E-05    0.11    1017.8  T
     SCC iter.                  ...        0 min,  0.029 sec
     gradient                   ...        0 min,  0.085 sec
 * total energy  :   -82.9520930 Eh     change       -0.1996906E-03 Eh
   gradient norm :     0.0062862 Eh/α   predicted    -0.1422354E-03 ( -28.77%)
   displ. norm   :     0.5666892 α      lambda       -0.2762208E-03
   maximum displ.:     0.3592535 α      in ANC's #1, #4, #5, ...

........................................................................
.............................. CYCLE   32 ..............................
........................................................................
   1    -83.7196703 -0.837197E+02  0.282E-02    0.11       0.0  T
   2    -83.7104257  0.924454E-02  0.291E-01    0.16       1.0  T
   3    -83.7196715 -0.924575E-02  0.288E-02    0.12       1.0  T
   4    -83.7197570 -0.855230E-04  0.767E-03    0.11       2.0  T
   5    -83.7197501  0.685494E-05  0.108E-02    0.11       1.4  T
   6    -83.7197632 -0.130985E-04  0.926E-04    0.11      16.7  T
   7    -83.7197633 -0.935879E-07  0.914E-05    0.11     168.7  T
   8    -83.7197633 -0.650346E-09  0.202E-05    0.11     763.4  T
     SCC iter.                  ...        0 min,  0.029 sec
     gradient                   ...        0 min,  0.085 sec
 * total energy  :   -82.9522991 Eh     change       -0.2061100E-03 Eh
   gradient norm :     0.0069067 Eh/α   predicted    -0.1824638E-03 ( -11.47%)
   displ. norm   :     0.4829888 α      lambda       -0.3663817E-03
   maximum displ.:     0.3158323 α      in ANC's #1, #3, #5, ...

........................................................................
.............................. CYCLE   33 ..............................
........................................................................
   1    -83.7232106 -0.837232E+02  0.104E-01    0.13       0.0  T
   2    -83.5125263  0.210684E+00  0.137E+00    0.20       1.0  T
   3    -83.7243163 -0.211790E+00  0.415E-02    0.11       1.0  T
   4    -83.7244227 -0.106426E-03  0.254E-02    0.11       1.0  T
   5    -83.7244807 -0.579493E-04  0.955E-03    0.11       1.6  T
   6    -83.7244895 -0.883185E-05  0.143E-03    0.11      10.8  T
   7    -83.7244897 -0.178020E-06  0.367E-04    0.11      42.0  T
   8    -83.7244897 -0.138086E-07  0.672E-05    0.11     229.8  T
   9    -83.7244897 -0.217241E-09  0.368E-05    0.11     419.2  T
     SCC iter.                  ...        0 min,  0.033 sec
     gradient                   ...        0 min,  0.086 sec
 * total energy  :   -82.9525140 Eh     change       -0.2148816E-03 Eh
   gradient norm :     0.0102090 Eh/α   predicted    -0.2259265E-03 (   5.14%)
   displ. norm   :     0.5131204 α      lambda       -0.2393030E-03
   maximum displ.:     0.3428088 α      in ANC's #1, #5, #3, ...

........................................................................
.............................. CYCLE   34 ..............................
........................................................................
   1    -83.7207899 -0.837208E+02  0.414E-02    0.11       0.0  T
   2    -83.7056802  0.151097E-01  0.375E-01    0.19       1.0  T
   3    -83.7207934 -0.151133E-01  0.424E-02    0.12       1.0  T
   4    -83.7209420 -0.148601E-03  0.209E-02    0.11       1.0  T
   5    -83.7209623 -0.202674E-04  0.166E-02    0.11       1.0  T
   6    -83.7209923 -0.299903E-04  0.246E-03    0.11       6.3  T
   7    -83.7209929 -0.623312E-06  0.617E-04    0.11      25.0  T
   8    -83.7209929 -0.425421E-07  0.112E-04    0.11     138.3  T
   9    -83.7209929 -0.133589E-08  0.139E-05    0.11    1109.3  T
     SCC iter.                  ...        0 min,  0.032 sec
     gradient                   ...        0 min,  0.085 sec
 * total energy  :   -82.9527028 Eh     change       -0.1888527E-03 Eh
   gradient norm :     0.0085118 Eh/α   predicted    -0.1511618E-03 ( -19.96%)
   displ. norm   :     0.3385438 α      lambda       -0.2663188E-03
   maximum displ.:     0.2466010 α      in ANC's #1, #3, #5, ...

........................................................................
.............................. CYCLE   35 ..............................
........................................................................
   1    -83.7216283 -0.837216E+02  0.269E-02    0.11       0.0  T
   2    -83.7150467  0.658164E-02  0.245E-01    0.15       1.0  T
   3    -83.7216463 -0.659961E-02  0.203E-02    0.11       1.0  T
   4    -83.7216894 -0.430675E-04  0.240E-03    0.11       6.4  T
   5    -83.7216815  0.783855E-05  0.847E-03    0.11       1.8  T
   6    -83.7216894 -0.785734E-05  0.602E-04    0.11      25.6  T
   7    -83.7216894 -0.384565E-07  0.155E-04    0.11      99.5  T
   8    -83.7216894 -0.231145E-08  0.537E-05    0.11     287.1  T
     SCC iter.                  ...        0 min,  0.025 sec
     gradient                   ...        0 min,  0.046 sec
 * total energy  :   -82.9528724 Eh     change       -0.1695175E-03 Eh
   gradient norm :     0.0057700 Eh/α   predicted    -0.1484246E-03 ( -12.44%)
   displ. norm   :     0.4266851 α      lambda       -0.2202044E-03
   maximum displ.:     0.3020432 α      in ANC's #1, #3, #5, ...

........................................................................
.............................. CYCLE   36 ..............................
........................................................................
   1    -83.7205286 -0.837205E+02  0.354E-02    0.11       0.0  T
   2    -83.7081542  0.123744E-01  0.339E-01    0.18       1.0  T
   3    -83.7205800 -0.124258E-01  0.299E-02    0.12       1.0  T
   4    -83.7206727 -0.926508E-04  0.415E-03    0.11       3.7  T
   5    -83.7206624  0.102837E-04  0.108E-02    0.12       1.4  T
   6    -83.7206731 -0.106721E-04  0.377E-03    0.11       4.1  T
   7    -83.7206747 -0.164274E-05  0.134E-04    0.11     115.3  T
   8    -83.7206747 -0.176344E-08  0.399E-05    0.11     386.9  T
   9    -83.7206747  0.227715E-09  0.577E-05    0.11     267.3  T
     SCC iter.                  ...        0 min,  0.031 sec
     gradient                   ...        0 min,  0.082 sec
 * total energy  :   -82.9530266 Eh     change       -0.1542233E-03 Eh
   gradient norm :     0.0062248 Eh/α   predicted    -0.1301490E-03 ( -15.61%)
   displ. norm   :     0.3377551 α      lambda       -0.1874209E-03
   maximum displ.:     0.2520677 α      in ANC's #1, #3, #5, ...

........................................................................
.............................. CYCLE   37 ..............................
........................................................................
   1    -83.7225301 -0.837225E+02  0.931E-03    0.12       0.0  T
   2    -83.7224921  0.379506E-04  0.199E-02    0.11       1.0  T
   3    -83.7224257  0.663880E-04  0.311E-02    0.12       1.0  T
   4    -83.7225304 -0.104666E-03  0.639E-03    0.11       2.4  T
   5    -83.7225320 -0.162748E-05  0.442E-03    0.11       3.5  T
   6    -83.7225340 -0.197944E-05  0.846E-04    0.11      18.2  T
   7    -83.7225341 -0.764813E-07  0.118E-04    0.11     130.8  T
   8    -83.7225341 -0.129712E-08  0.449E-05    0.11     343.5  T
     SCC iter.                  ...        0 min,  0.030 sec
     gradient                   ...        0 min,  0.052 sec
 * total energy  :   -82.9531600 Eh     change       -0.1334199E-03 Eh
   gradient norm :     0.0056493 Eh/α   predicted    -0.1044027E-03 ( -21.75%)
   displ. norm   :     0.4037281 α      lambda       -0.1584243E-03
   maximum displ.:     0.3106617 α      in ANC's #1, #3, #2, ...

........................................................................
.............................. CYCLE   38 ..............................
........................................................................
   1    -83.7232751 -0.837233E+02  0.200E-02    0.11       0.0  T
   2    -83.7180270  0.524814E-02  0.219E-01    0.15       1.0  T
   3    -83.7233173 -0.529033E-02  0.462E-03    0.12       3.3  T
   4    -83.7233190 -0.169602E-05  0.168E-03    0.12       9.2  T
   5    -83.7233192 -0.177726E-06  0.426E-04    0.12      36.2  T
   6    -83.7233192  0.423929E-07  0.645E-04    0.12      23.9  T
   7    -83.7233192 -0.441430E-07  0.136E-04    0.12     113.7  T
   8    -83.7233192 -0.194628E-08  0.371E-05    0.12     416.0  T
     SCC iter.                  ...        0 min,  0.021 sec
     gradient                   ...        0 min,  0.070 sec
 * total energy  :   -82.9532831 Eh     change       -0.1230872E-03 Eh
   gradient norm :     0.0054630 Eh/α   predicted    -0.9213218E-04 ( -25.15%)
   displ. norm   :     0.3676974 α      lambda       -0.1595861E-03
   maximum displ.:     0.2912520 α      in ANC's #1, #3, #2, ...

........................................................................
.............................. CYCLE   39 ..............................
........................................................................
   1    -83.7237807 -0.837238E+02  0.724E-03    0.12       0.0  T
   2    -83.7230118  0.768842E-03  0.835E-02    0.11       1.0  T
   3    -83.7237845 -0.772651E-03  0.377E-03    0.12       4.1  T
   4    -83.7237820  0.246740E-05  0.599E-03    0.12       2.6  T
   5    -83.7237841 -0.205989E-05  0.376E-03    0.12       4.1  T
   6    -83.7237855 -0.145467E-05  0.584E-04    0.12      26.4  T
   7    -83.7237856 -0.352126E-07  0.240E-05    0.12     643.7  T
   8    -83.7237856  0.111555E-09  0.390E-05    0.12     395.5  T
     SCC iter.                  ...        0 min,  0.029 sec
     gradient                   ...        0 min,  0.084 sec
 * total energy  :   -82.9534171 Eh     change       -0.1339895E-03 Eh
   gradient norm :     0.0054861 Eh/α   predicted    -0.9058300E-04 ( -32.40%)
   displ. norm   :     0.4662181 α      lambda       -0.1997017E-03
   maximum displ.:     0.3694504 α      in ANC's #1, #3, #2, ...

........................................................................
.............................. CYCLE   40 ..............................
........................................................................
   1    -83.7237743 -0.837238E+02  0.161E-02    0.12       0.0  T
   2    -83.7183041  0.547026E-02  0.221E-01    0.10       1.0  T
   3    -83.7237918 -0.548773E-02  0.881E-03    0.12       1.8  T
   4    -83.7238003 -0.855312E-05  0.154E-03    0.12      10.0  T
   5    -83.7238005 -0.122853E-06  0.602E-04    0.12      25.6  T
   6    -83.7238005 -0.238478E-08  0.203E-04    0.12      76.2  T
   7    -83.7238005 -0.392936E-08  0.338E-05    0.12     456.5  T
   8    -83.7238005 -0.582219E-10  0.112E-05    0.12    1373.9  T
     SCC iter.                  ...        0 min,  0.029 sec
     gradient                   ...        0 min,  0.084 sec
 * total energy  :   -82.9535801 Eh     change       -0.1630254E-03 Eh
   gradient norm :     0.0053281 Eh/α   predicted    -0.1215572E-03 ( -25.44%)
   displ. norm   :     0.4738105 α      lambda       -0.2062700E-03
   maximum displ.:     0.3779526 α      in ANC's #1, #3, #2, ...

........................................................................
.............................. CYCLE   41 ..............................
........................................................................
   1    -83.7227645 -0.837228E+02  0.768E-02    0.13       0.0  T
   2    -83.5650068  0.157758E+00  0.118E+00    0.14       1.0  T
   3    -83.7234458 -0.158439E+00  0.113E-02    0.12       1.4  T
   4    -83.7234195  0.262690E-04  0.187E-02    0.12       1.0  T
   5    -83.7234428 -0.232338E-04  0.111E-02    0.12       1.4  T
   6    -83.7234555 -0.127098E-04  0.151E-03    0.12      10.2  T
   7    -83.7234557 -0.218325E-06  0.195E-04    0.12      79.1  T
   8    -83.7234557 -0.182098E-08  0.131E-04    0.12     118.2  T
     SCC iter.                  ...        0 min,  0.028 sec
     gradient                   ...        0 min,  0.084 sec
 * total energy  :   -82.9537201 Eh     change       -0.1399757E-03 Eh
   gradient norm :     0.0071727 Eh/α   predicted    -0.1262901E-03 (  -9.78%)
   displ. norm   :     0.4228281 α      lambda       -0.1751130E-03
   maximum displ.:     0.3397124 α      in ANC's #1, #3, #2, ...

........................................................................
.............................. CYCLE   42 ..............................
........................................................................
   1    -83.7233898 -0.837234E+02  0.942E-03    0.12       0.0  T
   2    -83.7231878  0.202007E-03  0.437E-02    0.12       1.0  T
   3    -83.7233829 -0.195152E-03  0.113E-02    0.12       1.4  T
   4    -83.7233919 -0.899978E-05  0.712E-03    0.12       2.2  T
   5    -83.7233957 -0.380697E-05  0.333E-03    0.12       4.6  T
   6    -83.7233968 -0.107670E-05  0.175E-04    0.12      88.1  T
   7    -83.7233968 -0.269327E-08  0.453E-05    0.12     340.9  T
   8    -83.7233968 -0.126818E-09  0.174E-05    0.12     887.7  T
     SCC iter.                  ...        0 min,  0.028 sec
     gradient                   ...        0 min,  0.084 sec
 * total energy  :   -82.9538419 Eh     change       -0.1218530E-03 Eh
   gradient norm :     0.0060887 Eh/α   predicted    -0.1032129E-03 ( -15.30%)
   displ. norm   :     0.3584114 α      lambda       -0.1208452E-03
   maximum displ.:     0.2927180 α      in ANC's #1, #3, #2, ...
 * RMSD in coord.:     1.1605098 α      energy gain  -0.3806519E-02 Eh

generating ANC from model Hessian ...
Using Lindh-Hessian (1995)
 Shifting diagonal of input Hessian by   9.778371399871697E-003
 Lowest  eigenvalues of input Hessian
    0.000000    0.000000    0.000000    0.000000    0.000000    0.000000
    0.010000    0.010082    0.010447    0.010758    0.011791    0.011974
    0.012826    0.013159    0.014295    0.016187    0.016866    0.017980
 Highest eigenvalues
    2.031611    2.101300    2.235272    2.371971    2.378604    2.383594
 

........................................................................
.............................. CYCLE   43 ..............................
........................................................................
   1    -83.7231864 -0.837232E+02  0.240E-02    0.12       0.0  T
   2    -83.7067778  0.164086E-01  0.382E-01    0.10       1.0  T
   3    -83.7232522 -0.164745E-01  0.183E-03    0.12       8.4  T
   4    -83.7232510  0.125128E-05  0.365E-03    0.12       4.2  T
   5    -83.7232519 -0.953210E-06  0.187E-03    0.12       8.2  T
   6    -83.7232523 -0.362299E-06  0.109E-04    0.12     141.9  T
   7    -83.7232523 -0.348024E-09  0.682E-05    0.12     226.2  T
     SCC iter.                  ...        0 min,  0.025 sec
     gradient                   ...        0 min,  0.084 sec
 * total energy  :   -82.9539364 Eh     change       -0.9446045E-04 Eh
   gradient norm :     0.0049651 Eh/α   predicted     0.0000000E+00 (-100.00%)
   displ. norm   :     0.0436546 α      lambda       -0.5073985E-04
   maximum displ.:     0.0212753 α      in ANC's #1, #5, #7, ...

........................................................................
.............................. CYCLE   44 ..............................
........................................................................
   1    -83.7246804 -0.837247E+02  0.400E-03    0.12       0.0  T
   2    -83.7246226  0.578721E-04  0.228E-02    0.12       1.0  T
   3    -83.7246795 -0.568951E-04  0.473E-03    0.12       3.3  T
   4    -83.7246813 -0.178810E-05  0.181E-03    0.12       8.5  T
   5    -83.7246815 -0.265203E-06  0.333E-04    0.12      46.4  T
   6    -83.7246815 -0.137585E-08  0.703E-05    0.12     219.4  T
   7    -83.7246815 -0.578666E-10  0.536E-05    0.12     287.6  T
     SCC iter.                  ...        0 min,  0.025 sec
     gradient                   ...        0 min,  0.084 sec
 * total energy  :   -82.9539818 Eh     change       -0.4541058E-04 Eh
   gradient norm :     0.0024204 Eh/α   predicted    -0.2960495E-04 ( -34.81%)
   displ. norm   :     0.0950843 α      lambda       -0.6641758E-04
   maximum displ.:     0.0508026 α      in ANC's #1, #5, #2, ...

........................................................................
.............................. CYCLE   45 ..............................
........................................................................
   1    -83.7260754 -0.837261E+02  0.534E-03    0.12       0.0  T
   2    -83.7260643  0.110722E-04  0.111E-02    0.12       1.4  T
   3    -83.7260012  0.631309E-04  0.259E-02    0.12       1.0  T
   4    -83.7260767 -0.755121E-04  0.219E-03    0.12       7.1  T
   5    -83.7260771 -0.397363E-06  0.455E-04    0.12      33.9  T
   6    -83.7260771 -0.107778E-08  0.946E-05    0.12     163.1  T
   7    -83.7260771  0.110290E-09  0.848E-05    0.12     181.9  T
     SCC iter.                  ...        0 min,  0.025 sec
     gradient                   ...        0 min,  0.085 sec
 * total energy  :   -82.9540242 Eh     change       -0.4244519E-04 Eh
   gradient norm :     0.0018550 Eh/α   predicted    -0.3350931E-04 ( -21.05%)
   displ. norm   :     0.1189496 α      lambda       -0.2772335E-04
   maximum displ.:     0.0708919 α      in ANC's #1, #2, #5, ...

........................................................................
.............................. CYCLE   46 ..............................
........................................................................
   1    -83.7259542 -0.837260E+02  0.950E-03    0.12       0.0  T
   2    -83.7246473  0.130684E-02  0.109E-01    0.13       1.0  T
   3    -83.7259629 -0.131554E-02  0.237E-03    0.12       6.5  T
   4    -83.7259634 -0.474124E-06  0.110E-03    0.12      14.0  T
   5    -83.7259634 -0.770156E-07  0.592E-04    0.12      26.1  T
   6    -83.7259635 -0.361495E-07  0.145E-04    0.12     106.7  T
   7    -83.7259635 -0.200203E-08  0.398E-05    0.12     388.1  T
     SCC iter.                  ...        0 min,  0.025 sec
     gradient                   ...        0 min,  0.085 sec
 * total energy  :   -82.9540534 Eh     change       -0.2916313E-04 Eh
   gradient norm :     0.0027385 Eh/α   predicted    -0.1395036E-04 ( -52.16%)
   displ. norm   :     0.0847172 α      lambda       -0.2866532E-04
   maximum displ.:     0.0536468 α      in ANC's #1, #2, #5, ...

........................................................................
.............................. CYCLE   47 ..............................
........................................................................
   1    -83.7253949 -0.837254E+02  0.509E-03    0.12       0.0  T
   2    -83.7249622  0.432772E-03  0.625E-02    0.13       1.0  T
   3    -83.7253977 -0.435517E-03  0.128E-03    0.12      12.1  T
   4    -83.7253978 -0.110302E-06  0.616E-04    0.12      25.0  T
   5    -83.7253978 -0.208641E-07  0.162E-04    0.12      95.3  T
   6    -83.7253978 -0.347086E-09  0.777E-05    0.12     198.7  T
     SCC iter.                  ...        0 min,  0.022 sec
     gradient                   ...        0 min,  0.085 sec
 * total energy  :   -82.9540780 Eh     change       -0.2456279E-04 Eh
   gradient norm :     0.0021562 Eh/α   predicted    -0.1443627E-04 ( -41.23%)
   displ. norm   :     0.1494872 α      lambda       -0.4419301E-04
   maximum displ.:     0.0957302 α      in ANC's #1, #2, #5, ...

........................................................................
.............................. CYCLE   48 ..............................
........................................................................
   1    -83.7244105 -0.837244E+02  0.426E-03    0.12       0.0  T
   2    -83.7242560  0.154576E-03  0.373E-02    0.12       1.0  T
   3    -83.7244121 -0.156185E-03  0.165E-03    0.12       9.3  T
   4    -83.7244121  0.288397E-08  0.112E-03    0.12      13.8  T
   5    -83.7244122 -0.420747E-07  0.525E-04    0.12      29.4  T
   6    -83.7244122 -0.204529E-07  0.103E-04    0.12     149.3  T
   7    -83.7244122 -0.948802E-09  0.242E-05    0.12     637.0  T
     SCC iter.                  ...        0 min,  0.025 sec
     gradient                   ...        0 min,  0.084 sec
 * total energy  :   -82.9541119 Eh     change       -0.3388391E-04 Eh
   gradient norm :     0.0016576 Eh/α   predicted    -0.2259045E-04 ( -33.33%)
   displ. norm   :     0.2090924 α      lambda       -0.3023637E-04
   maximum displ.:     0.1383764 α      in ANC's #1, #2, #5, ...

........................................................................
.............................. CYCLE   49 ..............................
........................................................................
   1    -83.7237163 -0.837237E+02  0.894E-03    0.12       0.0  T
   2    -83.7223034  0.141293E-02  0.113E-01    0.11       1.0  T
   3    -83.7237216 -0.141823E-02  0.486E-03    0.12       3.2  T
   4    -83.7237241 -0.253292E-05  0.116E-03    0.12      13.3  T
   5    -83.7237241 -0.497138E-09  0.958E-04    0.12      16.1  T
   6    -83.7237242 -0.878359E-07  0.688E-05    0.12     224.4  T
   7    -83.7237242 -0.102787E-09  0.207E-05    0.12     746.2  T
     SCC iter.                  ...        0 min,  0.025 sec
     gradient                   ...        0 min,  0.084 sec
 * total energy  :   -82.9541445 Eh     change       -0.3263633E-04 Eh
   gradient norm :     0.0023474 Eh/α   predicted    -0.1541210E-04 ( -52.78%)
   displ. norm   :     0.0878943 α      lambda       -0.2243449E-04
   maximum displ.:     0.0612835 α      in ANC's #1, #2, #5, ...

........................................................................
.............................. CYCLE   50 ..............................
........................................................................
   1    -83.7241313 -0.837241E+02  0.909E-03    0.12       0.0  T
   2    -83.7223073  0.182399E-02  0.128E-01    0.11       1.0  T
   3    -83.7241402 -0.183287E-02  0.135E-03    0.12      11.5  T
   4    -83.7241404 -0.179670E-06  0.395E-04    0.12      39.0  T
   5    -83.7241404 -0.573110E-09  0.320E-04    0.12      48.2  T
   6    -83.7241404 -0.977994E-08  0.435E-05    0.12     354.5  T
   7    -83.7241404 -0.876810E-10  0.238E-05    0.12     647.0  T
     SCC iter.                  ...        0 min,  0.025 sec
     gradient                   ...        0 min,  0.084 sec
 * total energy  :   -82.9541651 Eh     change       -0.2062709E-04 Eh
   gradient norm :     0.0020074 Eh/α   predicted    -0.1130484E-04 ( -45.19%)
   displ. norm   :     0.1603452 α      lambda       -0.4613153E-04
   maximum displ.:     0.1103883 α      in ANC's #1, #2, #8, ...

........................................................................
.............................. CYCLE   51 ..............................
........................................................................
   1    -83.7249455 -0.837249E+02  0.195E-02    0.12       0.0  T
   2    -83.7151304  0.981511E-02  0.296E-01    0.10       1.0  T
   3    -83.7249872 -0.985683E-02  0.283E-03    0.12       5.5  T
   4    -83.7249880 -0.777712E-06  0.567E-04    0.12      27.2  T
   5    -83.7249879  0.502224E-07  0.753E-04    0.12      20.5  T
   6    -83.7249880 -0.495607E-07  0.196E-04    0.12      78.8  T
   7    -83.7249880 -0.389073E-08  0.294E-05    0.12     525.0  T
     SCC iter.                  ...        0 min,  0.025 sec
     gradient                   ...        0 min,  0.084 sec
 * total energy  :   -82.9542044 Eh     change       -0.3923036E-04 Eh
   gradient norm :     0.0013673 Eh/α   predicted    -0.2366464E-04 ( -39.68%)
   displ. norm   :     0.3498423 α      lambda       -0.5210000E-04
   maximum displ.:     0.2398883 α      in ANC's #1, #2, #8, ...

........................................................................
.............................. CYCLE   52 ..............................
........................................................................
   1    -83.7253305 -0.837253E+02  0.293E-02    0.12       0.0  T
   2    -83.7014564  0.238741E-01  0.461E-01    0.10       1.0  T
   3    -83.7254231 -0.239667E-01  0.536E-03    0.12       2.9  T
   4    -83.7254258 -0.273469E-05  0.131E-03    0.12      11.8  T
   5    -83.7254259 -0.184125E-07  0.108E-03    0.12      14.3  T
   6    -83.7254259 -0.822426E-07  0.471E-04    0.12      32.7  T
   7    -83.7254260 -0.234672E-07  0.625E-05    0.12     246.8  T
   8    -83.7254260 -0.312099E-09  0.200E-05    0.12     770.3  T
     SCC iter.                  ...        0 min,  0.028 sec
     gradient                   ...        0 min,  0.084 sec
 * total energy  :   -82.9542589 Eh     change       -0.5455603E-04 Eh
   gradient norm :     0.0025831 Eh/α   predicted    -0.2746953E-04 ( -49.65%)
   displ. norm   :     0.1439803 α      lambda       -0.2787927E-04
   maximum displ.:     0.1016292 α      in ANC's #1, #2, #9, ...

........................................................................
.............................. CYCLE   53 ..............................
........................................................................
   1    -83.7256651 -0.837257E+02  0.169E-03    0.12       0.0  T
   2    -83.7256417  0.233971E-04  0.146E-02    0.12       1.1  T
   3    -83.7256652 -0.235680E-04  0.799E-04    0.12      19.3  T
   4    -83.7256653 -0.432264E-07  0.290E-04    0.12      53.3  T
   5    -83.7256653  0.193614E-08  0.194E-04    0.12      79.6  T
   6    -83.7256653 -0.347873E-08  0.218E-05    0.12     709.2  T
     SCC iter.                  ...        0 min,  0.021 sec
     gradient                   ...        0 min,  0.097 sec
 * total energy  :   -82.9542846 Eh     change       -0.2564698E-04 Eh
   gradient norm :     0.0024292 Eh/α   predicted    -0.1422974E-04 ( -44.52%)
   displ. norm   :     0.1974667 α      lambda       -0.4493335E-04
   maximum displ.:     0.1392777 α      in ANC's #1, #2, #9, ...

........................................................................
.............................. CYCLE   54 ..............................
........................................................................
   1    -83.7257620 -0.837258E+02  0.144E-02    0.12       0.0  T
   2    -83.7227702  0.299184E-02  0.165E-01    0.14       1.0  T
   3    -83.7257839 -0.301376E-02  0.388E-03    0.12       4.0  T
   4    -83.7257855 -0.157895E-05  0.937E-04    0.12      16.5  T
   5    -83.7257856 -0.794196E-07  0.350E-04    0.12      44.1  T
   6    -83.7257856 -0.101499E-07  0.121E-04    0.12     127.6  T
   7    -83.7257856 -0.138537E-08  0.338E-05    0.12     456.0  T
     SCC iter.                  ...        0 min,  0.024 sec
     gradient                   ...        0 min,  0.085 sec
 * total energy  :   -82.9543250 Eh     change       -0.4049080E-04 Eh
   gradient norm :     0.0017735 Eh/α   predicted    -0.2334340E-04 ( -42.35%)
   displ. norm   :     0.4489293 α      lambda       -0.6071122E-04
   maximum displ.:     0.3157699 α      in ANC's #1, #2, #9, ...

........................................................................
.............................. CYCLE   55 ..............................
........................................................................
   1    -83.7245244 -0.837245E+02  0.402E-02    0.12       0.0  T
   2    -83.7112670  0.132573E-01  0.353E-01    0.19       1.0  T
   3    -83.7246417 -0.133747E-01  0.242E-02    0.13       1.0  T
   4    -83.7246896 -0.478242E-04  0.126E-02    0.12       1.2  T
   5    -83.7247057 -0.161146E-04  0.413E-03    0.12       3.7  T
   6    -83.7247075 -0.184548E-05  0.447E-04    0.12      34.5  T
   7    -83.7247075 -0.616737E-08  0.327E-04    0.12      47.2  T
   8    -83.7247075 -0.117174E-07  0.791E-05    0.12     195.2  T
   9    -83.7247075 -0.642274E-09  0.144E-05    0.12    1069.3  T
     SCC iter.                  ...        0 min,  0.031 sec
     gradient                   ...        0 min,  0.081 sec
 * total energy  :   -82.9543954 Eh     change       -0.7035173E-04 Eh
   gradient norm :     0.0015652 Eh/α   predicted    -0.3307604E-04 ( -52.98%)
   displ. norm   :     0.3688088 α      lambda       -0.3910690E-04
   maximum displ.:     0.2648423 α      in ANC's #1, #2, #9, ...

[...]
N21-C7-C8=116.95               C9-C8-C7=110.07                C10-C8-C7=110.75               C10-C8-C9=111.36               
N11-C8-C7=107.90               N11-C8-C9=106.94               N11-C8-C10=109.69              H29-C9-C8=110.39               
H30-C9-C8=109.79               H30-C9-H29=108.93              H31-C9-C8=109.62               H31-C9-H29=109.12              
H31-C9-H30=108.96              H32-C10-C8=109.83              H33-C10-C8=110.08              H33-C10-H32=109.36             
H34-C10-C8=109.25              H34-C10-H32=109.39             H34-C10-H33=108.91             
 
 selected dihedral angles (degree)
 ---------------------------------
C3-O2-C1-H26=181.62           C3-O2-C1-H27= 62.02           C3-O2-C1-H28=301.27           O4-C3-O2-C1=  0.38            
C5-C3-O2-C1=180.57            N6-C5-C3-O2=  0.00            N6-C5-C3-O4=180.21            C24-C5-C3-O2=180.14           
C24-C5-C3-O4=  0.34           C7-N6-C5-C3=179.18            C7-N6-C5-C24=359.05           C8-C7-N6-C5=181.31            
N21-C7-N6-C5=358.47           C9-C8-C7-N6=107.87            C9-C8-C7-N21=290.57           C10-C8-C7-N6=344.29           
C10-C8-C7-N21=166.99          N11-C8-C7-N6=224.23           N11-C8-C7-N21= 46.92          H29-C9-C8-C7= 59.04           
H29-C9-C8-C10=182.26          H29-C9-C8-N11=302.08          H30-C9-C8-C7=179.15           H30-C9-C8-C10=302.37          
H30-C9-C8-N11= 62.19          H31-C9-C8-C7=298.81           H31-C9-C8-C10= 62.03          H31-C9-C8-N11=181.85          
H32-C10-C8-C7=182.58          H32-C10-C8-C9= 59.75          H32-C10-C8-N11=301.57         H33-C10-C8-C7=303.05          
H33-C10-C8-C9=180.21          H33-C10-C8-N11= 62.03         H34-C10-C8-C7= 62.59          H34-C10-C8-C9=299.76          
H34-C10-C8-N11=181.58         
           -------------------------------------------------
          |                Final Singlepoint                |
           -------------------------------------------------

          ...................................................
          :                      SETUP                      :
          :.................................................:
          :  # basis functions                 134          :
          :  # atomic orbitals                 134          :
          :  # shells                           84          :
          :  # electrons                       134          :
          :  # halogen bonds                     0          :
          :  max. iterations                   250          :
          :  Hamiltonian                  GFN1-xTB          :
          :  restarted?                      false          :
          :  GBSA solvation                   true          :
          :  PC potential                    false          :
          :  electronic temp.          300.0000000     K    :
          :  accuracy                    1.0000000          :
          :  -> integral cutoff          0.2500000E+02      :
          :  -> integral neglect         0.1000000E-07      :
          :  -> SCF convergence          0.1000000E-05 Eh   :
          :  -> wf. convergence          0.2000000E-04 e    :
          :  Broyden damping             0.4000000          :
          ...................................................

 iter      E             dE          RMSdq      gap      omega  full diag
   1    -83.7261825 -0.837262E+02  0.548E-06    0.13       0.0  T
   2    -83.7261825  0.364793E-09  0.576E-05    0.13     267.7  T
   3    -83.7261825 -0.367123E-09  0.148E-06    0.13   10440.6  T

   *** convergence criteria satisfied after 3 iterations ***

         #    Occupation            Energy/Eh            Energy/eV
      -------------------------------------------------------------
         1        2.0000           -0.8893219             -24.1997
       ...           ...                  ...                  ...
        61        2.0000           -0.4789729             -13.0335
        62        2.0000           -0.4771322             -12.9834
        63        2.0000           -0.4717177             -12.8361
        64        2.0000           -0.4682260             -12.7411
        65        2.0000           -0.4526906             -12.3183
        66        2.0000           -0.4141995             -11.2709
        67        1.8594           -0.4002581             -10.8916 (HOMO)
        68        0.1406           -0.3953520             -10.7581 (LUMO)
        69                         -0.3024831              -8.2310
        70                         -0.2901639              -7.8958
        71                         -0.2785724              -7.5803
        72                         -0.2754753              -7.4961
       ...                                ...                  ...
       134                          0.7526828              20.4815
      -------------------------------------------------------------
                  HL-Gap            0.0049061 Eh            0.1335 eV
             Fermi-level           -0.3978050 Eh          -10.8248 eV

 SCC (total)                   0 d,  0 h,  0 min,  0.131 sec
 SCC setup                      ...        0 min,  0.002 sec (  1.441%)
 Dispersion                     ...        0 min,  0.000 sec (  0.262%)
 classical contributions        ...        0 min,  0.000 sec (  0.086%)
 integral evaluation            ...        0 min,  0.035 sec ( 26.776%)
 iterations                     ...        0 min,  0.011 sec (  8.714%)
 molecular gradient             ...        0 min,  0.081 sec ( 62.006%)
 printout                       ...        0 min,  0.001 sec (  0.682%)

         :::::::::::::::::::::::::::::::::::::::::::::::::::::
         ::                     SUMMARY                     ::
         :::::::::::::::::::::::::::::::::::::::::::::::::::::
         :: total energy             -82.954714473367 Eh    ::
         :: total w/o Gsasa/hb       -82.934444640071 Eh    ::
         :: gradient norm              0.000711580384 Eh/a0 ::
         :: HOMO-LUMO gap              0.133500558593 eV    ::
         ::.................................................::
         :: SCC energy               -83.726182531570 Eh    ::
         :: -> electrostatic           0.410272968984 Eh    ::
         :: -> Gsolv                  -0.094568181998 Eh    ::
         ::    -> Gelec               -0.074298348702 Eh    ::
         ::    -> Gsasa               -0.023864092904 Eh    ::
         ::    -> Ghb                 -0.004030019396 Eh    ::
         ::    -> Gshift               0.007624279005 Eh    ::
         :: repulsion energy           0.798599647077 Eh    ::
         :: dispersion energy         -0.027131588874 Eh    ::
         :: halogen bond corr.         0.000000000000 Eh    ::
         :: add. restraining           0.000000000000 Eh    ::
         :: total charge               0.000000000000 e     ::
         :::::::::::::::::::::::::::::::::::::::::::::::::::::

           -------------------------------------------------
          |                Property Printout                |
           -------------------------------------------------

    * Orbital Energies and Occupations

         #    Occupation            Energy/Eh            Energy/eV
      -------------------------------------------------------------
         1        2.0000           -0.8893219             -24.1997
       ...           ...                  ...                  ...
        55        2.0000           -0.5157574             -14.0345
        56        2.0000           -0.5086690             -13.8416
        57        2.0000           -0.5054774             -13.7547
        58        2.0000           -0.4948407             -13.4653
        59        2.0000           -0.4886193             -13.2960
        60        2.0000           -0.4872850             -13.2597
        61        2.0000           -0.4789729             -13.0335
        62        2.0000           -0.4771322             -12.9834
        63        2.0000           -0.4717177             -12.8361
        64        2.0000           -0.4682260             -12.7411
        65        2.0000           -0.4526906             -12.3183
        66        2.0000           -0.4141995             -11.2709
        67        1.8594           -0.4002581             -10.8916 (HOMO)
        68        0.1406           -0.3953520             -10.7581 (LUMO)
        69                         -0.3024831              -8.2310
        70                         -0.2901639              -7.8958
        71                         -0.2785724              -7.5803
        72                         -0.2754753              -7.4961
        73                         -0.2278501              -6.2001
        74                         -0.1572927              -4.2802
        75                         -0.1478930              -4.0244
        76                         -0.1429108              -3.8888
        77                         -0.1400044              -3.8097
        78                         -0.1331816              -3.6241
       ...                                ...                  ...
       134                          0.7526828              20.4815
      -------------------------------------------------------------
                  HL-Gap            0.0049061 Eh            0.1335 eV
             Fermi-level           -0.3978050 Eh          -10.8248 eV

  Mulliken/CM5 charges         n(s)   n(p)   n(d)
     1C     0.16649  0.04638   0.977  2.857  0.000
     2O    -0.42650 -0.50774   1.689  4.737  0.000
     3C     0.56430  0.63029   0.971  2.465  0.000
     4O    -0.57216 -0.61747   1.727  4.845  0.000
     5C     0.05166  0.13206   1.058  2.891  0.000
     6N    -0.34948 -0.53512   1.526  3.823  0.000
     7C     0.28086  0.43290   1.010  2.709  0.000
     8C     0.14817  0.18669   1.070  2.782  0.000
     9C    -0.11321 -0.25396   1.025  3.088  0.000
    10C    -0.10126 -0.23972   1.017  3.084  0.000
    11N    -0.33284 -0.69313   1.437  3.896  0.000
    12C     0.48657  0.60088   0.990  2.523  0.000
    13O    -0.53453 -0.57802   1.724  4.811  0.000
    14C     0.32141  0.40819   1.047  2.632  0.000
    15C    -0.09113 -0.22782   1.025  3.067  0.000
    16N    -0.16305 -0.25596   1.587  3.576  0.000
    17N    -0.19592 -0.29647   1.547  3.648  0.000
    18C     0.43395  0.53703   1.031  2.536  0.000
    19C    -0.11214 -0.24942   1.017  3.095  0.000
    20O    -0.36344 -0.42704   1.694  4.669  0.000
    21N    -0.29456 -0.64019   1.434  3.860  0.000
    22C     0.44322  0.54632   1.009  2.547  0.000
    23O    -0.56161 -0.59982   1.730  4.832  0.000
    24C     0.31173  0.35821   1.037  2.651  0.000
    25O    -0.55950 -0.59854   1.738  4.822  0.000
    26H     0.04654  0.10692   0.953  0.000  0.000
    27H     0.04593  0.10746   0.954  0.000  0.000
    28H     0.04613  0.10797   0.954  0.000  0.000
    29H     0.05664  0.11483   0.943  0.000  0.000
    30H     0.06529  0.12094   0.935  0.000  0.000
    31H     0.06227  0.11682   0.938  0.000  0.000
    32H     0.05142  0.10730   0.949  0.000  0.000
    33H     0.05734  0.11877   0.943  0.000  0.000
    34H     0.05371  0.11104   0.946  0.000  0.000
    35H     0.28006  0.48735   0.720  0.000  0.000
    36H     0.07488  0.13133   0.925  0.000  0.000
    37H     0.07831  0.13657   0.922  0.000  0.000
    38H     0.07786  0.13550   0.922  0.000  0.000
    39H     0.11037  0.16454   0.890  0.000  0.000
    40H     0.09708  0.15274   0.903  0.000  0.000
    41H     0.09201  0.14750   0.908  0.000  0.000
    42H     0.26710  0.47390   0.733  0.000  0.000

Wiberg/Mayer (AO) data.
largest (>0.10) Wiberg bond orders for each atom

 ---------------------------------------------------------------------------
     #   Z sym  total        # sym  WBO       # sym  WBO       # sym  WBO
 ---------------------------------------------------------------------------
     1   6 C    3.881 --    26 H    0.986    27 H    0.980    28 H    0.980
                             2 O    0.908
     2   8 O    2.168 --     3 C    1.077     1 C    0.908     4 O    0.126
     3   6 C    3.840 --     4 O    1.637     2 O    1.077     5 C    1.043
     4   8 O    1.882 --     3 C    1.637     2 O    0.126
     5   6 C    3.758 --     6 N    1.268    24 C    1.183     3 C    1.043
     6   7 N    2.992 --     7 C    1.510     5 C    1.268
     7   6 C    3.865 --     6 N    1.510    21 N    1.155     8 C    0.987
     8   6 C    3.922 --    10 C    0.992     7 C    0.987     9 C    0.980
                            11 N    0.895
     9   6 C    3.978 --    29 H    0.983    31 H    0.982    30 H    0.981
                             8 C    0.980
    10   6 C    3.988 --     8 C    0.992    32 H    0.985    34 H    0.982
                            33 H    0.982
    11   7 N    3.358 --    12 C    1.319     8 C    0.895    35 H    0.884
                            13 O    0.173
    12   6 C    3.886 --    13 O    1.633    11 N    1.319    14 C    0.812
    13   8 O    1.979 --    12 C    1.633    11 N    0.173
    14   6 C    3.851 --    16 N    1.062    15 C    0.935    20 O    0.906
                            12 C    0.812
    15   6 C    3.938 --    36 H    0.981    38 H    0.979    37 H    0.979
                            14 C    0.935
    16   7 N    2.757 --    17 N    1.468    14 C    1.062
    17   7 N    2.970 --    16 N    1.468    18 C    1.352
    18   6 C    3.695 --    17 N    1.352    20 O    1.162    19 C    1.054
    19   6 C    3.972 --    18 C    1.054    41 H    0.968    40 H    0.967
                            39 H    0.930
    20   8 O    2.244 --    18 C    1.162    14 C    0.906
    21   7 N    3.441 --     7 C    1.155    22 C    1.126    42 H    0.890
                            23 O    0.121
    22   6 C    3.857 --    23 O    1.631    21 N    1.126    24 C    0.952
    23   8 O    1.885 --    22 C    1.631    21 N    0.121
    24   6 C    3.883 --    25 O    1.597     5 C    1.183    22 C    0.952
    25   8 O    1.794 --    24 C    1.597
    26   1 H    1.013 --     1 C    0.986
    27   1 H    1.008 --     1 C    0.980
    28   1 H    1.009 --     1 C    0.980
    29   1 H    0.998 --     9 C    0.983
    30   1 H    0.995 --     9 C    0.981
    31   1 H    0.998 --     9 C    0.982
    32   1 H    1.000 --    10 C    0.985
    33   1 H    1.007 --    10 C    0.982
    34   1 H    1.007 --    10 C    0.982
    35   1 H    0.928 --    11 N    0.884
    36   1 H    0.995 --    15 C    0.981
    37   1 H    0.999 --    15 C    0.979
    38   1 H    0.994 --    15 C    0.979
    39   1 H    0.975 --    19 C    0.930
    40   1 H    0.988 --    19 C    0.967
    41   1 H    0.990 --    19 C    0.968
    42   1 H    0.939 --    21 N    0.890
 ---------------------------------------------------------------------------

Topologies differ in total number of bonds
Writing topology from bond orders to xtbtopo.mol

 dipole moment from electron density (au)
     X       Y       Z   
   8.7097  -5.5539   5.3462  total (Debye):   29.564

           -------------------------------------------------
          |                Geometry Summary                 |
           -------------------------------------------------

      molecular mass/u    :      351.3152409
   center of mass at/Å    :       -0.2833785       0.3406141      -0.4668838
  moments of inertia/u·Å² :        0.1222385E+04   0.3942369E+04   0.4340449E+04
rotational constants/cm⁻¹ :        0.1379077E-01   0.4276016E-02   0.3883846E-02

 * 38 selected distances

     #   Z          #   Z                                           value/Å
     1   6 C        2   8 O                                       1.4265137
     2   8 O        3   6 C                                       1.3477497
     3   6 C        4   8 O                                       1.2130282
     5   6 C        6   7 N                                       1.3565260
     6   7 N        7   6 C                                       1.2954932
     8   6 C        9   6 C                                       1.5313104 (max)
     8   6 C       10   6 C                                       1.5286067
     8   6 C       11   7 N                                       1.4780950
    11   7 N       12   6 C                                       1.3287718
    12   6 C       13   8 O                                       1.2084424
    14   6 C       15   6 C                                       1.5278699
    14   6 C       16   7 N                                       1.4219100
    16   7 N       17   7 N                                       1.2948182
    17   7 N       18   6 C                                       1.3319656
    18   6 C       19   6 C                                       1.4688809
    14   6 C       20   8 O                                       1.4112702
    18   6 C       20   8 O                                       1.3164509
     7   6 C       21   7 N                                       1.3650508
    21   7 N       22   6 C                                       1.3795963
    22   6 C       23   8 O                                       1.2185718
    24   6 C       25   8 O                                       1.2316178
     1   6 C       26   1 H                                       1.0882646
     1   6 C       27   1 H                                       1.0935385
     1   6 C       28   1 H                                       1.0936766
     9   6 C       29   1 H                                       1.0883417
     9   6 C       30   1 H                                       1.0877839
     9   6 C       31   1 H                                       1.0889604
    10   6 C       32   1 H                                       1.0872607
    10   6 C       33   1 H                                       1.0891577
    10   6 C       34   1 H                                       1.0889079
    11   7 N       35   1 H                                       1.0043387 (min)
    15   6 C       36   1 H                                       1.0870295
    15   6 C       37   1 H                                       1.0881384
    15   6 C       38   1 H                                       1.0872955
    19   6 C       39   1 H                                       1.0925030
    19   6 C       40   1 H                                       1.0872390
    19   6 C       41   1 H                                       1.0879517
    21   7 N       42   1 H                                       1.0068420

 * 6 distinct bonds (by element types)

   Z      Z             #   av. dist./Å        max./Å        min./Å
   1 H    6 C          15     1.0890700     1.0936766     1.0870295
   6 C    6 C           4     1.5141670     1.5313104     1.4688809
   1 H    7 N           2     1.0055904     1.0068420     1.0043387
   6 C    7 N           8     1.3696761     1.4780950     1.2954932
   7 N    7 N           1     1.2948182     1.2948182     1.2948182
   6 C    8 O           8     1.2967056     1.4265137     1.2084424


optimized geometry written to: xtbopt.xyz


           -------------------------------------------------
          | TOTAL ENERGY              -82.954714473367 Eh   |
          | GRADIENT NORM               0.000711580384 Eh/α |
          | HOMO-LUMO GAP               0.133500558593 eV   |
           -------------------------------------------------

------------------------------------------------------------------------
 * finished run on 2023/06/21 at 17:44:27.249     
------------------------------------------------------------------------
 total:
 * wall-time:     0 d,  0 h,  0 min, 10.769 sec
 *  cpu-time:     0 d,  0 h,  0 min, 10.576 sec
 * ratio c/w:     0.982 speedup
 SCF:
 * wall-time:     0 d,  0 h,  0 min,  0.209 sec
 *  cpu-time:     0 d,  0 h,  0 min,  0.191 sec
 * ratio c/w:     0.913 speedup
 ANC optimizer:
 * wall-time:     0 d,  0 h,  0 min, 10.495 sec
 *  cpu-time:     0 d,  0 h,  0 min, 10.338 sec
 * ratio c/w:     0.985 speedup

