      -----------------------------------------------------------      
     |                   =====================                   |     
     |                           x T B                           |     
     |                   =====================                   |     
     |                         S. Grimme                         |     
     |          Mulliken Center for Theoretical Chemistry        |     
     |                    University of Bonn                     |     
      -----------------------------------------------------------      

   * xtb version 6.5.1 (579679a) compiled by 'ehlert@majestix' on 2022-07-11

   xtb is free software: you can redistribute it and/or modify it under
   the terms of the GNU Lesser General Public License as published by
   the Free Software Foundation, either version 3 of the License, or
   (at your option) any later version.
   
   xtb is distributed in the hope that it will be useful,
   but WITHOUT ANY WARRANTY; without even the implied warranty of
   MERCHANTABILITY or FITNESS FOR A PARTICULAR PURPOSE.  See the
   GNU Lesser General Public License for more details.
   
   Cite this work as:
   * C. Bannwarth, E. Caldeweyher, S. Ehlert, A. Hansen, P. Pracht,
     J. Seibert, S. Spicher, S. Grimme, WIREs Comput. Mol. Sci., 2020, 11,
     e01493. DOI: 10.1002/wcms.1493
   
   for GFN2-xTB:
   * C. Bannwarth, S. Ehlert and S. Grimme., J. Chem. Theory Comput., 2019,
     15, 1652-1671. DOI: 10.1021/acs.jctc.8b01176
   for GFN1-xTB:
   * S. Grimme, C. Bannwarth, P. Shushkov, J. Chem. Theory Comput., 2017,
     13, 1989-2009. DOI: 10.1021/acs.jctc.7b00118
   for GFN0-xTB:
   * P. Pracht, E. Caldeweyher, S. Ehlert, S. Grimme, ChemRxiv, 2019, preprint.
     DOI: 10.26434/chemrxiv.8326202.v1
   for GFN-FF:
   * S. Spicher and S. Grimme, Angew. Chem. Int. Ed., 2020, 59, 15665-15673.
     DOI: 10.1002/anie.202004239
   
   for ALPB and GBSA implicit solvation:
   * S. Ehlert, M. Stahn, S. Spicher, S. Grimme, J. Chem. Theory Comput.,
     2021, 17, 4250-4261. DOI: 10.1021/acs.jctc.1c00471
   
   for DFT-D4:
   * E. Caldeweyher, C. Bannwarth and S. Grimme, J. Chem. Phys., 2017,
     147, 034112. DOI: 10.1063/1.4993215
   * E. Caldeweyher, S. Ehlert, A. Hansen, H. Neugebauer, S. Spicher,
     C. Bannwarth and S. Grimme, J. Chem. Phys., 2019, 150, 154122.
     DOI: 10.1063/1.5090222
   * E. Caldeweyher, J.-M. Mewes, S. Ehlert and S. Grimme, Phys. Chem. Chem. Phys.
     2020, 22, 8499-8512. DOI: 10.1039/D0CP00502A
   
   for sTDA-xTB:
   * S. Grimme and C. Bannwarth, J. Chem. Phys., 2016, 145, 054103.
     DOI: 10.1063/1.4959605
   
   in the mass-spec context:
   * V. Asgeirsson, C. Bauer and S. Grimme, Chem. Sci., 2017, 8, 4879.
     DOI: 10.1039/c7sc00601b
   * J. Koopman and S. Grimme, ACS Omega 2019, 4, 12, 15120-15133.
     DOI: 10.1021/acsomega.9b02011
   
   for metadynamics refer to:
   * S. Grimme, J. Chem. Theory Comput., 2019, 155, 2847-2862
     DOI: 10.1021/acs.jctc.9b00143
   
   for SPH calculations refer to:
   * S. Spicher and S. Grimme, J. Chem. Theory Comput., 2021, 17, 1701-1714
     DOI: 10.1021/acs.jctc.0c01306
   
   with help from (in alphabetical order)
   P. Atkinson, C. Bannwarth, F. Bohle, G. Brandenburg, E. Caldeweyher
   M. Checinski, S. Dohm, S. Ehlert, S. Ehrlich, I. Gerasimov, C. Hölzer
   A. Katbashev, J. Koopman, C. Lavigne, S. Lehtola, F. März, M. Müller,
   F. Musil, H. Neugebauer, J. Pisarek, C. Plett, P. Pracht, F. Pultar,
   J. Seibert, P. Shushkov, S. Spicher, M. Stahn, M. Steiner, T. Strunk,
   J. Stückrath, T. Rose, and J. Unsleber
   
 * started run on 2023/06/21 at 17:03:42.616     

           -------------------------------------------------
          |                Calculation Setup                |
           -------------------------------------------------

          program call               : /lustre/hpc/kemi/ree/PhD/git/ReactivityQM/dep/xtb-6.5.1/bin/xtb --gfn 1 /lustre/hpc/kemi/ree/PhD/git/ReactivityQM/calculations/R02methylcation/reac01prodE01/conf02/R02methylcation_reac01prodE01_conf02_gfn1.xyz --opt --vfukui --chrg -2 --uhf 0 --alpb DMSO
          hostname                   : node317
          coordinate file            : /lustre/hpc/kemi/ree/PhD/git/ReactivityQM/calculations/R02methylcation/reac01prodE01/conf02/R02methylcation_reac01prodE01_conf02_gfn1.xyz
          omp threads                :                     1

   ID    Z sym.   atoms
    1    6 C      1, 3, 5, 7-10, 12, 13, 15, 18, 19, 22, 24
    2    8 O      2, 4, 14, 20, 23, 25
    3    7 N      6, 11, 16, 17, 21
    4    1 H      26-42

           -------------------------------------------------
          |                 G F N 1 - x T B                 |
           -------------------------------------------------

        Reference                      10.1021/acs.jctc.7b00118
      * Hamiltonian:
        H0-scaling (s, p, d)           1.850000    2.250000    2.000000
        zeta-weighting                 0.000000
      * Dispersion:
        s8                             2.400000
        a1                             0.630000
        a2                             5.000000
        s9                             0.000000
      * Repulsion:
        kExp                           1.500000
        rExp                           1.000000
      * Coulomb:
        alpha                          2.000000
        third order                    atomic
        anisotropic                    false
      * Halogen bond correction:
        rad-scale                      1.300000
        damping                        0.440000

      * Solvation model:               ALPB
        Solvent                        DMSO
        Parameter file                 internal GFN1-xTB/ALPB
        Dielectric constant                4.6680E+01
        Reference state                gsolv [1 M gas/solution]
        Free energy shift                  7.6243E-03 Eh       4.7843E+00 kcal/mol
        Temperature                        2.9815E+02 K
        Density                            1.1000E+00 kg/L
        Solvent mass                       7.8130E+01 g/mol
        Interaction kernel             P16
        Born radius scaling (c1)           1.7672E+00
        Born radii integrator          GBOBC
        Born offset                        0.0000E+00 a0       0.0000E+00 AA
        H-bond correction              true
        Ion screening                  false
        Surface tension                    1.0000E-05 Eh       1.5569E+01 dyn/cm
        Grid points                               230 per atom

          ...................................................
          :                      SETUP                      :
          :.................................................:
          :  # basis functions                 134          :
          :  # atomic orbitals                 134          :
          :  # shells                           84          :
          :  # electrons                       136          :
          :  # halogen bonds                     0          :
          :  max. iterations                   250          :
          :  Hamiltonian                  GFN1-xTB          :
          :  restarted?                      false          :
          :  GBSA solvation                   true          :
          :  PC potential                    false          :
          :  electronic temp.          300.0000000     K    :
          :  accuracy                    1.0000000          :
          :  -> integral cutoff          0.2500000E+02      :
          :  -> integral neglect         0.1000000E-07      :
          :  -> SCF convergence          0.1000000E-05 Eh   :
          :  -> wf. convergence          0.2000000E-04 e    :
          :  Broyden damping             0.4000000          :
          ...................................................

 iter      E             dE          RMSdq      gap      omega  full diag
   1    -84.0132946 -0.840133E+02  0.865E+00    2.52       0.0  T
   2    -84.3280800 -0.314785E+00  0.516E+00    2.25       1.0  T
   3    -84.3162920  0.117881E-01  0.166E+00    1.52       1.0  T
   4    -84.3475237 -0.312317E-01  0.229E-01    1.58       1.0  T
   5    -84.3491206 -0.159693E-02  0.498E-02    1.76       1.0  T
   6    -84.3492049 -0.842471E-04  0.113E-02    1.78       1.4  T
   7    -84.3492081 -0.323932E-05  0.360E-03    1.78       4.3  T
   8    -84.3492083 -0.190104E-06  0.130E-03    1.78      11.8  T
   9    -84.3492083 -0.171132E-07  0.497E-04    1.78      31.1  T
  10    -84.3492083 -0.273108E-08  0.116E-04    1.78     133.1  T
  11    -84.3492083 -0.105729E-09  0.323E-05    1.78     477.4  T

   *** convergence criteria satisfied after 11 iterations ***

         #    Occupation            Energy/Eh            Energy/eV
      -------------------------------------------------------------
         1        2.0000           -0.8149214             -22.1751
       ...           ...                  ...                  ...
        62        2.0000           -0.4031555             -10.9704
        63        2.0000           -0.3962531             -10.7826
        64        2.0000           -0.3656369              -9.9495
        65        2.0000           -0.3527086              -9.5977
        66        2.0000           -0.3490850              -9.4991
        67        2.0000           -0.3342196              -9.0946
        68        2.0000           -0.3259962              -8.8708 (HOMO)
        69                         -0.2605937              -7.0911 (LUMO)
        70                         -0.2348161              -6.3897
        71                         -0.2226920              -6.0598
        72                         -0.2059258              -5.6035
        73                         -0.1866160              -5.0781
       ...                                ...                  ...
       134                          0.7849947              21.3608
      -------------------------------------------------------------
                  HL-Gap            0.0654025 Eh            1.7797 eV
             Fermi-level           -0.2932950 Eh           -7.9810 eV

 SCC (total)                   0 d,  0 h,  0 min,  0.153 sec
 SCC setup                      ...        0 min,  0.002 sec (  1.047%)
 Dispersion                     ...        0 min,  0.000 sec (  0.192%)
 classical contributions        ...        0 min,  0.000 sec (  0.070%)
 integral evaluation            ...        0 min,  0.025 sec ( 16.041%)
 iterations                     ...        0 min,  0.043 sec ( 28.207%)
 molecular gradient             ...        0 min,  0.082 sec ( 53.674%)
 printout                       ...        0 min,  0.001 sec (  0.730%)

         :::::::::::::::::::::::::::::::::::::::::::::::::::::
         ::                     SUMMARY                     ::
         :::::::::::::::::::::::::::::::::::::::::::::::::::::
         :: total energy             -83.628780681491 Eh    ::
         :: total w/o Gsasa/hb       -83.610196230428 Eh    ::
         :: gradient norm              0.121783313591 Eh/a0 ::
         :: HOMO-LUMO gap              1.779693012596 eV    ::
         ::.................................................::
         :: SCC energy               -84.349208327008 Eh    ::
         :: -> electrostatic           0.713154147878 Eh    ::
         :: -> Gsolv                  -0.272291113992 Eh    ::
         ::    -> Gelec               -0.253706662929 Eh    ::
         ::    -> Gsasa               -0.024064828713 Eh    ::
         ::    -> Ghb                 -0.002143901356 Eh    ::
         ::    -> Gshift               0.007624279005 Eh    ::
         :: repulsion energy           0.746417404656 Eh    ::
         :: dispersion energy         -0.025989759139 Eh    ::
         :: halogen bond corr.         0.000000000000 Eh    ::
         :: add. restraining           0.000000000000 Eh    ::
         :: total charge              -2.000000000000 e     ::
         :::::::::::::::::::::::::::::::::::::::::::::::::::::

      ----------------------------------------------------------- 
     |                   =====================                   |
     |                        A N C O P T                        |
     |                   =====================                   |
     |               Approximate Normal Coordinate               |
     |                Rational Function Optimizer                |
      ----------------------------------------------------------- 

          ...................................................
          :                      SETUP                      :
          :.................................................:
          :   optimization level            normal          :
          :   max. optcycles                   200          :
          :   ANC micro-cycles                  20          :
          :   degrees of freedom               120          :
          :.................................................:
          :   RF solver                   davidson          :
          :   write xtbopt.log                true          :
          :   linear?                        false          :
          :   energy convergence         0.5000000E-05 Eh   :
          :   grad. convergence          0.1000000E-02 Eh/α :
          :   maximium RF displ.         1.0000000          :
          :   Hlow (freq-cutoff)         0.1000000E-01      :
          :   Hmax (freq-cutoff)         5.0000000          :
          :   S6 in model hess.         20.0000000          :
          ...................................................

generating ANC from model Hessian ...
Using Lindh-Hessian (1995)
 Shifting diagonal of input Hessian by   9.778138621037909E-003
 Lowest  eigenvalues of input Hessian
    0.000000    0.000000    0.000000    0.000000    0.000000    0.000000
    0.010000    0.010134    0.010221    0.011223    0.011778    0.012027
    0.012658    0.014120    0.014256    0.014331    0.015061    0.015661
 Highest eigenvalues
    1.929370    2.044639    2.049906    2.199910    2.264401    2.391986
 

........................................................................
.............................. CYCLE    1 ..............................
........................................................................
   1    -84.3492083 -0.843492E+02  0.929E-06    1.78       0.0  T
   2    -84.3492083 -0.795808E-12  0.479E-06    1.78    3219.8  T
   3    -84.3492083  0.000000E+00  0.268E-06    1.78    5763.7  T
     SCC iter.                  ...        0 min,  0.013 sec
     gradient                   ...        0 min,  0.082 sec
 * total energy  :   -83.6287807 Eh     change       -0.1649880E-10 Eh
   gradient norm :     0.1217832 Eh/α   predicted     0.0000000E+00 (-100.00%)
   displ. norm   :     0.3186872 α      lambda       -0.1938361E-01
   maximum displ.:     0.1185535 α      in ANC's #19, #24, #27, ...

........................................................................
.............................. CYCLE    2 ..............................
........................................................................
   1    -84.3633253 -0.843633E+02  0.959E-02    1.84       0.0  T
   2    -84.3636417 -0.316360E-03  0.414E-02    1.93       1.0  T
   3    -84.3636817 -0.400381E-04  0.169E-02    1.94       1.0  T
   4    -84.3636826 -0.955378E-06  0.639E-03    1.95       2.4  T
   5    -84.3636828 -0.162518E-06  0.100E-03    1.96      15.4  T
   6    -84.3636828 -0.256777E-07  0.396E-04    1.95      39.0  T
   7    -84.3636828 -0.229771E-08  0.130E-04    1.95     118.6  T
   8    -84.3636828 -0.240462E-09  0.353E-05    1.95     437.1  T
     SCC iter.                  ...        0 min,  0.030 sec
     gradient                   ...        0 min,  0.081 sec
 * total energy  :   -83.6424225 Eh     change       -0.1364183E-01 Eh
   gradient norm :     0.0631567 Eh/α   predicted    -0.1068837E-01 ( -21.65%)
   displ. norm   :     0.3284852 α      lambda       -0.8284836E-02
   maximum displ.:     0.1349958 α      in ANC's #19, #37, #24, ...

........................................................................
.............................. CYCLE    3 ..............................
........................................................................
   1    -84.3759136 -0.843759E+02  0.823E-02    1.96       0.0  T
   2    -84.3762239 -0.310322E-03  0.346E-02    2.05       1.0  T
   3    -84.3762528 -0.289588E-04  0.140E-02    2.07       1.1  T
   4    -84.3762534 -0.546461E-06  0.680E-03    2.08       2.3  T
   5    -84.3762535 -0.991632E-07  0.894E-04    2.08      17.3  T
   6    -84.3762535 -0.163707E-07  0.225E-04    2.08      68.7  T
   7    -84.3762535 -0.883816E-09  0.645E-05    2.08     239.3  T
   8    -84.3762535 -0.826788E-10  0.264E-05    2.08     583.7  T
     SCC iter.                  ...        0 min,  0.030 sec
     gradient                   ...        0 min,  0.081 sec
 * total energy  :   -83.6474187 Eh     change       -0.4996155E-02 Eh
   gradient norm :     0.0203394 Eh/α   predicted    -0.4594744E-02 (  -8.03%)
   displ. norm   :     0.2021513 α      lambda       -0.1267539E-02
   maximum displ.:     0.0821824 α      in ANC's #19, #16, #25, ...

........................................................................
.............................. CYCLE    4 ..............................
........................................................................
   1    -84.3801439 -0.843801E+02  0.273E-02    2.08       0.0  T
   2    -84.3801807 -0.367638E-04  0.123E-02    2.11       1.3  T
   3    -84.3801835 -0.274132E-05  0.575E-03    2.12       2.7  T
   4    -84.3801835 -0.606249E-07  0.281E-03    2.12       5.5  T
   5    -84.3801835 -0.266258E-07  0.360E-04    2.12      42.8  T
   6    -84.3801835 -0.240901E-08  0.919E-05    2.12     167.9  T
   7    -84.3801835 -0.190624E-09  0.285E-05    2.12     540.9  T
     SCC iter.                  ...        0 min,  0.026 sec
     gradient                   ...        0 min,  0.082 sec
 * total energy  :   -83.6483041 Eh     change       -0.8854815E-03 Eh
   gradient norm :     0.0102139 Eh/α   predicted    -0.6597175E-03 ( -25.50%)
   displ. norm   :     0.2261788 α      lambda       -0.6926135E-03
   maximum displ.:     0.1002113 α      in ANC's #16, #10, #25, ...

........................................................................
.............................. CYCLE    5 ..............................
........................................................................
   1    -84.3824202 -0.843824E+02  0.180E-02    2.12       0.0  T
   2    -84.3824320 -0.118743E-04  0.859E-03    2.13       1.8  T
   3    -84.3824330 -0.983543E-06  0.428E-03    2.13       3.6  T
   4    -84.3824331 -0.339550E-07  0.170E-03    2.13       9.1  T
   5    -84.3824331 -0.182019E-07  0.219E-04    2.13      70.5  T
   6    -84.3824331 -0.812278E-09  0.758E-05    2.13     203.5  T
   7    -84.3824331 -0.117339E-09  0.233E-05    2.13     661.0  T
     SCC iter.                  ...        0 min,  0.026 sec
     gradient                   ...        0 min,  0.082 sec
 * total energy  :   -83.6487766 Eh     change       -0.4724316E-03 Eh
   gradient norm :     0.0081951 Eh/α   predicted    -0.3640295E-03 ( -22.95%)
   displ. norm   :     0.2092908 α      lambda       -0.3428152E-03
   maximum displ.:     0.1010907 α      in ANC's #10, #16, #11, ...

........................................................................
.............................. CYCLE    6 ..............................
........................................................................
   1    -84.3829652 -0.843830E+02  0.901E-03    2.13       0.0  T
   2    -84.3829670 -0.175985E-05  0.437E-03    2.13       3.5  T
   3    -84.3829672 -0.182031E-06  0.217E-03    2.13       7.1  T
   4    -84.3829672 -0.194961E-07  0.606E-04    2.13      25.5  T
   5    -84.3829672 -0.214841E-08  0.125E-04    2.13     123.0  T
   6    -84.3829672 -0.144468E-09  0.432E-05    2.13     357.4  T
     SCC iter.                  ...        0 min,  0.023 sec
     gradient                   ...        0 min,  0.082 sec
 * total energy  :   -83.6490201 Eh     change       -0.2435645E-03 Eh
   gradient norm :     0.0079559 Eh/α   predicted    -0.1789598E-03 ( -26.52%)
   displ. norm   :     0.2074649 α      lambda       -0.2370778E-03
   maximum displ.:     0.1061122 α      in ANC's #10, #16, #6, ...

........................................................................
.............................. CYCLE    7 ..............................
........................................................................
   1    -84.3829111 -0.843829E+02  0.866E-03    2.13       0.0  T
   2    -84.3829131 -0.205745E-05  0.376E-03    2.13       4.1  T
   3    -84.3829133 -0.199875E-06  0.188E-03    2.13       8.2  T
   4    -84.3829133 -0.138177E-07  0.540E-04    2.13      28.6  T
   5    -84.3829133 -0.164987E-08  0.132E-04    2.13     116.7  T
   6    -84.3829133 -0.249983E-09  0.402E-05    2.13     383.7  T
     SCC iter.                  ...        0 min,  0.023 sec
     gradient                   ...        0 min,  0.082 sec
 * total energy  :   -83.6491801 Eh     change       -0.1599093E-03 Eh
   gradient norm :     0.0054486 Eh/α   predicted    -0.1236420E-03 ( -22.68%)
   displ. norm   :     0.1460588 α      lambda       -0.1208272E-03
   maximum displ.:     0.0665296 α      in ANC's #10, #11, #3, ...

........................................................................
.............................. CYCLE    8 ..............................
........................................................................
   1    -84.3829446 -0.843829E+02  0.746E-03    2.12       0.0  T
   2    -84.3829463 -0.170639E-05  0.329E-03    2.12       4.7  T
   3    -84.3829465 -0.166158E-06  0.170E-03    2.12       9.1  T
   4    -84.3829465 -0.702538E-08  0.502E-04    2.12      30.7  T
   5    -84.3829465 -0.192973E-08  0.105E-04    2.12     146.6  T
   6    -84.3829465 -0.217838E-09  0.343E-05    2.12     450.3  T
     SCC iter.                  ...        0 min,  0.023 sec
     gradient                   ...        0 min,  0.082 sec
 * total energy  :   -83.6492586 Eh     change       -0.7855972E-04 Eh
   gradient norm :     0.0028988 Eh/α   predicted    -0.6170364E-04 ( -21.46%)
   displ. norm   :     0.0983199 α      lambda       -0.5701259E-04
   maximum displ.:     0.0450035 α      in ANC's #11, #3, #4, ...

........................................................................
.............................. CYCLE    9 ..............................
........................................................................
   1    -84.3829359 -0.843829E+02  0.457E-03    2.12       0.0  T
   2    -84.3829363 -0.467934E-06  0.210E-03    2.12       7.3  T
   3    -84.3829364 -0.439387E-07  0.116E-03    2.12      13.4  T
   4    -84.3829364 -0.304455E-08  0.251E-04    2.12      61.5  T
   5    -84.3829364 -0.814822E-09  0.525E-05    2.12     294.1  T
   6    -84.3829364 -0.418368E-10  0.198E-05    2.12     778.0  T
     SCC iter.                  ...        0 min,  0.023 sec
     gradient                   ...        0 min,  0.082 sec
 * total energy  :   -83.6492968 Eh     change       -0.3818972E-04 Eh
   gradient norm :     0.0024049 Eh/α   predicted    -0.2881741E-04 ( -24.54%)
   displ. norm   :     0.0914354 α      lambda       -0.3878737E-04
   maximum displ.:     0.0436984 α      in ANC's #11, #3, #4, ...

........................................................................
.............................. CYCLE   10 ..............................
........................................................................
   1    -84.3828974 -0.843829E+02  0.274E-03    2.12       0.0  T
   2    -84.3828976 -0.134517E-06  0.126E-03    2.12      12.2  T
   3    -84.3828976 -0.862238E-08  0.689E-04    2.12      22.4  T
   4    -84.3828976 -0.158620E-08  0.165E-04    2.12      93.7  T
   5    -84.3828976 -0.289631E-09  0.304E-05    2.12     507.6  T
     SCC iter.                  ...        0 min,  0.019 sec
     gradient                   ...        0 min,  0.082 sec
 * total energy  :   -83.6493257 Eh     change       -0.2888064E-04 Eh
   gradient norm :     0.0025030 Eh/α   predicted    -0.1955731E-04 ( -32.28%)
   displ. norm   :     0.1274115 α      lambda       -0.4438351E-04
   maximum displ.:     0.0616511 α      in ANC's #11, #3, #4, ...

........................................................................
.............................. CYCLE   11 ..............................
........................................................................
   1    -84.3828167 -0.843828E+02  0.293E-03    2.12       0.0  T
   2    -84.3828170 -0.291093E-06  0.117E-03    2.12      13.1  T
   3    -84.3828170 -0.139590E-07  0.605E-04    2.12      25.5  T
   4    -84.3828170 -0.198203E-08  0.256E-04    2.12      60.2  T
   5    -84.3828170 -0.447386E-09  0.349E-05    2.12     442.2  T
   6    -84.3828170 -0.227232E-10  0.106E-05    2.12    1458.4  T
     SCC iter.                  ...        0 min,  0.023 sec
     gradient                   ...        0 min,  0.082 sec
 * total energy  :   -83.6493588 Eh     change       -0.3311840E-04 Eh
   gradient norm :     0.0025439 Eh/α   predicted    -0.2255362E-04 ( -31.90%)
   displ. norm   :     0.1544529 α      lambda       -0.4384672E-04
   maximum displ.:     0.0765660 α      in ANC's #3, #11, #4, ...

........................................................................
.............................. CYCLE   12 ..............................
........................................................................
   1    -84.3827186 -0.843827E+02  0.317E-03    2.12       0.0  T
   2    -84.3827190 -0.427445E-06  0.114E-03    2.12      13.6  T
   3    -84.3827190 -0.230266E-07  0.505E-04    2.12      30.5  T
   4    -84.3827190 -0.196913E-08  0.257E-04    2.12      60.1  T
   5    -84.3827190 -0.293014E-09  0.437E-05    2.12     353.2  T
   6    -84.3827190 -0.251674E-10  0.115E-05    2.12    1343.0  T
     SCC iter.                  ...        0 min,  0.023 sec
     gradient                   ...        0 min,  0.082 sec
 * total energy  :   -83.6493912 Eh     change       -0.3236682E-04 Eh
   gradient norm :     0.0025928 Eh/α   predicted    -0.2244746E-04 ( -30.65%)
   displ. norm   :     0.1579286 α      lambda       -0.3884141E-04
   maximum displ.:     0.0838937 α      in ANC's #3, #11, #4, ...

........................................................................
.............................. CYCLE   13 ..............................
........................................................................
   1    -84.3827324 -0.843827E+02  0.292E-03    2.13       0.0  T
   2    -84.3827328 -0.340156E-06  0.103E-03    2.13      14.9  T
   3    -84.3827328 -0.198691E-07  0.451E-04    2.13      34.2  T
   4    -84.3827328 -0.156575E-08  0.235E-04    2.13      65.7  T
   5    -84.3827328 -0.188166E-09  0.390E-05    2.13     395.2  T
   6    -84.3827328 -0.168114E-10  0.111E-05    2.13    1392.7  T
     SCC iter.                  ...        0 min,  0.023 sec
     gradient                   ...        0 min,  0.083 sec
 * total energy  :   -83.6494193 Eh     change       -0.2811058E-04 Eh
   gradient norm :     0.0024714 Eh/α   predicted    -0.1990623E-04 ( -29.19%)
   displ. norm   :     0.1246867 α      lambda       -0.3108132E-04
   maximum displ.:     0.0740686 α      in ANC's #3, #11, #18, ...

........................................................................
.............................. CYCLE   14 ..............................
........................................................................
   1    -84.3831243 -0.843831E+02  0.256E-03    2.13       0.0  T
   2    -84.3831245 -0.200632E-06  0.968E-04    2.13      15.9  T
   3    -84.3831246 -0.115749E-07  0.500E-04    2.13      30.8  T
   4    -84.3831246 -0.123633E-08  0.227E-04    2.13      67.8  T
   5    -84.3831246 -0.240718E-09  0.358E-05    2.13     430.9  T
   6    -84.3831246 -0.170814E-10  0.120E-05    2.13    1282.8  T
     SCC iter.                  ...        0 min,  0.023 sec
     gradient                   ...        0 min,  0.082 sec
 * total energy  :   -83.6494420 Eh     change       -0.2268769E-04 Eh
   gradient norm :     0.0019615 Eh/α   predicted    -0.1578296E-04 ( -30.43%)
   displ. norm   :     0.1561407 α      lambda       -0.2561156E-04
   maximum displ.:     0.1040366 α      in ANC's #3, #11, #18, ...

........................................................................
.............................. CYCLE   15 ..............................
........................................................................
   1    -84.3834368 -0.843834E+02  0.381E-03    2.13       0.0  T
   2    -84.3834373 -0.475552E-06  0.167E-03    2.13       9.3  T
   3    -84.3834373 -0.303676E-07  0.906E-04    2.13      17.0  T
   4    -84.3834373 -0.178146E-08  0.362E-04    2.13      42.7  T
   5    -84.3834373 -0.142246E-08  0.533E-05    2.13     289.6  T
   6    -84.3834373 -0.553086E-10  0.167E-05    2.13     926.3  T
     SCC iter.                  ...        0 min,  0.023 sec
     gradient                   ...        0 min,  0.082 sec
 * total energy  :   -83.6494667 Eh     change       -0.2475031E-04 Eh
   gradient norm :     0.0018337 Eh/α   predicted    -0.1294683E-04 ( -47.69%)
   displ. norm   :     0.1581998 α      lambda        0.5630301E-05
   maximum displ.:     0.1054852 α      in ANC's #3, #11, #18, ...

........................................................................
.............................. CYCLE   16 ..............................
........................................................................
   1    -84.3833923 -0.843834E+02  0.390E-03    2.13       0.0  T
   2    -84.3833928 -0.480877E-06  0.170E-03    2.14       9.1  T
   3    -84.3833928 -0.314596E-07  0.923E-04    2.13      16.7  T
   4    -84.3833928 -0.193134E-08  0.364E-04    2.13      42.3  T
   5    -84.3833928 -0.147780E-08  0.508E-05    2.13     303.5  T
   6    -84.3833928 -0.577245E-10  0.158E-05    2.13     979.6  T
     SCC iter.                  ...        0 min,  0.025 sec
     gradient                   ...        0 min,  0.083 sec
 * total energy  :   -83.6494662 Eh     change        0.5391146E-06 Eh
   gradient norm :     0.0035580 Eh/α   predicted     0.2844972E-05 ( 427.71%)
   displ. norm   :     0.0286402 α      lambda       -0.2255006E-04
   maximum displ.:     0.0107772 α      in ANC's #5, #4, #25, ...

........................................................................
.............................. CYCLE   17 ..............................
........................................................................
   1    -84.3837286 -0.843837E+02  0.256E-03    2.13       0.0  T
   2    -84.3837287 -0.676705E-07  0.138E-03    2.13      11.2  T
   3    -84.3837287 -0.394948E-08  0.663E-04    2.13      23.3  T
   4    -84.3837287 -0.231672E-08  0.133E-04    2.13     115.7  T
   5    -84.3837287 -0.235914E-09  0.289E-05    2.13     534.4  T
     SCC iter.                  ...        0 min,  0.020 sec
     gradient                   ...        0 min,  0.082 sec
 * total energy  :   -83.6494842 Eh     change       -0.1797573E-04 Eh
   gradient norm :     0.0028398 Eh/α   predicted    -0.1128626E-04 ( -37.21%)
   displ. norm   :     0.0986971 α      lambda       -0.6563445E-04
   maximum displ.:     0.0443955 α      in ANC's #3, #5, #13, ...

........................................................................
.............................. CYCLE   18 ..............................
........................................................................
   1    -84.3830699 -0.843831E+02  0.576E-03    2.13       0.0  T
   2    -84.3830708 -0.908989E-06  0.238E-03    2.13       6.5  T
   3    -84.3830709 -0.686727E-07  0.126E-03    2.13      12.2  T
   4    -84.3830709 -0.634546E-08  0.489E-04    2.13      31.6  T
   5    -84.3830709 -0.106853E-08  0.737E-05    2.13     209.3  T
   6    -84.3830709 -0.722480E-10  0.251E-05    2.13     613.9  T
     SCC iter.                  ...        0 min,  0.023 sec
     gradient                   ...        0 min,  0.083 sec
 * total energy  :   -83.6495207 Eh     change       -0.3654508E-04 Eh
   gradient norm :     0.0017159 Eh/α   predicted    -0.3313762E-04 (  -9.32%)
   displ. norm   :     0.1616753 α      lambda       -0.2660106E-04
   maximum displ.:     0.1059785 α      in ANC's #3, #5, #8, ...

........................................................................
.............................. CYCLE   19 ..............................
........................................................................
   1    -84.3837906 -0.843838E+02  0.301E-03    2.13       0.0  T
   2    -84.3837908 -0.193446E-06  0.148E-03    2.13      10.5  T
   3    -84.3837908 -0.111748E-07  0.765E-04    2.13      20.2  T
   4    -84.3837908 -0.214735E-08  0.226E-04    2.13      68.2  T
   5    -84.3837908 -0.390457E-09  0.361E-05    2.13     427.4  T
   6    -84.3837908 -0.141398E-10  0.901E-06    2.13    1713.5  T
     SCC iter.                  ...        0 min,  0.023 sec
     gradient                   ...        0 min,  0.082 sec
 * total energy  :   -83.6495522 Eh     change       -0.3153947E-04 Eh
   gradient norm :     0.0027138 Eh/α   predicted    -0.1346106E-04 ( -57.32%)
   displ. norm   :     0.2068791 α      lambda       -0.4600024E-04
   maximum displ.:     0.1428225 α      in ANC's #3, #5, #11, ...

........................................................................
.............................. CYCLE   20 ..............................
........................................................................
   1    -84.3832399 -0.843832E+02  0.221E-03    2.13       0.0  T
   2    -84.3832400 -0.988163E-07  0.107E-03    2.13      14.4  T
   3    -84.3832400 -0.431216E-08  0.508E-04    2.13      30.4  T
   4    -84.3832400 -0.984713E-09  0.147E-04    2.13     104.7  T
   5    -84.3832400 -0.153861E-09  0.315E-05    2.13     489.4  T
     SCC iter.                  ...        0 min,  0.020 sec
     gradient                   ...        0 min,  0.083 sec
 * total energy  :   -83.6495917 Eh     change       -0.3949874E-04 Eh
   gradient norm :     0.0026412 Eh/α   predicted    -0.2398830E-04 ( -39.27%)
   displ. norm   :     0.2790173 α      lambda       -0.5928074E-04
   maximum displ.:     0.1992200 α      in ANC's #3, #5, #11, ...
 * RMSD in coord.:     0.3492062 α      energy gain  -0.2081105E-01 Eh

generating ANC from model Hessian ...
Using Lindh-Hessian (1995)
 Shifting diagonal of input Hessian by   9.761324802019432E-003
 Lowest  eigenvalues of input Hessian
    0.000000    0.000000    0.000000    0.000000    0.000000    0.000000
    0.010000    0.010119    0.010258    0.011108    0.011737    0.012050
    0.012685    0.014017    0.014040    0.014582    0.015115    0.015571
 Highest eigenvalues
    1.997732    2.049671    2.103133    2.227590    2.293166    2.369578
 

........................................................................
.............................. CYCLE   21 ..............................
........................................................................
   1    -84.3825965 -0.843826E+02  0.329E-03    2.13       0.0  T
   2    -84.3825966 -0.138794E-06  0.150E-03    2.13      10.3  T
   3    -84.3825966 -0.468633E-08  0.652E-04    2.13      23.7  T
   4    -84.3825966 -0.186252E-08  0.179E-04    2.13      86.2  T
   5    -84.3825966 -0.240874E-09  0.399E-05    2.13     387.0  T
     SCC iter.                  ...        0 min,  0.019 sec
     gradient                   ...        0 min,  0.082 sec
 * total energy  :   -83.6496356 Eh     change       -0.4389760E-04 Eh
   gradient norm :     0.0024044 Eh/α   predicted     0.0000000E+00 (-100.00%)
   displ. norm   :     0.0236332 α      lambda       -0.1411012E-04
   maximum displ.:     0.0162460 α      in ANC's #3, #1, #7, ...

........................................................................
.............................. CYCLE   22 ..............................
........................................................................
   1    -84.3833953 -0.843834E+02  0.228E-03    2.13       0.0  T
   2    -84.3833954 -0.103001E-06  0.987E-04    2.13      15.6  T
   3    -84.3833954 -0.835733E-08  0.569E-04    2.13      27.1  T
   4    -84.3833954 -0.755463E-09  0.108E-04    2.13     143.5  T
   5    -84.3833954 -0.140105E-09  0.256E-05    2.13     603.3  T
     SCC iter.                  ...        0 min,  0.020 sec
     gradient                   ...        0 min,  0.083 sec
 * total energy  :   -83.6496472 Eh     change       -0.1154581E-04 Eh
   gradient norm :     0.0009194 Eh/α   predicted    -0.7348624E-05 ( -36.35%)
   displ. norm   :     0.0822615 α      lambda       -0.1692129E-04
   maximum displ.:     0.0563488 α      in ANC's #3, #1, #7, ...

........................................................................
.............................. CYCLE   23 ..............................
........................................................................
   1    -84.3845317 -0.843845E+02  0.412E-03    2.13       0.0  T
   2    -84.3845321 -0.425884E-06  0.175E-03    2.13       8.8  T
   3    -84.3845322 -0.382141E-07  0.927E-04    2.13      16.6  T
   4    -84.3845322 -0.170361E-08  0.230E-04    2.13      67.0  T
   5    -84.3845322 -0.384503E-09  0.498E-05    2.13     309.8  T
   6    -84.3845322 -0.284217E-10  0.142E-05    2.13    1085.8  T
     SCC iter.                  ...        0 min,  0.024 sec
     gradient                   ...        0 min,  0.083 sec
 * total energy  :   -83.6496630 Eh     change       -0.1578115E-04 Eh
   gradient norm :     0.0021346 Eh/α   predicted    -0.9154486E-05 ( -41.99%)
   displ. norm   :     0.0357601 α      lambda       -0.8473481E-05
   maximum displ.:     0.0257679 α      in ANC's #3, #1, #2, ...

........................................................................
.............................. CYCLE   24 ..............................
........................................................................
   1    -84.3842892 -0.843843E+02  0.879E-04    2.13       0.0  T
   2    -84.3842892 -0.145757E-07  0.464E-04    2.13      33.3  T
   3    -84.3842892 -0.181393E-08  0.250E-04    2.13      61.8  T
   4    -84.3842892 -0.128765E-09  0.351E-05    2.13     439.8  T
   5    -84.3842892 -0.127329E-10  0.113E-05    2.13    1359.7  T
     SCC iter.                  ...        0 min,  0.020 sec
     gradient                   ...        0 min,  0.083 sec
 * total energy  :   -83.6496706 Eh     change       -0.7635578E-05 Eh
   gradient norm :     0.0017189 Eh/α   predicted    -0.4242623E-05 ( -44.44%)
   displ. norm   :     0.1105513 α      lambda       -0.1657775E-04
   maximum displ.:     0.0774449 α      in ANC's #3, #1, #2, ...

........................................................................
.............................. CYCLE   25 ..............................
........................................................................
   1    -84.3832030 -0.843832E+02  0.318E-03    2.13       0.0  T
   2    -84.3832031 -0.157086E-06  0.156E-03    2.13       9.9  T
   3    -84.3832031 -0.129898E-07  0.882E-04    2.13      17.5  T
   4    -84.3832031 -0.268888E-08  0.125E-04    2.13     123.5  T
   5    -84.3832031 -0.272365E-09  0.362E-05    2.13     425.9  T
     SCC iter.                  ...        0 min,  0.019 sec
     gradient                   ...        0 min,  0.081 sec
 * total energy  :   -83.6496870 Eh     change       -0.1636870E-04 Eh
   gradient norm :     0.0008473 Eh/α   predicted    -0.8334160E-05 ( -49.08%)
   displ. norm   :     0.0741772 α      lambda       -0.6740423E-05
   maximum displ.:     0.0530318 α      in ANC's #3, #1, #2, ...

........................................................................
.............................. CYCLE   26 ..............................
........................................................................
   1    -84.3830524 -0.843831E+02  0.800E-04    2.13       0.0  T
   2    -84.3830524 -0.135794E-07  0.399E-04    2.13      38.7  T
   3    -84.3830524 -0.115890E-08  0.223E-04    2.13      69.2  T
   4    -84.3830524 -0.130058E-09  0.425E-05    2.13     363.2  T
   5    -84.3830524 -0.299423E-10  0.122E-05    2.13    1268.6  T
     SCC iter.                  ...        0 min,  0.020 sec
     gradient                   ...        0 min,  0.088 sec
 * total energy  :   -83.6496957 Eh     change       -0.8687244E-05 Eh
   gradient norm :     0.0011448 Eh/α   predicted    -0.3383662E-05 ( -61.05%)
   displ. norm   :     0.1029878 α      lambda       -0.1102732E-04
   maximum displ.:     0.0693872 α      in ANC's #3, #2, #1, ...

........................................................................
.............................. CYCLE   27 ..............................
........................................................................
   1    -84.3831579 -0.843832E+02  0.105E-03    2.14       0.0  T
   2    -84.3831580 -0.444810E-07  0.549E-04    2.14      28.1  T
   3    -84.3831580 -0.535339E-08  0.229E-04    2.14      67.3  T
   4    -84.3831580 -0.474927E-10  0.685E-05    2.14     225.2  T
   5    -84.3831580 -0.224105E-10  0.119E-05    2.14    1295.3  T
     SCC iter.                  ...        0 min,  0.018 sec
     gradient                   ...        0 min,  0.083 sec
 * total energy  :   -83.6497107 Eh     change       -0.1504879E-04 Eh
   gradient norm :     0.0011251 Eh/α   predicted    -0.5541592E-05 ( -63.18%)
   displ. norm   :     0.2302745 α      lambda       -0.2459163E-04
   maximum displ.:     0.1491901 α      in ANC's #3, #2, #1, ...

........................................................................
.............................. CYCLE   28 ..............................
........................................................................
   1    -84.3833273 -0.843833E+02  0.218E-03    2.14       0.0  T
   2    -84.3833275 -0.188760E-06  0.116E-03    2.14      13.3  T
   3    -84.3833275 -0.247244E-07  0.483E-04    2.14      32.0  T
   4    -84.3833275 -0.344755E-09  0.134E-04    2.14     115.1  T
   5    -84.3833275 -0.822666E-10  0.264E-05    2.14     585.6  T
     SCC iter.                  ...        0 min,  0.018 sec
     gradient                   ...        0 min,  0.082 sec
 * total energy  :   -83.6497422 Eh     change       -0.3153426E-04 Eh
   gradient norm :     0.0011997 Eh/α   predicted    -0.1259071E-04 ( -60.07%)
   displ. norm   :     0.3968083 α      lambda       -0.3527720E-04
   maximum displ.:     0.2549956 α      in ANC's #3, #2, #1, ...

........................................................................
.............................. CYCLE   29 ..............................
........................................................................
   1    -84.3829714 -0.843830E+02  0.303E-03    2.14       0.0  T
   2    -84.3829718 -0.393508E-06  0.141E-03    2.14      10.9  T
   3    -84.3829719 -0.365707E-07  0.620E-04    2.14      24.9  T
   4    -84.3829719 -0.114970E-08  0.242E-04    2.13      63.8  T
   5    -84.3829719 -0.231395E-09  0.490E-05    2.13     314.8  T
   6    -84.3829719 -0.303260E-10  0.153E-05    2.13    1006.4  T
     SCC iter.                  ...        0 min,  0.021 sec
     gradient                   ...        0 min,  0.070 sec
 * total energy  :   -83.6497848 Eh     change       -0.4257414E-04 Eh
   gradient norm :     0.0018744 Eh/α   predicted    -0.1887826E-04 ( -55.66%)
   displ. norm   :     0.4321373 α      lambda       -0.3258536E-04
   maximum displ.:     0.2768319 α      in ANC's #3, #2, #1, ...

........................................................................
.............................. CYCLE   30 ..............................
........................................................................
   1    -84.3826681 -0.843827E+02  0.266E-03    2.14       0.0  T
   2    -84.3826684 -0.265933E-06  0.114E-03    2.14      13.5  T
   3    -84.3826684 -0.153362E-07  0.593E-04    2.14      26.0  T
   4    -84.3826684 -0.168960E-08  0.210E-04    2.14      73.3  T
   5    -84.3826684 -0.306215E-09  0.539E-05    2.14     286.2  T
   6    -84.3826684 -0.490559E-10  0.168E-05    2.14     919.0  T
     SCC iter.                  ...        0 min,  0.021 sec
     gradient                   ...        0 min,  0.081 sec
 * total energy  :   -83.6498248 Eh     change       -0.4000324E-04 Eh
   gradient norm :     0.0023069 Eh/α   predicted    -0.1764581E-04 ( -55.89%)
   displ. norm   :     0.3334092 α      lambda       -0.3861251E-04
   maximum displ.:     0.2134109 α      in ANC's #3, #2, #1, ...

........................................................................
.............................. CYCLE   31 ..............................
........................................................................
   1    -84.3828347 -0.843828E+02  0.236E-03    2.14       0.0  T
   2    -84.3828348 -0.131201E-06  0.106E-03    2.14      14.5  T
   3    -84.3828348 -0.116997E-07  0.518E-04    2.13      29.8  T
   4    -84.3828348 -0.185970E-08  0.142E-04    2.13     108.8  T
   5    -84.3828348 -0.161307E-09  0.370E-05    2.13     416.5  T
     SCC iter.                  ...        0 min,  0.018 sec
     gradient                   ...        0 min,  0.081 sec
 * total energy  :   -83.6498558 Eh     change       -0.3098481E-04 Eh
   gradient norm :     0.0019437 Eh/α   predicted    -0.2145488E-04 ( -30.76%)
   displ. norm   :     0.5108311 α      lambda       -0.3627021E-04
   maximum displ.:     0.3262886 α      in ANC's #3, #2, #1, ...

........................................................................
.............................. CYCLE   32 ..............................
........................................................................
   1    -84.3833610 -0.843834E+02  0.477E-03    2.14       0.0  T
   2    -84.3833615 -0.508827E-06  0.235E-03    2.14       6.6  T
   3    -84.3833616 -0.687377E-07  0.111E-03    2.13      13.9  T
   4    -84.3833616 -0.392758E-08  0.231E-04    2.13      66.7  T
   5    -84.3833616 -0.430845E-09  0.653E-05    2.13     236.4  T
   6    -84.3833616 -0.406857E-10  0.212E-05    2.13     728.6  T
     SCC iter.                  ...        0 min,  0.021 sec
     gradient                   ...        0 min,  0.081 sec
 * total energy  :   -83.6498882 Eh     change       -0.3237819E-04 Eh
   gradient norm :     0.0013534 Eh/α   predicted    -0.2024548E-04 ( -37.47%)
   displ. norm   :     0.0850913 α      lambda       -0.9426902E-05
   maximum displ.:     0.0466035 α      in ANC's #3, #2, #1, ...

........................................................................
.............................. CYCLE   33 ..............................
........................................................................
   1    -84.3844521 -0.843845E+02  0.295E-03    2.13       0.0  T
   2    -84.3844524 -0.223058E-06  0.133E-03    2.13      11.6  T
   3    -84.3844524 -0.182666E-07  0.711E-04    2.13      21.7  T
   4    -84.3844524 -0.509999E-09  0.165E-04    2.13      93.4  T
   5    -84.3844524 -0.300872E-09  0.304E-05    2.13     508.0  T
     SCC iter.                  ...        0 min,  0.020 sec
     gradient                   ...        0 min,  0.081 sec
 * total energy  :   -83.6498968 Eh     change       -0.8626076E-05 Eh
   gradient norm :     0.0010662 Eh/α   predicted    -0.4732573E-05 ( -45.14%)
   displ. norm   :     0.1880257 α      lambda       -0.7933023E-05
   maximum displ.:     0.1127896 α      in ANC's #3, #2, #1, ...

........................................................................
.............................. CYCLE   34 ..............................
........................................................................
   1    -84.3837743 -0.843838E+02  0.228E-03    2.14       0.0  T
   2    -84.3837744 -0.848817E-07  0.124E-03    2.13      12.5  T
   3    -84.3837744 -0.744734E-08  0.645E-04    2.13      23.9  T
   4    -84.3837744 -0.120409E-08  0.112E-04    2.13     138.1  T
   5    -84.3837744 -0.161279E-09  0.317E-05    2.13     487.0  T
     SCC iter.                  ...        0 min,  0.018 sec
     gradient                   ...        0 min,  0.081 sec
 * total energy  :   -83.6499031 Eh     change       -0.6324561E-05 Eh
   gradient norm :     0.0010116 Eh/α   predicted    -0.4032838E-05 ( -36.24%)
   displ. norm   :     0.0507817 α      lambda       -0.6005971E-05
   maximum displ.:     0.0218172 α      in ANC's #18, #7, #5, ...

........................................................................
.............................. CYCLE   35 ..............................
........................................................................
   1    -84.3841765 -0.843842E+02  0.125E-03    2.13       0.0  T
   2    -84.3841766 -0.264568E-07  0.564E-04    2.13      27.3  T
   3    -84.3841766 -0.120123E-08  0.276E-04    2.13      55.9  T
   4    -84.3841766 -0.310820E-09  0.745E-05    2.13     207.2  T
   5    -84.3841766 -0.709832E-10  0.173E-05    2.13     889.6  T
     SCC iter.                  ...        0 min,  0.018 sec
     gradient                   ...        0 min,  0.081 sec
 * total energy  :   -83.6499090 Eh     change       -0.5852143E-05 Eh
   gradient norm :     0.0010056 Eh/α   predicted    -0.3010968E-05 ( -48.55%)
   displ. norm   :     0.0516185 α      lambda       -0.4869409E-05
   maximum displ.:     0.0220988 α      in ANC's #5, #18, #7, ...

........................................................................
.............................. CYCLE   36 ..............................
........................................................................
   1    -84.3838627 -0.843839E+02  0.136E-03    2.13       0.0  T
   2    -84.3838627 -0.570039E-07  0.661E-04    2.13      23.3  T
   3    -84.3838627 -0.739897E-08  0.305E-04    2.13      50.6  T
   4    -84.3838627 -0.102787E-09  0.701E-05    2.13     220.0  T
   5    -84.3838627 -0.283791E-10  0.125E-05    2.13    1231.5  T
     SCC iter.                  ...        0 min,  0.018 sec
     gradient                   ...        0 min,  0.081 sec
 * total energy  :   -83.6499133 Eh     change       -0.4355905E-05 Eh
   gradient norm :     0.0006475 Eh/α   predicted    -0.2439239E-05 ( -44.00%)
   displ. norm   :     0.0294017 α      lambda       -0.1909999E-05
   maximum displ.:     0.0136741 α      in ANC's #5, #4, #7, ...

   *** GEOMETRY OPTIMIZATION CONVERGED AFTER 36 ITERATIONS ***

------------------------------------------------------------------------
 total energy gain   :        -0.0211327 Eh      -13.2609 kcal/mol
 total RMSD          :         0.6791737 a0        0.3594 Å
 total power (kW/mol):        -1.5412158 (step)  -10.6409 (real)
------------------------------------------------------------------------

 ANCopt (total)                0 d,  0 h,  0 min,  5.214 sec
 optimizer setup                ...        0 min,  0.001 sec (  0.020%)
 model hessian                  ...        0 min,  0.065 sec (  1.241%)
 ANC generation                 ...        0 min,  0.005 sec (  0.094%)
 coordinate transformation      ...        0 min,  0.001 sec (  0.028%)
 single point calculation       ...        0 min,  5.120 sec ( 98.191%)
 optimization log               ...        0 min,  0.012 sec (  0.221%)
 hessian update                 ...        0 min,  0.001 sec (  0.024%)
 rational function              ...        0 min,  0.005 sec (  0.105%)

================
 final structure:
================
42
 xtb: 6.5.1 (579679a)
C            7.11571279424530        0.64827285658654       -0.49076204154951
O            5.86746258634009        0.75288478352250        0.17338693621436
C            4.78936640506148        0.28985694813149       -0.52059563210172
O            4.94051536054300       -0.19369918768704       -1.63941274036569
C            3.51788870608233        0.42553598248746        0.16534897451664
N            2.45031421644581       -0.04774236530505       -0.58529259095812
C            1.25582377508246        0.01708493045981       -0.12052201938099
C            0.07122543577905       -0.53764085374774       -0.91453496854846
C            0.25192530628948       -2.06286117159589       -0.95217230455088
C            0.16141382763313        0.01973984201707       -2.34699415605249
N           -1.14964208566581       -0.07453235577479       -0.24975907016556
C           -2.38119800908726       -0.98766568353892       -0.13592266178844
C           -3.14150348028783       -0.94477350613777       -1.50503744231212
O           -2.16607898666971       -2.17755133526935        0.33384107977250
C           -3.24360877328111       -0.13684541820988        0.87069871263644
N           -2.82507018353905        0.43436202647424        1.95647591739411
N           -3.93703073155391        0.93846774529895        2.60380633807884
C           -4.95095912882514        0.63235171587206        1.86846972394619
C           -6.37787614755657        0.95363013269653        2.11627491584916
O           -4.59083939573377       -0.04860162557857        0.76198148090458
N            0.99108223132598        0.53344650184327        1.12427581124004
C            1.93496796297654        1.03284545810630        1.96922290779490
O            1.60670345147653        1.49336280782418        3.06669808713265
C            3.35891078876424        0.97631554187117        1.46334969983769
O            4.27055634833649        1.40939736444025        2.20072774307471
H            7.35381521077733       -0.39702199089171       -0.71377481779443
H            7.10600967724831        1.21235491151600       -1.42909346790004
H            7.87115417184366        1.06144397807364        0.17672130763257
H           -0.52589683909996       -2.53648586326135       -1.54776149847262
H            0.22798658214306       -2.48238409904077        0.05335803837646
H            1.22226299880876       -2.28332960824461       -1.40169108223464
H           -0.60561362264877       -0.42319700034451       -2.97919574277323
H            0.02780088280656        1.10125449027871       -2.34238671552255
H            1.14168820840994       -0.20684527819342       -2.76808680474598
H           -1.45955534933263        0.77550503674129       -0.70938617646207
H           -2.56770603632145       -1.48738559576668       -2.25350191832489
H           -4.10301183748388       -1.43995829290844       -1.37833724211208
H           -3.30588150503310        0.07691335211571       -1.84153187518877
H           -6.76446154732399        1.58805805423312        1.31911336873785
H           -6.97358041905561        0.04163065063747        2.13945083574411
H           -6.47454305334785        1.47302200455658        3.06655367823156
H            0.00946920342578        0.58078411571093        1.39599641219058
 
 Bond Distances (Angstroems)
 ---------------------------
C1-O2=1.4178         C1-H26=1.0950        C1-H27=1.0949        C1-H28=1.0895        O2-C1=1.4178         O2-C3=1.3632         
C3-O2=1.3632         C3-O4=1.2282         C3-C5=1.4511         O4-C3=1.2282         C5-C3=1.4511         C5-N6=1.3882         
C5-C24=1.4190        N6-C5=1.3882         N6-C7=1.2834         C7-N6=1.2834         C7-C8=1.5302         C7-N21=1.3734        
C8-C7=1.5302         C8-C9=1.5363         C8-C10=1.5397        C8-N11=1.4652        C9-C8=1.5363         C9-H29=1.0881        
C9-H30=1.0898        C9-H31=1.0919        C10-C8=1.5397        C10-H32=1.0882       C10-H33=1.0897       C10-H34=1.0907       
N11-C8=1.4652        N11-C12=1.5374       N11-H35=1.0148       C12-N11=1.5374       C12-C13=1.5666       C12-O14=1.2972       
C12-C15=1.5751       C13-C12=1.5666       C13-H36=1.0881       C13-H37=1.0889       C13-H38=1.0882       O14-C12=1.2972       
C15-C12=1.5751       C15-N16=1.2963       C15-O20=1.3545       N16-C15=1.2963       N16-N17=1.3819       N17-N16=1.3819       
N17-C18=1.2894       C18-N17=1.2894       C18-C19=1.4835       C18-O20=1.3482       C19-C18=1.4835       C19-H39=1.0897       
C19-H40=1.0896       C19-H41=1.0873       O20-C15=1.3545       O20-C18=1.3482       N21-C7=1.3734        N21-C22=1.3617       
N21-H42=1.0196       C22-N21=1.3617       C22-O23=1.2346       C22-C24=1.5122       O23-C22=1.2346       C24-C5=1.4190        
C24-C22=1.5122       C24-O25=1.2500       O25-C24=1.2500       H26-C1=1.0950        H27-C1=1.0949        H28-C1=1.0895        
H29-C9=1.0881        H30-C9=1.0898        H31-C9=1.0919        H32-C10=1.0882       H33-C10=1.0897       H34-C10=1.0907       
H35-N11=1.0148       H36-C13=1.0881       H37-C13=1.0889       H38-C13=1.0882       H39-C19=1.0897       H40-C19=1.0896       
H41-C19=1.0873       H42-N21=1.0196       
 C  H  Rav=1.0900 sigma=0.0023  Rmin=1.0873  Rmax=1.0950    15
 C  C  Rav=1.5126 sigma=0.0493  Rmin=1.4190  Rmax=1.5751     9
 N  H  Rav=1.0172 sigma=0.0024  Rmin=1.0148  Rmax=1.0196     2
 N  C  Rav=1.3744 sigma=0.0842  Rmin=1.2834  Rmax=1.5374     8
 N  N  Rav=1.3819 sigma=0.0000  Rmin=1.3819  Rmax=1.3819     1
 O  C  Rav=1.3117 sigma=0.0652  Rmin=1.2282  Rmax=1.4178     8
 
 selected bond angles (degree)
 --------------------
H26-C1-O2=110.93               H27-C1-O2=110.83               H27-C1-H26=108.61              H28-C1-O2=107.19               
H28-C1-H26=109.63              H28-C1-H27=109.62              C3-O2-C1=115.64                O4-C3-O2=120.01                
C5-C3-O2=114.87                C5-C3-O4=125.12                N6-C5-C3=112.73                C24-C5-C3=124.53               
C24-C5-N6=122.74               C7-N6-C5=120.18                C8-C7-N6=120.95                N21-C7-N6=121.78               
N21-C7-C8=117.22               C9-C8-C7=106.35                C10-C8-C7=107.83               C10-C8-C9=109.25               
N11-C8-C7=107.16               N11-C8-C9=115.02               N11-C8-C10=110.88              H29-C9-C8=111.19               
H30-C9-C8=110.91               H30-C9-H29=108.77              H31-C9-C8=108.36               H31-C9-H29=108.79              
H31-C9-H30=108.76              H32-C10-C8=110.60              H33-C10-C8=110.37              H33-C10-H32=108.66             
H34-C10-C8=109.67              H34-C10-H32=108.94             H34-C10-H33=108.54             
 
 selected dihedral angles (degree)
 ---------------------------------
C3-O2-C1-H26=299.18           C3-O2-C1-H27= 59.93           C3-O2-C1-H28=179.52           O4-C3-O2-C1=  0.86            
C5-C3-O2-C1=180.99            N6-C5-C3-O2=179.43            N6-C5-C3-O4=359.57            C24-C5-C3-O2=359.31           
C24-C5-C3-O4=179.45           C7-N6-C5-C3=180.79            C7-N6-C5-C24=  0.91           C8-C7-N6-C5=181.87            
N21-C7-N6-C5=359.19           C9-C8-C7-N6= 67.62            C9-C8-C7-N21=250.18           C10-C8-C7-N6=310.54           
C10-C8-C7-N21=133.09          N11-C8-C7-N6=191.12           N11-C8-C7-N21= 13.67          H29-C9-C8-C7=183.03           
H29-C9-C8-C10=299.16          H29-C9-C8-N11= 64.59          H30-C9-C8-C7= 61.86           H30-C9-C8-C10=177.99          
H30-C9-C8-N11=303.42          H31-C9-C8-C7=302.54           H31-C9-C8-C10= 58.67          H31-C9-C8-N11=184.10          
H32-C10-C8-C7=174.47          H32-C10-C8-C9= 59.28          H32-C10-C8-N11=291.50         H33-C10-C8-C7=294.75          
H33-C10-C8-C9=179.56          H33-C10-C8-N11= 51.78         H34-C10-C8-C7= 54.29          H34-C10-C8-C9=299.10          
H34-C10-C8-N11=171.32         
           -------------------------------------------------
          |                Final Singlepoint                |
           -------------------------------------------------

          ...................................................
          :                      SETUP                      :
          :.................................................:
          :  # basis functions                 134          :
          :  # atomic orbitals                 134          :
          :  # shells                           84          :
          :  # electrons                       136          :
          :  # halogen bonds                     0          :
          :  max. iterations                   250          :
          :  Hamiltonian                  GFN1-xTB          :
          :  restarted?                      false          :
          :  GBSA solvation                   true          :
          :  PC potential                    false          :
          :  electronic temp.          300.0000000     K    :
          :  accuracy                    1.0000000          :
          :  -> integral cutoff          0.2500000E+02      :
          :  -> integral neglect         0.1000000E-07      :
          :  -> SCF convergence          0.1000000E-05 Eh   :
          :  -> wf. convergence          0.2000000E-04 e    :
          :  Broyden damping             0.4000000          :
          ...................................................

 iter      E             dE          RMSdq      gap      omega  full diag
   1    -84.3838627 -0.843839E+02  0.390E-06    2.13       0.0  T
   2    -84.3838627 -0.312639E-12  0.188E-06    2.13    8218.0  T
   3    -84.3838627  0.000000E+00  0.879E-07    2.13   17546.4  T

   *** convergence criteria satisfied after 3 iterations ***

         #    Occupation            Energy/Eh            Energy/eV
      -------------------------------------------------------------
         1        2.0000           -0.8154380             -22.1892
       ...           ...                  ...                  ...
        62        2.0000           -0.4054486             -11.0328
        63        2.0000           -0.3992510             -10.8642
        64        2.0000           -0.3704968             -10.0817
        65        2.0000           -0.3624488              -9.8627
        66        2.0000           -0.3509500              -9.5498
        67        2.0000           -0.3454783              -9.4009
        68        2.0000           -0.3367538              -9.1635 (HOMO)
        69                         -0.2583876              -7.0311 (LUMO)
        70                         -0.2225557              -6.0560
        71                         -0.2180882              -5.9345
        72                         -0.2059951              -5.6054
        73                         -0.1851687              -5.0387
       ...                                ...                  ...
       134                          0.7561599              20.5762
      -------------------------------------------------------------
                  HL-Gap            0.0783662 Eh            2.1325 eV
             Fermi-level           -0.2975707 Eh           -8.0973 eV

 SCC (total)                   0 d,  0 h,  0 min,  0.131 sec
 SCC setup                      ...        0 min,  0.002 sec (  1.398%)
 Dispersion                     ...        0 min,  0.000 sec (  0.254%)
 classical contributions        ...        0 min,  0.000 sec (  0.082%)
 integral evaluation            ...        0 min,  0.035 sec ( 26.717%)
 iterations                     ...        0 min,  0.011 sec (  8.799%)
 molecular gradient             ...        0 min,  0.081 sec ( 62.016%)
 printout                       ...        0 min,  0.001 sec (  0.695%)

         :::::::::::::::::::::::::::::::::::::::::::::::::::::
         ::                     SUMMARY                     ::
         :::::::::::::::::::::::::::::::::::::::::::::::::::::
         :: total energy             -83.649913333535 Eh    ::
         :: total w/o Gsasa/hb       -83.631146702411 Eh    ::
         :: gradient norm              0.000647950383 Eh/a0 ::
         :: HOMO-LUMO gap              2.132452859232 eV    ::
         ::.................................................::
         :: SCC energy               -84.383862721198 Eh    ::
         :: -> electrostatic           0.709920355798 Eh    ::
         :: -> Gsolv                  -0.276453167964 Eh    ::
         ::    -> Gelec               -0.257686536840 Eh    ::
         ::    -> Gsasa               -0.024119530757 Eh    ::
         ::    -> Ghb                 -0.002271379371 Eh    ::
         ::    -> Gshift               0.007624279005 Eh    ::
         :: repulsion energy           0.760070951675 Eh    ::
         :: dispersion energy         -0.026121564012 Eh    ::
         :: halogen bond corr.         0.000000000000 Eh    ::
         :: add. restraining           0.000000000000 Eh    ::
         :: total charge              -2.000000000000 e     ::
         :::::::::::::::::::::::::::::::::::::::::::::::::::::

           -------------------------------------------------
          |                Property Printout                |
           -------------------------------------------------

    * Orbital Energies and Occupations

         #    Occupation            Energy/Eh            Energy/eV
      -------------------------------------------------------------
         1        2.0000           -0.8154380             -22.1892
       ...           ...                  ...                  ...
        56        2.0000           -0.4409514             -11.9989
        57        2.0000           -0.4397081             -11.9651
        58        2.0000           -0.4314039             -11.7391
        59        2.0000           -0.4269217             -11.6171
        60        2.0000           -0.4219514             -11.4819
        61        2.0000           -0.4103762             -11.1669
        62        2.0000           -0.4054486             -11.0328
        63        2.0000           -0.3992510             -10.8642
        64        2.0000           -0.3704968             -10.0817
        65        2.0000           -0.3624488              -9.8627
        66        2.0000           -0.3509500              -9.5498
        67        2.0000           -0.3454783              -9.4009
        68        2.0000           -0.3367538              -9.1635 (HOMO)
        69                         -0.2583876              -7.0311 (LUMO)
        70                         -0.2225557              -6.0560
        71                         -0.2180882              -5.9345
        72                         -0.2059951              -5.6054
        73                         -0.1851687              -5.0387
        74                         -0.1271636              -3.4603
        75                         -0.1186364              -3.2283
        76                         -0.1019921              -2.7753
        77                         -0.0958863              -2.6092
        78                         -0.0863567              -2.3499
        79                         -0.0801810              -2.1818
       ...                                ...                  ...
       134                          0.7561599              20.5762
      -------------------------------------------------------------
                  HL-Gap            0.0783662 Eh            2.1325 eV
             Fermi-level           -0.2975707 Eh           -8.0973 eV

  Mulliken/CM5 charges         n(s)   n(p)   n(d)
     1C     0.17448  0.05532   0.969  2.857  0.000
     2O    -0.43602 -0.51846   1.689  4.747  0.000
     3C     0.54017  0.60432   0.979  2.481  0.000
     4O    -0.63263 -0.67593   1.737  4.896  0.000
     5C    -0.02511  0.04976   1.040  2.985  0.000
     6N    -0.40454 -0.58825   1.536  3.868  0.000
     7C     0.24686  0.39828   1.017  2.736  0.000
     8C     0.15849  0.19690   1.060  2.782  0.000
     9C    -0.07017 -0.20944   1.009  3.061  0.000
    10C    -0.10180 -0.24288   1.019  3.083  0.000
    11N    -0.47799 -0.81418   1.490  3.988  0.000
    12C     0.39337  0.45868   1.009  2.598  0.000
    13C    -0.13201 -0.27132   1.026  3.106  0.000
    14O    -0.80853 -0.85419   1.748  5.060  0.000
    15C     0.33414  0.45754   1.059  2.607  0.000
    16N    -0.29911 -0.40550   1.575  3.724  0.000
    17N    -0.31190 -0.42085   1.575  3.736  0.000
    18C     0.36711  0.47703   0.996  2.637  0.000
    19C    -0.11077 -0.24821   1.009  3.102  0.000
    20O    -0.37788 -0.43311   1.702  4.676  0.000
    21N    -0.29967 -0.63806   1.435  3.865  0.000
    22C     0.41751  0.52250   1.008  2.574  0.000
    23O    -0.63419 -0.67065   1.739  4.895  0.000
    24C     0.27677  0.32184   1.034  2.689  0.000
    25O    -0.65311 -0.69063   1.747  4.906  0.000
    26H     0.02923  0.09092   0.971  0.000  0.000
    27H     0.02961  0.09139   0.970  0.000  0.000
    28H     0.03021  0.09049   0.970  0.000  0.000
    29H     0.02843  0.08723   0.972  0.000  0.000
    30H     0.02671  0.08714   0.973  0.000  0.000
    31H     0.00713  0.06401   0.993  0.000  0.000
    32H     0.02809  0.08331   0.972  0.000  0.000
    33H     0.02424  0.08044   0.976  0.000  0.000
    34H     0.02600  0.08370   0.974  0.000  0.000
    35H     0.18181  0.38082   0.818  0.000  0.000
    36H     0.01883  0.07548   0.981  0.000  0.000
    37H     0.02081  0.07870   0.979  0.000  0.000
    38H     0.00885  0.06588   0.991  0.000  0.000
    39H     0.06022  0.11461   0.940  0.000  0.000
    40H     0.05946  0.11389   0.941  0.000  0.000
    41H     0.05154  0.10736   0.948  0.000  0.000
    42H     0.23536  0.44412   0.765  0.000  0.000

Wiberg/Mayer (AO) data.
largest (>0.10) Wiberg bond orders for each atom

 ---------------------------------------------------------------------------
     #   Z sym  total        # sym  WBO       # sym  WBO       # sym  WBO
 ---------------------------------------------------------------------------
     1   6 C    3.904 --    28 H    0.987    27 H    0.980    26 H    0.980
                             2 O    0.930
     2   8 O    2.151 --     3 C    1.034     1 C    0.930     4 O    0.106
     3   6 C    3.849 --     4 O    1.565     5 C    1.129     2 O    1.034
     4   8 O    1.843 --     3 C    1.565     2 O    0.106
     5   6 C    3.920 --    24 C    1.281     6 N    1.143     3 C    1.129
                            25 O    0.130
     6   7 N    3.019 --     7 C    1.627     5 C    1.143
     7   6 C    3.925 --     6 N    1.627    21 N    1.111     8 C    0.966
     8   6 C    3.968 --    10 C    0.984     9 C    0.984    11 N    0.978
                             7 C    0.966
     9   6 C    3.995 --    31 H    0.986     8 C    0.984    30 H    0.983
                            29 H    0.981
    10   6 C    3.995 --    33 H    0.985    32 H    0.985     8 C    0.984
                            34 H    0.983
    11   7 N    3.010 --     8 C    0.978    35 H    0.952    12 C    0.846
    12   6 C    3.933 --    14 O    1.221    13 C    0.937    15 C    0.874
                            11 N    0.846
    13   6 C    3.991 --    38 H    0.989    37 H    0.985    36 H    0.983
                            12 C    0.937
    14   8 O    1.543 --    12 C    1.221
    15   6 C    3.801 --    16 N    1.654    20 O    1.045    12 C    0.874
    16   7 N    2.969 --    15 C    1.654    17 N    1.149
    17   7 N    2.976 --    18 C    1.657    16 N    1.149
    18   6 C    3.888 --    17 N    1.657    20 O    1.061    19 C    1.024
    19   6 C    3.993 --    18 C    1.024    41 H    0.985    40 H    0.971
                            39 H    0.970
    20   8 O    2.292 --    18 C    1.061    15 C    1.045
    21   7 N    3.451 --    22 C    1.186     7 C    1.111    42 H    0.879
                            23 O    0.136
    22   6 C    3.886 --    23 O    1.549    21 N    1.186    24 C    0.974
    23   8 O    1.830 --    22 C    1.549    21 N    0.136
    24   6 C    3.945 --    25 O    1.499     5 C    1.281    22 C    0.974
    25   8 O    1.804 --    24 C    1.499     5 C    0.130
    26   1 H    1.016 --     1 C    0.980
    27   1 H    1.015 --     1 C    0.980
    28   1 H    1.017 --     1 C    0.987
    29   1 H    1.025 --     9 C    0.981
    30   1 H    1.032 --     9 C    0.983
    31   1 H    1.015 --     9 C    0.986
    32   1 H    1.009 --    10 C    0.985
    33   1 H    1.007 --    10 C    0.985
    34   1 H    1.018 --    10 C    0.983
    35   1 H    0.981 --    11 N    0.952
    36   1 H    1.017 --    13 C    0.983
    37   1 H    1.017 --    13 C    0.985
    38   1 H    1.009 --    13 C    0.989
    39   1 H    1.002 --    19 C    0.970
    40   1 H    1.002 --    19 C    0.971
    41   1 H    1.003 --    19 C    0.985
    42   1 H    0.984 --    21 N    0.879
 ---------------------------------------------------------------------------

Topologies differ in total number of bonds
Writing topology from bond orders to xtbtopo.mol

 dipole moment from electron density (au)
     X       Y       Z   
  -5.6717   0.8953  -5.1522  total (Debye):   19.609

           -------------------------------------------------
          |                Geometry Summary                 |
           -------------------------------------------------

      molecular mass/u    :      351.3152409
   center of mass at/Å    :        0.3322391       0.1289480       0.4343486
  moments of inertia/u·Å² :        0.9961898E+03   0.4962232E+04   0.5713391E+04
rotational constants/cm⁻¹ :        0.1692211E-01   0.3397188E-02   0.2950548E-02

 * 33 selected distances

     #   Z          #   Z                                           value/Å
     1   6 C        2   8 O                                       1.4178034
     2   8 O        3   6 C                                       1.3631942
     3   6 C        4   8 O                                       1.2281794
     6   7 N        7   6 C                                       1.2833635
     8   6 C        9   6 C                                       1.5363484
     8   6 C       10   6 C                                       1.5397230 (max)
     8   6 C       11   7 N                                       1.4652353
    15   6 C       16   7 N                                       1.2962889
    17   7 N       18   6 C                                       1.2893712
    18   6 C       19   6 C                                       1.4834823
    15   6 C       20   8 O                                       1.3544878
    18   6 C       20   8 O                                       1.3482211
     7   6 C       21   7 N                                       1.3734043
    21   7 N       22   6 C                                       1.3617105
    22   6 C       23   8 O                                       1.2346197
     5   6 C       24   6 C                                       1.4189568
     1   6 C       26   1 H                                       1.0950201
     1   6 C       27   1 H                                       1.0948739
     1   6 C       28   1 H                                       1.0894661
     9   6 C       29   1 H                                       1.0881426
     9   6 C       30   1 H                                       1.0898000
     9   6 C       31   1 H                                       1.0918924
    10   6 C       32   1 H                                       1.0882110
    10   6 C       33   1 H                                       1.0897467
    10   6 C       34   1 H                                       1.0906869
    11   7 N       35   1 H                                       1.0148237 (min)
    13   6 C       36   1 H                                       1.0880582
    13   6 C       37   1 H                                       1.0889258
    13   6 C       38   1 H                                       1.0881603
    19   6 C       39   1 H                                       1.0896852
    19   6 C       40   1 H                                       1.0895614
    19   6 C       41   1 H                                       1.0872637
    21   7 N       42   1 H                                       1.0196260

 * 5 distinct bonds (by element types)

   Z      Z             #   av. dist./Å        max./Å        min./Å
   1 H    6 C          15     1.0899663     1.0950201     1.0872637
   6 C    6 C           4     1.4946276     1.5397230     1.4189568
   1 H    7 N           2     1.0172249     1.0196260     1.0148237
   6 C    7 N           6     1.3448956     1.4652353     1.2833635
   6 C    8 O           6     1.3244176     1.4178034     1.2281794


optimized geometry written to: xtbopt.xyz


           -------------------------------------------------
          | TOTAL ENERGY              -83.649913333535 Eh   |
          | GRADIENT NORM               0.000647950383 Eh/α |
          | HOMO-LUMO GAP               2.132452859232 eV   |
           -------------------------------------------------

------------------------------------------------------------------------
 * finished run on 2023/06/21 at 17:03:48.244     
------------------------------------------------------------------------
 total:
 * wall-time:     0 d,  0 h,  0 min,  5.627 sec
 *  cpu-time:     0 d,  0 h,  0 min,  5.525 sec
 * ratio c/w:     0.982 speedup
 SCF:
 * wall-time:     0 d,  0 h,  0 min,  0.154 sec
 *  cpu-time:     0 d,  0 h,  0 min,  0.153 sec
 * ratio c/w:     0.994 speedup
 ANC optimizer:
 * wall-time:     0 d,  0 h,  0 min,  5.371 sec
 *  cpu-time:     0 d,  0 h,  0 min,  5.324 sec
 * ratio c/w:     0.991 speedup

