42
 energy: -83.635468262189 gnorm: 0.000752678904 xtb: 6.5.1 (579679a)
C           -1.34476634152512        2.82748982290488       -2.77188355797977
O           -1.26728678115139        1.87999584753399       -1.73264240933634
C           -2.50699921746505        1.26864792194812       -1.39818345784043
O           -3.52168597414937        1.62606170578823       -2.03955583539053
C           -2.40752578255270        0.32679536088700       -0.37800103308899
N           -1.15666808541313        0.01689363659179        0.13339424096271
C           -1.03860395590853       -0.89461418379239        1.04290782461244
C            0.36416173272449       -1.23289262619976        1.54594750499318
C            0.48720191141054       -0.84337251412104        3.02725152362874
C            0.62122148814250       -2.73639276443669        1.36741272748921
N            1.30496238743639       -0.45730086654307        0.74069795989404
C            2.63669343490357       -0.49555338876712        0.84570056905434
O            3.27694116122892       -1.17558406361979        1.64763787862381
C            3.28403629367896        0.40060074548550       -0.14505406739143
N            2.67583502119809        1.16460318719593       -1.00896697835518
N            3.64878754592732        1.80700739598612       -1.72121246104517
C            4.78348832747904        1.39812124522040       -1.25087714059576
C            6.13724513095505        1.80122809934509       -1.69441191702009
O            4.62993989024869        0.51016292256047       -0.25342016451033
N           -2.03256846075053       -1.59525454381956        1.67535591237245
C           -3.28724743023902       -1.36912132431043        1.31513076360803
O           -4.27514193502412       -1.87422539114956        1.90136859311683
C           -3.62026988189788       -0.43410524498779        0.11040926201303
C           -4.22427918050900       -1.31425245729793       -1.00996715955241
O           -4.64560576602788        0.46771506952418        0.57707652961567
H           -1.99019854963894        3.67484051977779       -2.50161616892003
H           -0.33435215569615        3.19906979019537       -2.95726159348835
H           -1.73533338639564        2.38346115385555       -3.69794553006006
H            1.45365903426687       -1.14145275981087        3.43163389957057
H            0.37307996728045        0.23479806027880        3.14215525536198
H           -0.30369700984529       -1.34404952876563        3.58644856844503
H            1.57044710992391       -3.03019823989421        1.81318478473044
H           -0.18663740413828       -3.28584427115113        1.85190603530015
H            0.63458478377294       -2.99033617834543        0.30735646793641
H            0.86698922842454        0.14792190308904        0.04077687837510
H            6.69710559211624        0.92988870700167       -2.03226367910263
H            6.05460104453427        2.51690677210930       -2.50800805379470
H            6.68519543326677        2.25327753441026       -0.86797184824426
H           -3.46426650481669       -1.99126899485362       -1.40117302963873
H           -4.59348738869161       -0.68338711598663       -1.81908555018214
H           -5.05338494781111       -1.90085048679550       -0.61273271095691
H           -5.19616737926107       -0.04543145703231        1.19013016678425
