38
 energy: -79.622790069532 gnorm: 0.000957571551 xtb: 6.5.1 (579679a)
C           -6.18005112953682       -0.29097211642846        1.95767665473980
O           -5.02388664985662        0.40743103430413        1.51912301459255
C           -4.04688200981410       -0.35539480354393        0.96612187933050
O           -4.18271170349311       -1.57035690521027        0.87392960663002
C           -2.88042283331542        0.38521629391304        0.50992734330175
N           -1.92722935950997       -0.43014867077612       -0.07248575841554
C           -0.84134826829438        0.06048277017096       -0.53802725331049
C            0.16772000692325       -0.82788027367011       -1.23574865827382
C           -0.13395872843520       -2.29748242245310       -0.92607618066092
C            0.10408106432566       -0.55638410035479       -2.74683094983378
N            1.50458917720604       -0.47849874439588       -0.72658737092848
C            2.63836811682274       -1.04446150137354       -1.17577109761578
O            2.71648914687110       -1.88584272009972       -2.05814732394566
C            3.85357198328505       -0.53309167862838       -0.48578691221552
N            5.08570607665511       -0.86827538205664       -0.71361483888938
N            5.85653645731119       -0.14593121767495        0.14959763218351
C            5.04691158563334        0.58517644022699        0.84982121421756
C            5.39363892480806        1.54849661824643        1.91741479308067
O            3.76494908366528        0.38818443318956        0.49834527122715
N           -0.57269022958579        1.41580516034619       -0.49297800710663
C           -1.42501884694979        2.33972853258743        0.05907718982269
O           -1.11400477144030        3.52771306103745        0.06430195031095
C           -2.71865402625409        1.79096022006799        0.62265277376736
O           -3.52857986754862        2.58836337687880        1.12929664553732
H           -5.92420518006757       -1.01320838347234        2.73952756591154
H           -6.64912905922985       -0.82601062309519        1.12550990673585
H           -6.87176031371411        0.45154129278415        2.35422910940229
H           -0.03764159406221       -2.47819124992955        0.14370493965671
H            0.55304919277398       -2.94796286406042       -1.46342966121166
H           -1.15534577225046       -2.52507472558495       -1.22925333067539
H           -0.91471476640224       -0.71706660060427       -3.09729047908439
H            0.77215376361040       -1.22450513465660       -3.28657583472468
H            0.39110093152827        0.47340335810308       -2.95241972614093
H            1.56649533385424        0.16339532453354        0.04708094241005
H            4.85656797855286        1.30183708728423        2.83277022502274
H            6.46467514996675        1.51768971546688        2.10122631466598
H            5.10561307023886        2.55633335316379        1.61783152311529
H            0.28601806573136        1.77071004576352       -0.87814511262994
