17
 energy: -27.463373982423 gnorm: 0.000215698080 xtb: 6.5.1 (579679a)
N           -2.47917737988835       -0.46528655671543       -0.81071736042966
C           -1.81605375631783       -0.01809247276479        0.41465915217692
C           -0.31781066326050        0.02951697212861        0.22948013610761
C            0.31205090565791       -0.87977985849704       -0.61840931675700
C            1.68996448344853       -0.86495793506478       -0.77855455272479
C            2.42046336586310        0.07443247780744       -0.07331269486385
F            3.75778282275421        0.09722487383015       -0.22202771599957
C            1.83117057857244        0.99275405166883        0.77597836975224
C            0.45041833379729        0.96271476343466        0.92181082291884
H           -2.47498319971578        0.29187229790090       -1.48104125102124
H           -3.44421657081314       -0.66924346436495       -0.59482262522373
H           -2.18777453576588        0.96499938717880        0.73785906215263
H           -2.04987708161867       -0.73970193977244        1.20658616635996
H           -0.28920077012634       -1.60089922708168       -1.16172595654551
H            2.19021102672202       -1.56555354339017       -1.43483197746500
H            2.43780264621390        1.71445145578169        1.30741513121657
H           -0.03077020552259        1.67554871792031        1.58165461034571
