      -----------------------------------------------------------      
     |                   =====================                   |     
     |                           x T B                           |     
     |                   =====================                   |     
     |                         S. Grimme                         |     
     |          Mulliken Center for Theoretical Chemistry        |     
     |                    University of Bonn                     |     
      -----------------------------------------------------------      

   * xtb version 6.5.1 (579679a) compiled by 'ehlert@majestix' on 2022-07-11

   xtb is free software: you can redistribute it and/or modify it under
   the terms of the GNU Lesser General Public License as published by
   the Free Software Foundation, either version 3 of the License, or
   (at your option) any later version.
   
   xtb is distributed in the hope that it will be useful,
   but WITHOUT ANY WARRANTY; without even the implied warranty of
   MERCHANTABILITY or FITNESS FOR A PARTICULAR PURPOSE.  See the
   GNU Lesser General Public License for more details.
   
   Cite this work as:
   * C. Bannwarth, E. Caldeweyher, S. Ehlert, A. Hansen, P. Pracht,
     J. Seibert, S. Spicher, S. Grimme, WIREs Comput. Mol. Sci., 2020, 11,
     e01493. DOI: 10.1002/wcms.1493
   
   for GFN2-xTB:
   * C. Bannwarth, S. Ehlert and S. Grimme., J. Chem. Theory Comput., 2019,
     15, 1652-1671. DOI: 10.1021/acs.jctc.8b01176
   for GFN1-xTB:
   * S. Grimme, C. Bannwarth, P. Shushkov, J. Chem. Theory Comput., 2017,
     13, 1989-2009. DOI: 10.1021/acs.jctc.7b00118
   for GFN0-xTB:
   * P. Pracht, E. Caldeweyher, S. Ehlert, S. Grimme, ChemRxiv, 2019, preprint.
     DOI: 10.26434/chemrxiv.8326202.v1
   for GFN-FF:
   * S. Spicher and S. Grimme, Angew. Chem. Int. Ed., 2020, 59, 15665-15673.
     DOI: 10.1002/anie.202004239
   
   for ALPB and GBSA implicit solvation:
   * S. Ehlert, M. Stahn, S. Spicher, S. Grimme, J. Chem. Theory Comput.,
     2021, 17, 4250-4261. DOI: 10.1021/acs.jctc.1c00471
   
   for DFT-D4:
   * E. Caldeweyher, C. Bannwarth and S. Grimme, J. Chem. Phys., 2017,
     147, 034112. DOI: 10.1063/1.4993215
   * E. Caldeweyher, S. Ehlert, A. Hansen, H. Neugebauer, S. Spicher,
     C. Bannwarth and S. Grimme, J. Chem. Phys., 2019, 150, 154122.
     DOI: 10.1063/1.5090222
   * E. Caldeweyher, J.-M. Mewes, S. Ehlert and S. Grimme, Phys. Chem. Chem. Phys.
     2020, 22, 8499-8512. DOI: 10.1039/D0CP00502A
   
   for sTDA-xTB:
   * S. Grimme and C. Bannwarth, J. Chem. Phys., 2016, 145, 054103.
     DOI: 10.1063/1.4959605
   
   in the mass-spec context:
   * V. Asgeirsson, C. Bauer and S. Grimme, Chem. Sci., 2017, 8, 4879.
     DOI: 10.1039/c7sc00601b
   * J. Koopman and S. Grimme, ACS Omega 2019, 4, 12, 15120-15133.
     DOI: 10.1021/acsomega.9b02011
   
   for metadynamics refer to:
   * S. Grimme, J. Chem. Theory Comput., 2019, 155, 2847-2862
     DOI: 10.1021/acs.jctc.9b00143
   
   for SPH calculations refer to:
   * S. Spicher and S. Grimme, J. Chem. Theory Comput., 2021, 17, 1701-1714
     DOI: 10.1021/acs.jctc.0c01306
   
   with help from (in alphabetical order)
   P. Atkinson, C. Bannwarth, F. Bohle, G. Brandenburg, E. Caldeweyher
   M. Checinski, S. Dohm, S. Ehlert, S. Ehrlich, I. Gerasimov, C. Hölzer
   A. Katbashev, J. Koopman, C. Lavigne, S. Lehtola, F. März, M. Müller,
   F. Musil, H. Neugebauer, J. Pisarek, C. Plett, P. Pracht, F. Pultar,
   J. Seibert, P. Shushkov, S. Spicher, M. Stahn, M. Steiner, T. Strunk,
   J. Stückrath, T. Rose, and J. Unsleber
   
 * started run on 2023/06/21 at 17:53:26.728     

           -------------------------------------------------
          |                Calculation Setup                |
           -------------------------------------------------

          program call               : /lustre/hpc/kemi/ree/PhD/git/ReactivityQM/dep/xtb-6.5.1/bin/xtb --gfn 1 /lustre/hpc/kemi/ree/PhD/git/ReactivityQM/calculations/R02methylcation/reac01prodN14/conf17/R02methylcation_reac01prodN14_conf17_gfn1.xyz --opt --vfukui --chrg 0 --uhf 0 --alpb DMSO
          hostname                   : node317
          coordinate file            : /lustre/hpc/kemi/ree/PhD/git/ReactivityQM/calculations/R02methylcation/reac01prodN14/conf17/R02methylcation_reac01prodN14_conf17_gfn1.xyz
          omp threads                :                     1

   ID    Z sym.   atoms
    1    6 C      1, 3, 5, 6, 8, 9, 12-15, 17, 19, 22, 23
    2    8 O      2, 4, 7, 10, 18, 24
    3    7 N      11, 16, 20, 21, 25
    4    1 H      26-42

           -------------------------------------------------
          |                 G F N 1 - x T B                 |
           -------------------------------------------------

        Reference                      10.1021/acs.jctc.7b00118
      * Hamiltonian:
        H0-scaling (s, p, d)           1.850000    2.250000    2.000000
        zeta-weighting                 0.000000
      * Dispersion:
        s8                             2.400000
        a1                             0.630000
        a2                             5.000000
        s9                             0.000000
      * Repulsion:
        kExp                           1.500000
        rExp                           1.000000
      * Coulomb:
        alpha                          2.000000
        third order                    atomic
        anisotropic                    false
      * Halogen bond correction:
        rad-scale                      1.300000
        damping                        0.440000

      * Solvation model:               ALPB
        Solvent                        DMSO
        Parameter file                 internal GFN1-xTB/ALPB
        Dielectric constant                4.6680E+01
        Reference state                gsolv [1 M gas/solution]
        Free energy shift                  7.6243E-03 Eh       4.7843E+00 kcal/mol
        Temperature                        2.9815E+02 K
        Density                            1.1000E+00 kg/L
        Solvent mass                       7.8130E+01 g/mol
        Interaction kernel             P16
        Born radius scaling (c1)           1.7672E+00
        Born radii integrator          GBOBC
        Born offset                        0.0000E+00 a0       0.0000E+00 AA
        H-bond correction              true
        Ion screening                  false
        Surface tension                    1.0000E-05 Eh       1.5569E+01 dyn/cm
        Grid points                               230 per atom

          ...................................................
          :                      SETUP                      :
          :.................................................:
          :  # basis functions                 134          :
          :  # atomic orbitals                 134          :
          :  # shells                           84          :
          :  # electrons                       134          :
          :  # halogen bonds                     0          :
          :  max. iterations                   250          :
          :  Hamiltonian                  GFN1-xTB          :
          :  restarted?                      false          :
          :  GBSA solvation                   true          :
          :  PC potential                    false          :
          :  electronic temp.          300.0000000     K    :
          :  accuracy                    1.0000000          :
          :  -> integral cutoff          0.2500000E+02      :
          :  -> integral neglect         0.1000000E-07      :
          :  -> SCF convergence          0.1000000E-05 Eh   :
          :  -> wf. convergence          0.2000000E-04 e    :
          :  Broyden damping             0.4000000          :
          ...................................................

 iter      E             dE          RMSdq      gap      omega  full diag
   1    -83.2060190 -0.832060E+02  0.845E+00    0.90       0.0  T
   2    -83.4117817 -0.205763E+00  0.538E+00    0.36       1.0  T
   3    -83.4210030 -0.922131E-02  0.292E+00    0.94       1.0  T
   4    -83.5941782 -0.173175E+00  0.112E+00    0.77       1.0  T
   5    -83.6344053 -0.402271E-01  0.419E-01    0.19       1.0  T
   6    -83.3748131  0.259592E+00  0.184E+00    0.37       1.0  T
   7    -83.6403666 -0.265554E+00  0.316E-01    0.17       1.0  T
   8    -83.6463929 -0.602628E-02  0.105E-01    0.13       1.0  T
   9    -83.6376132  0.877974E-02  0.343E-01    0.18       1.0  T
  10    -83.6467363 -0.912315E-02  0.540E-02    0.12       1.0  T
  11    -83.6469652 -0.228919E-03  0.288E-02    0.12       1.0  T
  12    -83.6469449  0.202868E-04  0.271E-02    0.12       1.0  T
  13    -83.6469956 -0.506560E-04  0.124E-02    0.12       1.2  T
  14    -83.6470002 -0.463602E-05  0.975E-03    0.12       1.6  T
  15    -83.6470078 -0.754273E-05  0.275E-03    0.12       5.6  T
  16    -83.6470084 -0.588990E-06  0.772E-04    0.12      20.0  T
  17    -83.6470084 -0.417496E-07  0.317E-04    0.12      48.7  T
  18    -83.6470084 -0.768836E-08  0.324E-05    0.12     476.1  T
  19    -83.6470084 -0.413252E-10  0.108E-05    0.12    1425.0  T

   *** convergence criteria satisfied after 19 iterations ***

         #    Occupation            Energy/Eh            Energy/eV
      -------------------------------------------------------------
         1        2.0000           -0.8671717             -23.5969
       ...           ...                  ...                  ...
        61        2.0000           -0.4752497             -12.9322
        62        2.0000           -0.4680981             -12.7376
        63        2.0000           -0.4638031             -12.6207
        64        2.0000           -0.4493938             -12.2286
        65        2.0000           -0.4476469             -12.1811
        66        2.0000           -0.4431939             -12.0599
        67        1.8159           -0.4208003             -11.4506 (HOMO)
        68        0.1841           -0.4164513             -11.3322 (LUMO)
        69                         -0.3220306              -8.7629
        70                         -0.3138337              -8.5398
        71                         -0.2983811              -8.1194
        72                         -0.2615894              -7.1182
       ...                                ...                  ...
       134                          0.6861149              18.6701
      -------------------------------------------------------------
                  HL-Gap            0.0043490 Eh            0.1183 eV
             Fermi-level           -0.4186258 Eh          -11.3914 eV

 SCC (total)                   0 d,  0 h,  0 min,  0.193 sec
 SCC setup                      ...        0 min,  0.002 sec (  1.167%)
 Dispersion                     ...        0 min,  0.000 sec (  0.222%)
 classical contributions        ...        0 min,  0.000 sec (  0.071%)
 integral evaluation            ...        0 min,  0.036 sec ( 18.855%)
 iterations                     ...        0 min,  0.068 sec ( 35.259%)
 molecular gradient             ...        0 min,  0.085 sec ( 43.858%)
 printout                       ...        0 min,  0.001 sec (  0.537%)

         :::::::::::::::::::::::::::::::::::::::::::::::::::::
         ::                     SUMMARY                     ::
         :::::::::::::::::::::::::::::::::::::::::::::::::::::
         :: total energy             -82.899279133793 Eh    ::
         :: total w/o Gsasa/hb       -82.878664469311 Eh    ::
         :: gradient norm              0.138820674599 Eh/a0 ::
         :: HOMO-LUMO gap              0.118341298518 eV    ::
         ::.................................................::
         :: SCC energy               -83.647008419960 Eh    ::
         :: -> electrostatic           0.389104854502 Eh    ::
         :: -> Gsolv                  -0.066947287406 Eh    ::
         ::    -> Gelec               -0.046332622924 Eh    ::
         ::    -> Gsasa               -0.024199038209 Eh    ::
         ::    -> Ghb                 -0.004039905278 Eh    ::
         ::    -> Gshift               0.007624279005 Eh    ::
         :: repulsion energy           0.773682444850 Eh    ::
         :: dispersion energy         -0.025953158682 Eh    ::
         :: halogen bond corr.         0.000000000000 Eh    ::
         :: add. restraining           0.000000000000 Eh    ::
         :: total charge               0.000000000012 e     ::
         :::::::::::::::::::::::::::::::::::::::::::::::::::::

      ----------------------------------------------------------- 
     |                   =====================                   |
     |                        A N C O P T                        |
     |                   =====================                   |
     |               Approximate Normal Coordinate               |
     |                Rational Function Optimizer                |
      ----------------------------------------------------------- 

          ...................................................
          :                      SETUP                      :
          :.................................................:
          :   optimization level            normal          :
          :   max. optcycles                   200          :
          :   ANC micro-cycles                  20          :
          :   degrees of freedom               120          :
          :.................................................:
          :   RF solver                   davidson          :
          :   write xtbopt.log                true          :
          :   linear?                        false          :
          :   energy convergence         0.5000000E-05 Eh   :
          :   grad. convergence          0.1000000E-02 Eh/α :
          :   maximium RF displ.         1.0000000          :
          :   Hlow (freq-cutoff)         0.1000000E-01      :
          :   Hmax (freq-cutoff)         5.0000000          :
          :   S6 in model hess.         20.0000000          :
          ...................................................

generating ANC from model Hessian ...
Using Lindh-Hessian (1995)
 Shifting diagonal of input Hessian by   9.797940084187166E-003
 Lowest  eigenvalues of input Hessian
    0.000000    0.000000    0.000000    0.000000    0.000000    0.000000
    0.010000    0.010011    0.010896    0.011242    0.011737    0.012227
    0.012598    0.013880    0.014301    0.015998    0.016604    0.017629
 Highest eigenvalues
    1.967488    2.138999    2.147955    2.187643    2.331531    2.346904
 

........................................................................
.............................. CYCLE    1 ..............................
........................................................................
   1    -83.6470084 -0.836470E+02  0.197E-06    0.12       0.0  T
   2    -83.6470084  0.236184E-10  0.168E-05    0.12     920.0  T
   3    -83.6470084 -0.239737E-10  0.544E-07    0.12   28349.7  T
     SCC iter.                  ...        0 min,  0.012 sec
     gradient                   ...        0 min,  0.083 sec
 * total energy  :   -82.8992791 Eh     change       -0.7688072E-11 Eh
   gradient norm :     0.1388205 Eh/α   predicted     0.0000000E+00 (-100.00%)
   displ. norm   :     0.3430421 α      lambda       -0.2069935E-01
   maximum displ.:     0.1209033 α      in ANC's #22, #26, #25, ...

........................................................................
.............................. CYCLE    2 ..............................
........................................................................
   1    -83.6745052 -0.836745E+02  0.111E-01    0.29       0.0  T
   2    -83.6688564  0.564877E-02  0.268E-01    0.25       1.0  T
   3    -83.6738140 -0.495757E-02  0.128E-01    0.30       1.0  T
   4    -83.6749526 -0.113859E-02  0.446E-02    0.29       1.0  T
   5    -83.6750716 -0.119050E-03  0.456E-03    0.28       3.4  T
   6    -83.6750704  0.123740E-05  0.471E-03    0.28       3.3  T
   7    -83.6750723 -0.190830E-05  0.635E-04    0.28      24.3  T
   8    -83.6750723 -0.281124E-07  0.147E-04    0.28     104.9  T
   9    -83.6750723 -0.940204E-09  0.260E-05    0.28     592.6  T
     SCC iter.                  ...        0 min,  0.031 sec
     gradient                   ...        0 min,  0.083 sec
 * total energy  :   -82.9154397 Eh     change       -0.1616057E-01 Eh
   gradient norm :     0.0840968 Eh/α   predicted    -0.1159090E-01 ( -28.28%)
   displ. norm   :     0.4642072 α      lambda       -0.1668263E-01
   maximum displ.:     0.1672830 α      in ANC's #22, #19, #25, ...

........................................................................
.............................. CYCLE    3 ..............................
........................................................................
   1    -83.7015476 -0.837015E+02  0.140E-01    0.50       0.0  T
   2    -83.6998084  0.173911E-02  0.207E-01    0.60       1.0  T
   3    -83.7030016 -0.319312E-02  0.370E-02    0.53       1.0  T
   4    -83.7029724  0.292066E-04  0.325E-02    0.54       1.0  T
   5    -83.7030079 -0.355245E-04  0.849E-03    0.53       1.8  T
   6    -83.7030135 -0.563557E-05  0.157E-03    0.53       9.8  T
   7    -83.7030136 -0.388314E-07  0.752E-04    0.53      20.5  T
   8    -83.7030136 -0.398070E-07  0.233E-04    0.53      66.3  T
   9    -83.7030136 -0.343034E-08  0.473E-05    0.53     326.0  T
  10    -83.7030136 -0.788134E-10  0.982E-06    0.53    1571.6  T
     SCC iter.                  ...        0 min,  0.035 sec
     gradient                   ...        0 min,  0.083 sec
 * total energy  :   -82.9251739 Eh     change       -0.9734222E-02 Eh
   gradient norm :     0.0264490 Eh/α   predicted    -0.1013877E-01 (   4.16%)
   displ. norm   :     0.3389058 α      lambda       -0.3018789E-02
   maximum displ.:     0.1521877 α      in ANC's #19, #17, #6, ...

........................................................................
.............................. CYCLE    4 ..............................
........................................................................
   1    -83.7021381 -0.837021E+02  0.829E-02    0.59       0.0  T
   2    -83.7013467  0.791444E-03  0.131E-01    0.65       1.0  T
   3    -83.7027357 -0.138897E-02  0.160E-02    0.61       1.0  T
   4    -83.7027361 -0.468156E-06  0.112E-02    0.61       1.4  T
   5    -83.7027403 -0.418141E-05  0.185E-03    0.61       8.3  T
   6    -83.7027406 -0.309796E-06  0.232E-04    0.61      66.6  T
   7    -83.7027406 -0.969607E-09  0.100E-04    0.61     153.7  T
   8    -83.7027406 -0.372140E-09  0.281E-05    0.61     549.8  T
     SCC iter.                  ...        0 min,  0.028 sec
     gradient                   ...        0 min,  0.083 sec
 * total energy  :   -82.9275704 Eh     change       -0.2396516E-02 Eh
   gradient norm :     0.0197202 Eh/α   predicted    -0.1684861E-02 ( -29.70%)
   displ. norm   :     0.5354619 α      lambda       -0.3279873E-02
   maximum displ.:     0.2408388 α      in ANC's #19, #6, #13, ...

........................................................................
.............................. CYCLE    5 ..............................
........................................................................
   1    -83.6983324 -0.836983E+02  0.110E-01    0.67       0.0  T
   2    -83.6975775  0.754916E-03  0.143E-01    0.74       1.0  T
   3    -83.6992694 -0.169188E-02  0.132E-02    0.70       1.2  T
   4    -83.6992692  0.144348E-06  0.897E-03    0.70       1.7  T
   5    -83.6992710 -0.171037E-05  0.224E-03    0.69       6.9  T
   6    -83.6992714 -0.417064E-06  0.277E-04    0.70      55.8  T
   7    -83.6992714 -0.113718E-08  0.103E-04    0.70     149.9  T
   8    -83.6992714 -0.502212E-09  0.375E-05    0.70     411.5  T
     SCC iter.                  ...        0 min,  0.028 sec
     gradient                   ...        0 min,  0.083 sec
 * total energy  :   -82.9299249 Eh     change       -0.2354447E-02 Eh
   gradient norm :     0.0246707 Eh/α   predicted    -0.2110115E-02 ( -10.38%)
   displ. norm   :     0.4586632 α      lambda       -0.1933846E-02
   maximum displ.:     0.1822782 α      in ANC's #19, #8, #6, ...

........................................................................
.............................. CYCLE    6 ..............................
........................................................................
   1    -83.7003768 -0.837004E+02  0.749E-02    0.73       0.0  T
   2    -83.7001050  0.271721E-03  0.864E-02    0.77       1.0  T
   3    -83.7007551 -0.650076E-03  0.103E-02    0.75       1.5  T
   4    -83.7007603 -0.521902E-05  0.369E-03    0.75       4.2  T
   5    -83.7007603  0.633150E-07  0.143E-03    0.75      10.8  T
   6    -83.7007604 -0.866465E-07  0.201E-04    0.75      76.7  T
   7    -83.7007604 -0.117592E-08  0.843E-05    0.75     183.0  T
   8    -83.7007604 -0.368743E-09  0.297E-05    0.75     519.2  T
     SCC iter.                  ...        0 min,  0.028 sec
     gradient                   ...        0 min,  0.083 sec
 * total energy  :   -82.9314222 Eh     change       -0.1497290E-02 Eh
   gradient norm :     0.0234835 Eh/α   predicted    -0.1170340E-02 ( -21.84%)
   displ. norm   :     0.4901044 α      lambda       -0.1976553E-02
   maximum displ.:     0.2195135 α      in ANC's #8, #6, #13, ...

........................................................................
.............................. CYCLE    7 ..............................
........................................................................
   1    -83.7079077 -0.837079E+02  0.643E-02    0.77       0.0  T
   2    -83.7077525  0.155216E-03  0.657E-02    0.80       1.0  T
   3    -83.7081419 -0.389475E-03  0.156E-02    0.78       1.0  T
   4    -83.7081521 -0.102062E-04  0.646E-03    0.78       2.4  T
   5    -83.7081526 -0.482903E-06  0.162E-03    0.78       9.5  T
   6    -83.7081527 -0.975150E-07  0.198E-04    0.78      77.7  T
   7    -83.7081527 -0.124263E-08  0.712E-05    0.78     216.7  T
     SCC iter.                  ...        0 min,  0.025 sec
     gradient                   ...        0 min,  0.084 sec
 * total energy  :   -82.9329526 Eh     change       -0.1530407E-02 Eh
   gradient norm :     0.0150415 Eh/α   predicted    -0.1225660E-02 ( -19.91%)
   displ. norm   :     0.5334302 α      lambda       -0.1597310E-02
   maximum displ.:     0.2643440 α      in ANC's #8, #3, #6, ...

........................................................................
.............................. CYCLE    8 ..............................
........................................................................
   1    -83.7132597 -0.837133E+02  0.471E-02    0.83       0.0  T
   2    -83.7131906  0.690219E-04  0.465E-02    0.84       1.0  T
   3    -83.7133904 -0.199787E-03  0.118E-02    0.83       1.3  T
   4    -83.7133959 -0.550934E-05  0.504E-03    0.83       3.1  T
   5    -83.7133963 -0.383387E-06  0.142E-03    0.83      10.9  T
   6    -83.7133964 -0.664970E-07  0.175E-04    0.83      88.2  T
   7    -83.7133964 -0.867544E-09  0.560E-05    0.83     275.7  T
     SCC iter.                  ...        0 min,  0.025 sec
     gradient                   ...        0 min,  0.084 sec
 * total energy  :   -82.9342099 Eh     change       -0.1257319E-02 Eh
   gradient norm :     0.0133330 Eh/α   predicted    -0.1025904E-02 ( -18.41%)
   displ. norm   :     0.5468499 α      lambda       -0.1317734E-02
   maximum displ.:     0.2774171 α      in ANC's #8, #3, #6, ...

........................................................................
.............................. CYCLE    9 ..............................
........................................................................
   1    -83.7173183 -0.837173E+02  0.345E-02    0.88       0.0  T
   2    -83.7173008  0.175747E-04  0.296E-02    0.89       1.0  T
   3    -83.7173809 -0.800957E-04  0.113E-02    0.88       1.4  T
   4    -83.7173858 -0.497188E-05  0.455E-03    0.88       3.4  T
   5    -83.7173862 -0.328735E-06  0.111E-03    0.88      13.9  T
   6    -83.7173862 -0.319787E-07  0.135E-04    0.88     114.0  T
   7    -83.7173862 -0.524238E-09  0.462E-05    0.88     333.7  T
     SCC iter.                  ...        0 min,  0.025 sec
     gradient                   ...        0 min,  0.084 sec
 * total energy  :   -82.9352541 Eh     change       -0.1044162E-02 Eh
   gradient norm :     0.0131616 Eh/α   predicted    -0.8559000E-03 ( -18.03%)
   displ. norm   :     0.5854258 α      lambda       -0.1178295E-02
   maximum displ.:     0.3245572 α      in ANC's #3, #8, #13, ...

........................................................................
.............................. CYCLE   10 ..............................
........................................................................
   1    -83.7190284 -0.837190E+02  0.317E-02    0.94       0.0  T
   2    -83.7190494 -0.209433E-04  0.184E-02    0.94       1.0  T
   3    -83.7190699 -0.205048E-04  0.126E-02    0.94       1.2  T
   4    -83.7190778 -0.792203E-05  0.452E-03    0.94       3.4  T
   5    -83.7190779 -0.451500E-07  0.102E-03    0.94      15.2  T
   6    -83.7190779 -0.205854E-07  0.185E-04    0.94      83.4  T
   7    -83.7190779 -0.793818E-09  0.484E-05    0.94     318.6  T
     SCC iter.                  ...        0 min,  0.025 sec
     gradient                   ...        0 min,  0.084 sec
 * total energy  :   -82.9361159 Eh     change       -0.8618000E-03 Eh
   gradient norm :     0.0155613 Eh/α   predicted    -0.7910579E-03 (  -8.21%)
   displ. norm   :     0.5723091 α      lambda       -0.1127514E-02
   maximum displ.:     0.3240100 α      in ANC's #3, #8, #21, ...

........................................................................
.............................. CYCLE   11 ..............................
........................................................................
   1    -83.7186915 -0.837187E+02  0.342E-02    0.99       0.0  T
   2    -83.7187250 -0.335373E-04  0.231E-02    0.99       1.0  T
   3    -83.7187562 -0.312560E-04  0.127E-02    0.98       1.2  T
   4    -83.7187630 -0.671490E-05  0.561E-03    0.99       2.7  T
   5    -83.7187631 -0.938084E-07  0.129E-03    0.98      12.0  T
   6    -83.7187631 -0.221262E-07  0.271E-04    0.98      57.0  T
   7    -83.7187631 -0.260357E-08  0.799E-05    0.98     193.2  T
   8    -83.7187631 -0.109011E-09  0.266E-05    0.98     581.1  T
     SCC iter.                  ...        0 min,  0.032 sec
     gradient                   ...        0 min,  0.074 sec
 * total energy  :   -82.9367569 Eh     change       -0.6410706E-03 Eh
   gradient norm :     0.0176119 Eh/α   predicted    -0.7484060E-03 (  16.74%)
   displ. norm   :     0.4039793 α      lambda       -0.9253741E-03
   maximum displ.:     0.3148014 α      in ANC's #3, #8, #13, ...

........................................................................
.............................. CYCLE   12 ..............................
........................................................................
   1    -83.7274083 -0.837274E+02  0.287E-02    1.02       0.0  T
   2    -83.7274370 -0.286892E-04  0.147E-02    1.01       1.1  T
   3    -83.7274384 -0.146233E-05  0.845E-03    1.01       1.8  T
   4    -83.7274366  0.184157E-05  0.526E-03    1.01       2.9  T
   5    -83.7274387 -0.213398E-05  0.109E-03    1.01      14.1  T
   6    -83.7274388 -0.607560E-07  0.112E-04    1.01     138.3  T
   7    -83.7274388 -0.568619E-09  0.340E-05    1.01     453.8  T
     SCC iter.                  ...        0 min,  0.024 sec
     gradient                   ...        0 min,  0.080 sec
 * total energy  :   -82.9372307 Eh     change       -0.4738065E-03 Eh
   gradient norm :     0.0178079 Eh/α   predicted    -0.5382034E-03 (  13.59%)
   displ. norm   :     0.5197980 α      lambda       -0.1100823E-02
   maximum displ.:     0.3669548 α      in ANC's #3, #8, #19, ...

........................................................................
.............................. CYCLE   13 ..............................
........................................................................
   1    -83.7140048 -0.837140E+02  0.451E-02    1.06       0.0  T
   2    -83.7140593 -0.544902E-04  0.208E-02    1.06       1.0  T
   3    -83.7140727 -0.134348E-04  0.138E-02    1.05       1.1  T
   4    -83.7140808 -0.812911E-05  0.629E-03    1.06       2.5  T
   5    -83.7140814 -0.536158E-06  0.982E-04    1.06      15.7  T
   6    -83.7140814 -0.275387E-07  0.231E-04    1.06      66.7  T
   7    -83.7140814 -0.154328E-08  0.764E-05    1.06     201.9  T
   8    -83.7140814 -0.960512E-10  0.244E-05    1.06     632.4  T
     SCC iter.                  ...        0 min,  0.030 sec
     gradient                   ...        0 min,  0.082 sec
 * total energy  :   -82.9375615 Eh     change       -0.3307219E-03 Eh
   gradient norm :     0.0265343 Eh/α   predicted    -0.6991287E-03 ( 111.39%)
   displ. norm   :     0.2069662 α      lambda       -0.1048391E-02
   maximum displ.:     0.0942182 α      in ANC's #5, #6, #7, ...

........................................................................
.............................. CYCLE   14 ..............................
........................................................................
   1    -83.7232898 -0.837233E+02  0.282E-02    1.06       0.0  T
   2    -83.7232830  0.681113E-05  0.327E-02    1.07       1.0  T
   3    -83.7233549 -0.718904E-04  0.829E-03    1.06       1.9  T
   4    -83.7233546  0.322061E-06  0.492E-03    1.06       3.1  T
   5    -83.7233552 -0.569157E-06  0.398E-04    1.06      38.7  T
   6    -83.7233552 -0.519825E-08  0.998E-05    1.06     154.7  T
   7    -83.7233552 -0.261650E-09  0.339E-05    1.06     455.4  T
     SCC iter.                  ...        0 min,  0.026 sec
     gradient                   ...        0 min,  0.080 sec
 * total energy  :   -82.9381418 Eh     change       -0.5803033E-03 Eh
   gradient norm :     0.0196471 Eh/α   predicted    -0.5466527E-03 (  -5.80%)
   displ. norm   :     0.3373457 α      lambda       -0.9453500E-03
   maximum displ.:     0.2339605 α      in ANC's #3, #6, #8, ...

........................................................................
.............................. CYCLE   15 ..............................
........................................................................
   1    -83.7257848 -0.837258E+02  0.332E-02    1.07       0.0  T
   2    -83.7258089 -0.241051E-04  0.219E-02    1.07       1.0  T
   3    -83.7258403 -0.313928E-04  0.103E-02    1.07       1.5  T
   4    -83.7258446 -0.431904E-05  0.434E-03    1.07       3.6  T
   5    -83.7258446 -0.202489E-07  0.824E-04    1.07      18.7  T
   6    -83.7258446 -0.121397E-07  0.238E-04    1.07      64.9  T
   7    -83.7258446 -0.122391E-08  0.680E-05    1.07     226.9  T
   8    -83.7258446 -0.644746E-10  0.178E-05    1.07     868.5  T
     SCC iter.                  ...        0 min,  0.029 sec
     gradient                   ...        0 min,  0.082 sec
 * total energy  :   -82.9386069 Eh     change       -0.4651008E-03 Eh
   gradient norm :     0.0151206 Eh/α   predicted    -0.5264755E-03 (  13.20%)
   displ. norm   :     0.3972426 α      lambda       -0.6689175E-03
   maximum displ.:     0.3003841 α      in ANC's #3, #6, #12, ...

........................................................................
.............................. CYCLE   16 ..............................
........................................................................
   1    -83.7246885 -0.837247E+02  0.261E-02    1.08       0.0  T
   2    -83.7246891 -0.659909E-06  0.226E-02    1.09       1.0  T
   3    -83.7247279 -0.387695E-04  0.618E-03    1.08       2.5  T
   4    -83.7247288 -0.932892E-06  0.282E-03    1.09       5.5  T
   5    -83.7247289 -0.764613E-07  0.396E-04    1.08      38.9  T
   6    -83.7247289 -0.322841E-08  0.148E-04    1.08     104.0  T
   7    -83.7247289 -0.238302E-09  0.482E-05    1.08     319.9  T
     SCC iter.                  ...        0 min,  0.025 sec
     gradient                   ...        0 min,  0.082 sec
 * total energy  :   -82.9391077 Eh     change       -0.5008228E-03 Eh
   gradient norm :     0.0104402 Eh/α   predicted    -0.3872426E-03 ( -22.68%)
   displ. norm   :     0.4260138 α      lambda       -0.6463075E-03
   maximum displ.:     0.2331283 α      in ANC's #3, #6, #7, ...

........................................................................
.............................. CYCLE   17 ..............................
........................................................................
   1    -83.7238021 -0.837238E+02  0.412E-02    1.10       0.0  T
   2    -83.7238225 -0.203566E-04  0.362E-02    1.11       1.0  T
   3    -83.7239243 -0.101801E-03  0.645E-03    1.10       2.4  T
   4    -83.7239259 -0.164846E-05  0.355E-03    1.10       4.4  T
   5    -83.7239261 -0.117814E-06  0.808E-04    1.10      19.1  T
   6    -83.7239261 -0.132497E-07  0.216E-04    1.10      71.4  T
   7    -83.7239261 -0.780901E-09  0.696E-05    1.10     221.7  T
   8    -83.7239261 -0.652989E-10  0.205E-05    1.10     752.6  T
     SCC iter.                  ...        0 min,  0.030 sec
     gradient                   ...        0 min,  0.084 sec
 * total energy  :   -82.9394912 Eh     change       -0.3834975E-03 Eh
   gradient norm :     0.0128805 Eh/α   predicted    -0.3818078E-03 (  -0.44%)
   displ. norm   :     0.3274562 α      lambda       -0.4351455E-03
   maximum displ.:     0.1636884 α      in ANC's #3, #6, #7, ...

........................................................................
.............................. CYCLE   18 ..............................
........................................................................
   1    -83.7230347 -0.837230E+02  0.239E-02    1.12       0.0  T
   2    -83.7230440 -0.934826E-05  0.172E-02    1.12       1.0  T
   3    -83.7230651 -0.210849E-04  0.682E-03    1.12       2.3  T
   4    -83.7230667 -0.156611E-05  0.309E-03    1.12       5.0  T
   5    -83.7230667 -0.818666E-08  0.369E-04    1.12      41.8  T
   6    -83.7230667 -0.304856E-08  0.124E-04    1.12     124.8  T
   7    -83.7230667 -0.338687E-09  0.401E-05    1.12     385.2  T
     SCC iter.                  ...        0 min,  0.025 sec
     gradient                   ...        0 min,  0.084 sec
 * total energy  :   -82.9396534 Eh     change       -0.1622406E-03 Eh
   gradient norm :     0.0173361 Eh/α   predicted    -0.2409081E-03 (  48.49%)
   displ. norm   :     0.3106231 α      lambda       -0.5357970E-03
   maximum displ.:     0.1669872 α      in ANC's #7, #6, #4, ...

........................................................................
.............................. CYCLE   19 ..............................
........................................................................
   1    -83.7260063 -0.837260E+02  0.239E-02    1.11       0.0  T
   2    -83.7260227 -0.164768E-04  0.192E-02    1.11       1.0  T
   3    -83.7260499 -0.271800E-04  0.603E-03    1.11       2.6  T
   4    -83.7260509 -0.100394E-05  0.311E-03    1.11       5.0  T
   5    -83.7260510 -0.404865E-07  0.944E-04    1.11      16.3  T
   6    -83.7260510 -0.193703E-07  0.168E-04    1.11      91.7  T
   7    -83.7260510 -0.791189E-09  0.453E-05    1.11     340.8  T
     SCC iter.                  ...        0 min,  0.025 sec
     gradient                   ...        0 min,  0.080 sec
 * total energy  :   -82.9399468 Eh     change       -0.2933864E-03 Eh
   gradient norm :     0.0113092 Eh/α   predicted    -0.2937520E-03 (   0.12%)
   displ. norm   :     0.2648680 α      lambda       -0.4040780E-03
   maximum displ.:     0.1243841 α      in ANC's #3, #12, #7, ...

........................................................................
.............................. CYCLE   20 ..............................
........................................................................
   1    -83.7233781 -0.837234E+02  0.257E-02    1.11       0.0  T
   2    -83.7233810 -0.293927E-05  0.232E-02    1.12       1.0  T
   3    -83.7234251 -0.440872E-04  0.601E-03    1.12       2.6  T
   4    -83.7234257 -0.562478E-06  0.299E-03    1.12       5.2  T
   5    -83.7234257 -0.106864E-07  0.505E-04    1.12      30.5  T
   6    -83.7234257 -0.530737E-08  0.127E-04    1.12     121.9  T
   7    -83.7234257 -0.436941E-09  0.390E-05    1.12     396.0  T
     SCC iter.                  ...        0 min,  0.026 sec
     gradient                   ...        0 min,  0.080 sec
 * total energy  :   -82.9401339 Eh     change       -0.1871084E-03 Eh
   gradient norm :     0.0122842 Eh/α   predicted    -0.2162152E-03 (  15.56%)
   displ. norm   :     0.2666974 α      lambda       -0.4350958E-03
   maximum displ.:     0.1343201 α      in ANC's #7, #4, #6, ...
 * RMSD in coord.:     0.8471369 α      energy gain  -0.4085479E-01 Eh

generating ANC from model Hessian ...
Using Lindh-Hessian (1995)
 Shifting diagonal of input Hessian by   9.798213480049795E-003
 Lowest  eigenvalues of input Hessian
    0.000000    0.000000    0.000000    0.000000    0.000000    0.000000
    0.010000    0.010051    0.010936    0.011126    0.011679    0.012253
    0.012740    0.013635    0.014297    0.015564    0.016470    0.016821
 Highest eigenvalues
    2.059012    2.198905    2.205661    2.293829    2.400556    2.414826
 

........................................................................
.............................. CYCLE   21 ..............................
........................................................................
   1    -83.7274876 -0.837275E+02  0.324E-02    1.11       0.0  T
   2    -83.7274823  0.529092E-05  0.340E-02    1.12       1.0  T
   3    -83.7275727 -0.903533E-04  0.512E-03    1.12       3.0  T
   4    -83.7275726  0.458249E-07  0.319E-03    1.12       4.8  T
   5    -83.7275728 -0.160111E-06  0.441E-04    1.12      35.0  T
   6    -83.7275728 -0.352178E-08  0.112E-04    1.12     138.0  T
   7    -83.7275728 -0.214783E-09  0.336E-05    1.12     459.9  T
     SCC iter.                  ...        0 min,  0.025 sec
     gradient                   ...        0 min,  0.081 sec
 * total energy  :   -82.9403326 Eh     change       -0.1986827E-03 Eh
   gradient norm :     0.0141742 Eh/α   predicted     0.0000000E+00 (-100.00%)
   displ. norm   :     0.0734950 α      lambda       -0.2980448E-03
   maximum displ.:     0.0337863 α      in ANC's #3, #23, #5, ...

........................................................................
.............................. CYCLE   22 ..............................
........................................................................
   1    -83.7269659 -0.837270E+02  0.984E-03    1.12       0.0  T
   2    -83.7269688 -0.298677E-05  0.420E-03    1.12       3.7  T
   3    -83.7269693 -0.449176E-06  0.304E-03    1.12       5.1  T
   4    -83.7269694 -0.893655E-07  0.127E-03    1.12      12.2  T
   5    -83.7269695 -0.731115E-07  0.368E-04    1.12      42.0  T
   6    -83.7269695 -0.596481E-08  0.435E-05    1.12     354.4  T
   7    -83.7269695 -0.439258E-10  0.155E-05    1.12     995.1  T
     SCC iter.                  ...        0 min,  0.025 sec
     gradient                   ...        0 min,  0.084 sec
 * total energy  :   -82.9405550 Eh     change       -0.2223685E-03 Eh
   gradient norm :     0.0061976 Eh/α   predicted    -0.1498281E-03 ( -32.62%)
   displ. norm   :     0.1536074 α      lambda       -0.2682922E-03
   maximum displ.:     0.0794675 α      in ANC's #3, #5, #23, ...

........................................................................
.............................. CYCLE   23 ..............................
........................................................................
   1    -83.7265858 -0.837266E+02  0.197E-02    1.12       0.0  T
   2    -83.7265874 -0.165873E-05  0.147E-02    1.12       1.0  T
   3    -83.7266072 -0.197995E-04  0.504E-03    1.12       3.1  T
   4    -83.7266080 -0.769234E-06  0.234E-03    1.12       6.6  T
   5    -83.7266081 -0.653611E-07  0.388E-04    1.12      39.7  T
   6    -83.7266081 -0.508088E-08  0.446E-05    1.12     346.2  T
   7    -83.7266081 -0.352713E-10  0.157E-05    1.12     983.4  T
     SCC iter.                  ...        0 min,  0.026 sec
     gradient                   ...        0 min,  0.085 sec
 * total energy  :   -82.9407436 Eh     change       -0.1886674E-03 Eh
   gradient norm :     0.0078097 Eh/α   predicted    -0.1373147E-03 ( -27.22%)
   displ. norm   :     0.2092197 α      lambda       -0.2218453E-03
   maximum displ.:     0.1103548 α      in ANC's #3, #5, #2, ...

........................................................................
.............................. CYCLE   24 ..............................
........................................................................
   1    -83.7264641 -0.837265E+02  0.322E-02    1.13       0.0  T
   2    -83.7264586  0.543928E-05  0.292E-02    1.13       1.0  T
   3    -83.7265373 -0.786576E-04  0.440E-03    1.13       3.5  T
   4    -83.7265377 -0.439875E-06  0.215E-03    1.13       7.2  T
   5    -83.7265378 -0.726741E-07  0.383E-04    1.13      40.3  T
   6    -83.7265378 -0.456699E-08  0.467E-05    1.13     330.7  T
   7    -83.7265378 -0.526938E-10  0.179E-05    1.13     862.5  T
     SCC iter.                  ...        0 min,  0.027 sec
     gradient                   ...        0 min,  0.084 sec
 * total energy  :   -82.9409240 Eh     change       -0.1803227E-03 Eh
   gradient norm :     0.0119103 Eh/α   predicted    -0.1158945E-03 ( -35.73%)
   displ. norm   :     0.4038246 α      lambda       -0.4067431E-03
   maximum displ.:     0.2063800 α      in ANC's #3, #5, #2, ...

........................................................................
.............................. CYCLE   25 ..............................
........................................................................
   1    -83.7258885 -0.837259E+02  0.728E-02    1.16       0.0  T
   2    -83.7258864  0.213461E-05  0.659E-02    1.16       1.0  T
   3    -83.7262808 -0.394479E-03  0.716E-03    1.16       2.2  T
   4    -83.7262818 -0.100332E-05  0.354E-03    1.16       4.4  T
   5    -83.7262820 -0.176378E-06  0.750E-04    1.16      20.6  T
   6    -83.7262820 -0.174918E-07  0.939E-05    1.16     164.3  T
   7    -83.7262820 -0.284047E-09  0.383E-05    1.16     402.9  T
     SCC iter.                  ...        0 min,  0.027 sec
     gradient                   ...        0 min,  0.084 sec
 * total energy  :   -82.9412513 Eh     change       -0.3273608E-03 Eh
   gradient norm :     0.0154578 Eh/α   predicted    -0.2365375E-03 ( -27.74%)
   displ. norm   :     0.5159578 α      lambda       -0.5533581E-03
   maximum displ.:     0.2537026 α      in ANC's #3, #5, #2, ...

........................................................................
.............................. CYCLE   26 ..............................
........................................................................
   1    -83.7260286 -0.837260E+02  0.109E-01    1.22       0.0  T
   2    -83.7261488 -0.120246E-03  0.921E-02    1.21       1.0  T
   3    -83.7269073 -0.758508E-03  0.961E-03    1.22       1.6  T
   4    -83.7269091 -0.180134E-05  0.468E-03    1.22       3.3  T
   5    -83.7269094 -0.248863E-06  0.106E-03    1.22      14.5  T
   6    -83.7269094 -0.280451E-07  0.149E-04    1.22     103.3  T
   7    -83.7269094 -0.760622E-09  0.598E-05    1.22     258.2  T
     SCC iter.                  ...        0 min,  0.027 sec
     gradient                   ...        0 min,  0.084 sec
 * total energy  :   -82.9417038 Eh     change       -0.4524565E-03 Eh
   gradient norm :     0.0171429 Eh/α   predicted    -0.3503350E-03 ( -22.57%)
   displ. norm   :     0.5341359 α      lambda       -0.8511629E-03
   maximum displ.:     0.2378234 α      in ANC's #3, #2, #5, ...

........................................................................
.............................. CYCLE   27 ..............................
........................................................................
   1    -83.7308700 -0.837309E+02  0.140E-01    1.33       0.0  T
   2    -83.7313306 -0.460567E-03  0.104E-01    1.30       1.0  T
   3    -83.7322629 -0.932276E-03  0.125E-02    1.31       1.2  T
   4    -83.7322661 -0.318322E-05  0.584E-03    1.31       2.6  T
   5    -83.7322663 -0.268787E-06  0.130E-03    1.31      11.9  T
   6    -83.7322664 -0.247008E-07  0.226E-04    1.31      68.2  T
   7    -83.7322664 -0.142512E-08  0.804E-05    1.31     192.0  T
   8    -83.7322664 -0.588614E-10  0.199E-05    1.31     776.3  T
     SCC iter.                  ...        0 min,  0.031 sec
     gradient                   ...        0 min,  0.084 sec
 * total energy  :   -82.9424513 Eh     change       -0.7475542E-03 Eh
   gradient norm :     0.0175043 Eh/α   predicted    -0.5470002E-03 ( -26.83%)
   displ. norm   :     0.6011340 α      lambda       -0.1611548E-02
   maximum displ.:     0.2643952 α      in ANC's #2, #11, #5, ...

........................................................................
.............................. CYCLE   28 ..............................
........................................................................
   1    -83.7449784 -0.837450E+02  0.195E-01    1.57       0.0  T
   2    -83.7463734 -0.139499E-02  0.112E-01    1.48       1.0  T
   3    -83.7474099 -0.103654E-02  0.202E-02    1.51       1.0  T
   4    -83.7474176 -0.771291E-05  0.912E-03    1.51       1.7  T
   5    -83.7474181 -0.447447E-06  0.182E-03    1.51       8.5  T
   6    -83.7474181 -0.404518E-07  0.378E-04    1.51      40.9  T
   7    -83.7474181 -0.266191E-08  0.122E-04    1.51     126.7  T
   8    -83.7474181 -0.161336E-09  0.320E-05    1.51     482.9  T
     SCC iter.                  ...        0 min,  0.031 sec
     gradient                   ...        0 min,  0.084 sec
 * total energy  :   -82.9438431 Eh     change       -0.1391730E-02 Eh
   gradient norm :     0.0290017 Eh/α   predicted    -0.1096966E-02 ( -21.18%)
   displ. norm   :     0.7226768 α      lambda       -0.2383000E-02
   maximum displ.:     0.2937856 α      in ANC's #2, #5, #11, ...

........................................................................
.............................. CYCLE   29 ..............................
........................................................................
   1    -83.7596195 -0.837596E+02  0.200E-01    1.94       0.0  T
   2    -83.7613204 -0.170092E-02  0.841E-02    1.81       1.0  T
   3    -83.7618506 -0.530228E-03  0.223E-02    1.86       1.0  T
   4    -83.7618591 -0.842978E-05  0.103E-02    1.86       1.5  T
   5    -83.7618595 -0.396226E-06  0.215E-03    1.86       7.2  T
   6    -83.7618595 -0.623951E-07  0.481E-04    1.86      32.1  T
   7    -83.7618595 -0.363582E-08  0.158E-04    1.86      97.5  T
   8    -83.7618595 -0.320114E-09  0.353E-05    1.86     437.5  T
     SCC iter.                  ...        0 min,  0.030 sec
     gradient                   ...        0 min,  0.085 sec
 * total energy  :   -82.9460307 Eh     change       -0.2187643E-02 Eh
   gradient norm :     0.0503393 Eh/α   predicted    -0.1813771E-02 ( -17.09%)
   displ. norm   :     0.7167583 α      lambda       -0.7217324E-02
   maximum displ.:     0.2142065 α      in ANC's #21, #86, #11, ...

........................................................................
.............................. CYCLE   30 ..............................
........................................................................
   1    -83.8227332 -0.838227E+02  0.321E-01    2.85       0.0  T
   2    -83.8267722 -0.403907E-02  0.110E-01    2.59       1.0  T
   3    -83.8271997 -0.427444E-03  0.485E-02    2.66       1.0  T
   4    -83.8272159 -0.161801E-04  0.210E-02    2.65       1.0  T
   5    -83.8272188 -0.290742E-05  0.478E-03    2.65       3.2  T
   6    -83.8272191 -0.362552E-06  0.125E-03    2.65      12.3  T
   7    -83.8272192 -0.301360E-07  0.331E-04    2.65      46.6  T
   8    -83.8272192 -0.154488E-08  0.106E-04    2.65     145.8  T
   9    -83.8272192 -0.168626E-09  0.275E-05    2.65     560.1  T
     SCC iter.                  ...        0 min,  0.031 sec
     gradient                   ...        0 min,  0.085 sec
 * total energy  :   -82.9423756 Eh     change        0.3655070E-02 Eh
   gradient norm :     0.1194780 Eh/α   predicted    -0.5462567E-02 (-249.45%)
   displ. norm   :     0.3034001 α      lambda       -0.1414518E-01
   maximum displ.:     0.1377708 α      in ANC's #3, #5, #9, ...

........................................................................
.............................. CYCLE   31 ..............................
........................................................................
   1    -83.7875023 -0.837875E+02  0.139E-01    2.28       0.0  T
   2    -83.7881447 -0.642324E-03  0.614E-02    2.37       1.0  T
   3    -83.7882504 -0.105698E-03  0.284E-02    2.34       1.0  T
   4    -83.7882522 -0.185984E-05  0.106E-02    2.35       1.5  T
   5    -83.7882534 -0.118930E-05  0.190E-03    2.35       8.1  T
   6    -83.7882535 -0.807386E-07  0.540E-04    2.35      28.6  T
   7    -83.7882535 -0.444327E-08  0.134E-04    2.35     115.0  T
   8    -83.7882535 -0.255966E-09  0.421E-05    2.35     366.3  T
     SCC iter.                  ...        0 min,  0.028 sec
     gradient                   ...        0 min,  0.085 sec
 * total energy  :   -82.9505679 Eh     change       -0.8192257E-02 Eh
   gradient norm :     0.0628566 Eh/α   predicted    -0.7723685E-02 (  -5.72%)
   displ. norm   :     0.2372456 α      lambda       -0.4056254E-02
   maximum displ.:     0.0961692 α      in ANC's #3, #5, #19, ...

........................................................................
.............................. CYCLE   32 ..............................
........................................................................
   1    -83.7813730 -0.837814E+02  0.409E-02    2.36       0.0  T
   2    -83.7814500 -0.770188E-04  0.164E-02    2.34       1.0  T
   3    -83.7814579 -0.786998E-05  0.845E-03    2.35       1.8  T
   4    -83.7814582 -0.326680E-06  0.384E-03    2.35       4.0  T
   5    -83.7814583 -0.607704E-07  0.780E-04    2.35      19.8  T
   6    -83.7814583 -0.195876E-07  0.186E-04    2.35      83.0  T
   7    -83.7814583 -0.102160E-08  0.836E-05    2.35     184.5  T
     SCC iter.                  ...        0 min,  0.026 sec
     gradient                   ...        0 min,  0.080 sec
 * total energy  :   -82.9538436 Eh     change       -0.3275664E-02 Eh
   gradient norm :     0.0457692 Eh/α   predicted    -0.2142272E-02 ( -34.60%)
   displ. norm   :     0.4768745 α      lambda       -0.7973867E-02
   maximum displ.:     0.1709572 α      in ANC's #18, #5, #19, ...

........................................................................
.............................. CYCLE   33 ..............................
........................................................................
   1    -83.7751136 -0.837751E+02  0.736E-02    2.48       0.0  T
   2    -83.7753189 -0.205301E-03  0.277E-02    2.43       1.0  T
   3    -83.7753430 -0.241133E-04  0.141E-02    2.44       1.1  T
   4    -83.7753442 -0.121660E-05  0.527E-03    2.44       2.9  T
   5    -83.7753444 -0.167559E-06  0.141E-03    2.44      10.9  T
   6    -83.7753444 -0.515256E-07  0.365E-04    2.44      42.3  T
   7    -83.7753444 -0.403881E-08  0.148E-04    2.44     104.5  T
   8    -83.7753444 -0.285652E-09  0.568E-05    2.44     271.5  T
     SCC iter.                  ...        0 min,  0.029 sec
     gradient                   ...        0 min,  0.080 sec
 * total energy  :   -82.9593132 Eh     change       -0.5469647E-02 Eh
   gradient norm :     0.0302188 Eh/α   predicted    -0.4893545E-02 ( -10.53%)
   displ. norm   :     0.4877138 α      lambda       -0.4785882E-02
   maximum displ.:     0.1708474 α      in ANC's #18, #23, #19, ...

........................................................................
.............................. CYCLE   34 ..............................
........................................................................
   1    -83.7799373 -0.837799E+02  0.624E-02    2.72       0.0  T
   2    -83.7801075 -0.170149E-03  0.251E-02    2.65       1.0  T
   3    -83.7801286 -0.211500E-04  0.105E-02    2.67       1.5  T
   4    -83.7801294 -0.764844E-06  0.534E-03    2.66       2.9  T
   5    -83.7801295 -0.120813E-06  0.883E-04    2.66      17.5  T
   6    -83.7801295 -0.228509E-07  0.245E-04    2.66      62.9  T
   7    -83.7801295 -0.144631E-08  0.957E-05    2.66     161.2  T
   8    -83.7801295 -0.130640E-09  0.375E-05    2.66     411.4  T
     SCC iter.                  ...        0 min,  0.029 sec
     gradient                   ...        0 min,  0.080 sec
 * total energy  :   -82.9623087 Eh     change       -0.2995520E-02 Eh
   gradient norm :     0.0281224 Eh/α   predicted    -0.2962111E-02 (  -1.12%)
   displ. norm   :     0.5110902 α      lambda       -0.3288065E-02
   maximum displ.:     0.2342433 α      in ANC's #18, #19, #11, ...

........................................................................
.............................. CYCLE   35 ..............................
........................................................................
   1    -83.7958271 -0.837958E+02  0.485E-02    2.72       0.0  T
   2    -83.7959153 -0.881478E-04  0.225E-02    2.67       1.0  T
   3    -83.7959235 -0.823065E-05  0.126E-02    2.68       1.2  T
   4    -83.7959238 -0.337670E-06  0.406E-03    2.68       3.8  T
   5    -83.7959240 -0.167537E-06  0.736E-04    2.68      21.0  T
   6    -83.7959240 -0.167544E-07  0.195E-04    2.68      79.2  T
   7    -83.7959240 -0.678810E-09  0.498E-05    2.68     309.6  T
     SCC iter.                  ...        0 min,  0.025 sec
     gradient                   ...        0 min,  0.080 sec
 * total energy  :   -82.9628884 Eh     change       -0.5796983E-03 Eh
   gradient norm :     0.0517071 Eh/α   predicted    -0.2073479E-02 ( 257.68%)
   displ. norm   :     0.5705923 α      lambda       -0.4422206E-02
   maximum displ.:     0.2784186 α      in ANC's #5, #2, #3, ...

........................................................................
.............................. CYCLE   36 ..............................
........................................................................
   1    -83.7903253 -0.837903E+02  0.751E-02    2.71       0.0  T
   2    -83.7906238 -0.298473E-03  0.329E-02    2.78       1.0  T
   3    -83.7906565 -0.327311E-04  0.148E-02    2.77       1.0  T
   4    -83.7906569 -0.392115E-06  0.709E-03    2.77       2.2  T
   5    -83.7906572 -0.255217E-06  0.154E-03    2.77      10.0  T
   6    -83.7906572 -0.486538E-07  0.276E-04    2.77      55.9  T
   7    -83.7906572 -0.154969E-08  0.110E-04    2.77     140.1  T
   8    -83.7906572 -0.138570E-09  0.462E-05    2.77     334.2  T
     SCC iter.                  ...        0 min,  0.029 sec
     gradient                   ...        0 min,  0.080 sec
 * total energy  :   -82.9642704 Eh     change       -0.1382004E-02 Eh
   gradient norm :     0.0473780 Eh/α   predicted    -0.2930986E-02 ( 112.08%)
   displ. norm   :     0.3405210 α      lambda       -0.4468900E-02
   maximum displ.:     0.1312294 α      in ANC's #4, #24, #6, ...

........................................................................
.............................. CYCLE   37 ..............................
........................................................................
   1    -83.8027690 -0.838028E+02  0.844E-02    2.78       0.0  T
   2    -83.8029184 -0.149355E-03  0.376E-02    2.74       1.0  T
   3    -83.8029363 -0.178987E-04  0.214E-02    2.75       1.0  T
   4    -83.8029373 -0.101906E-05  0.267E-03    2.75       5.8  T
   5    -83.8029374 -0.120258E-06  0.939E-04    2.75      16.4  T
   6    -83.8029374 -0.173017E-07  0.228E-04    2.75      67.7  T
   7    -83.8029374 -0.128678E-08  0.680E-05    2.75     227.1  T
   8    -83.8029374 -0.109196E-09  0.146E-05    2.75    1058.9  T
     SCC iter.                  ...        0 min,  0.029 sec
     gradient                   ...        0 min,  0.080 sec
 * total energy  :   -82.9642642 Eh     change        0.6260205E-05 Eh
   gradient norm :     0.0495402 Eh/α   predicted    -0.2493549E-02 (*******%)
   displ. norm   :     0.2283982 α      lambda       -0.3687322E-02
   maximum displ.:     0.1147294 α      in ANC's #5, #2, #11, ...

........................................................................
.............................. CYCLE   38 ..............................
........................................................................
   1    -83.7993160 -0.837993E+02  0.436E-02    2.78       0.0  T
   2    -83.7993771 -0.610511E-04  0.224E-02    2.75       1.0  T
   3    -83.7993847 -0.758933E-05  0.126E-02    2.76       1.2  T
   4    -83.7993849 -0.193938E-06  0.245E-03    2.75       6.3  T
   5    -83.7993850 -0.832194E-07  0.698E-04    2.76      22.1  T
   6    -83.7993850 -0.143489E-07  0.214E-04    2.76      72.0  T
   7    -83.7993850 -0.698577E-09  0.428E-05    2.76     360.4  T
   8    -83.7993850 -0.240874E-10  0.881E-06    2.76    1751.0  T
     SCC iter.                  ...        0 min,  0.028 sec
     gradient                   ...        0 min,  0.080 sec
 * total energy  :   -82.9662984 Eh     change       -0.2034238E-02 Eh
   gradient norm :     0.0197633 Eh/α   predicted    -0.1939838E-02 (  -4.64%)
   displ. norm   :     0.2852295 α      lambda       -0.1088394E-02
   maximum displ.:     0.1152945 α      in ANC's #5, #18, #10, ...

........................................................................
.............................. CYCLE   39 ..............................
........................................................................
   1    -83.7954871 -0.837955E+02  0.362E-02    2.69       0.0  T
   2    -83.7955592 -0.720314E-04  0.163E-02    2.73       1.0  T
   3    -83.7955697 -0.105629E-04  0.607E-03    2.72       2.5  T
   4    -83.7955697  0.169373E-08  0.284E-03    2.72       5.4  T
   5    -83.7955698 -0.700676E-07  0.350E-04    2.72      44.1  T
   6    -83.7955698 -0.427501E-08  0.710E-05    2.72     217.3  T
   7    -83.7955698 -0.181387E-09  0.350E-05    2.72     441.1  T
     SCC iter.                  ...        0 min,  0.025 sec
     gradient                   ...        0 min,  0.079 sec
 * total energy  :   -82.9669175 Eh     change       -0.6191202E-03 Eh
   gradient norm :     0.0232618 Eh/α   predicted    -0.5884727E-03 (  -4.95%)
   displ. norm   :     0.4483932 α      lambda       -0.1235666E-02
   maximum displ.:     0.2357209 α      in ANC's #5, #2, #6, ...

........................................................................
.............................. CYCLE   40 ..............................
........................................................................
   1    -83.7950143 -0.837950E+02  0.359E-02    2.81       0.0  T
   2    -83.7950552 -0.409369E-04  0.144E-02    2.77       1.1  T
   3    -83.7950614 -0.615236E-05  0.654E-03    2.78       2.4  T
   4    -83.7950616 -0.186402E-06  0.262E-03    2.78       5.9  T
   5    -83.7950616 -0.486911E-07  0.524E-04    2.78      29.5  T
   6    -83.7950616 -0.699292E-08  0.148E-04    2.78     104.2  T
   7    -83.7950616 -0.615117E-09  0.471E-05    2.78     327.4  T
     SCC iter.                  ...        0 min,  0.025 sec
     gradient                   ...        0 min,  0.079 sec
 * total energy  :   -82.9677398 Eh     change       -0.8222685E-03 Eh
   gradient norm :     0.0161945 Eh/α   predicted    -0.7420543E-03 (  -9.76%)
   displ. norm   :     0.4802988 α      lambda       -0.1225383E-02
   maximum displ.:     0.1924502 α      in ANC's #5, #6, #2, ...

........................................................................
.............................. CYCLE   41 ..............................
........................................................................
   1    -83.7962557 -0.837963E+02  0.220E-02    2.77       0.0  T
   2    -83.7962744 -0.186391E-04  0.102E-02    2.78       1.5  T
   3    -83.7962767 -0.237142E-05  0.454E-03    2.78       3.4  T
   4    -83.7962768 -0.305685E-07  0.163E-03    2.78       9.5  T
   5    -83.7962768 -0.220585E-07  0.385E-04    2.78      40.0  T
   6    -83.7962768 -0.392606E-08  0.112E-04    2.78     137.9  T
   7    -83.7962768 -0.222158E-09  0.288E-05    2.78     535.2  T
     SCC iter.                  ...        0 min,  0.025 sec
     gradient                   ...        0 min,  0.085 sec
 * total energy  :   -82.9685687 Eh     change       -0.8288986E-03 Eh
   gradient norm :     0.0203586 Eh/α   predicted    -0.7540352E-03 (  -9.03%)
   displ. norm   :     0.3820248 α      lambda       -0.1181295E-02
   maximum displ.:     0.1497112 α      in ANC's #4, #2, #5, ...

........................................................................
.............................. CYCLE   42 ..............................
........................................................................
   1    -83.8030135 -0.838030E+02  0.246E-02    2.80       0.0  T
   2    -83.8030418 -0.282327E-04  0.130E-02    2.77       1.2  T
   3    -83.8030462 -0.439499E-05  0.587E-03    2.78       2.6  T
   4    -83.8030462 -0.167134E-08  0.175E-03    2.78       8.8  T
   5    -83.8030462 -0.338327E-07  0.374E-04    2.78      41.3  T
   6    -83.8030462 -0.346270E-08  0.918E-05    2.78     168.1  T
   7    -83.8030462 -0.115264E-09  0.312E-05    2.78     495.3  T
     SCC iter.                  ...        0 min,  0.030 sec
     gradient                   ...        0 min,  0.086 sec
 * total energy  :   -82.9691715 Eh     change       -0.6027598E-03 Eh
   gradient norm :     0.0164692 Eh/α   predicted    -0.6768531E-03 (  12.29%)
   displ. norm   :     0.4459248 α      lambda       -0.8733753E-03
   maximum displ.:     0.1726656 α      in ANC's #5, #2, #6, ...
 * RMSD in coord.:     0.9264496 α      energy gain  -0.2903753E-01 Eh

generating ANC from model Hessian ...
Using Lindh-Hessian (1995)
 Shifting diagonal of input Hessian by   9.813012356853595E-003
 Lowest  eigenvalues of input Hessian
    0.000000    0.000000    0.000000    0.000000    0.000000    0.000000
    0.010000    0.010064    0.010202    0.010985    0.011563    0.012071
    0.012400    0.012508    0.013653    0.013874    0.014200    0.015135
 Highest eigenvalues
    2.151146    2.197922    2.318183    2.399019    2.403935    2.772821
 

........................................................................
.............................. CYCLE   43 ..............................
........................................................................
   1    -83.7996107 -0.837996E+02  0.261E-02    2.76       0.0  T
   2    -83.7996458 -0.351679E-04  0.106E-02    2.79       1.5  T
   3    -83.7996503 -0.443573E-05  0.453E-03    2.78       3.4  T
   4    -83.7996504 -0.952289E-07  0.202E-03    2.78       7.6  T
   5    -83.7996504 -0.158819E-07  0.568E-04    2.78      27.2  T
   6    -83.7996504 -0.442463E-08  0.885E-05    2.78     174.4  T
   7    -83.7996504 -0.168839E-09  0.328E-05    2.78     470.6  T
     SCC iter.                  ...        0 min,  0.025 sec
     gradient                   ...        0 min,  0.079 sec
 * total energy  :   -82.9697207 Eh     change       -0.5492188E-03 Eh
   gradient norm :     0.0191165 Eh/α   predicted     0.0000000E+00 (-100.00%)
   displ. norm   :     0.1249313 α      lambda       -0.6755757E-03
   maximum displ.:     0.0651184 α      in ANC's #3, #10, #16, ...

........................................................................
.............................. CYCLE   44 ..............................
........................................................................
   1    -83.8030133 -0.838030E+02  0.145E-02    2.81       0.0  T
   2    -83.8030211 -0.786244E-05  0.695E-03    2.80       2.2  T
   3    -83.8030222 -0.100904E-05  0.330E-03    2.81       4.7  T
   4    -83.8030222 -0.224198E-07  0.110E-03    2.81      14.0  T
   5    -83.8030222 -0.113897E-07  0.301E-04    2.81      51.3  T
   6    -83.8030222 -0.212975E-08  0.478E-05    2.81     322.5  T
   7    -83.8030222 -0.455742E-10  0.137E-05    2.81    1126.6  T
     SCC iter.                  ...        0 min,  0.025 sec
     gradient                   ...        0 min,  0.079 sec
 * total energy  :   -82.9702170 Eh     change       -0.4963197E-03 Eh
   gradient norm :     0.0078847 Eh/α   predicted    -0.3430718E-03 ( -30.88%)
   displ. norm   :     0.2917922 α      lambda       -0.8547833E-03
   maximum displ.:     0.1629125 α      in ANC's #3, #9, #10, ...

........................................................................
.............................. CYCLE   45 ..............................
........................................................................
   1    -83.8046680 -0.838047E+02  0.204E-02    2.80       0.0  T
   2    -83.8046835 -0.154121E-04  0.858E-03    2.80       1.8  T
   3    -83.8046847 -0.119972E-05  0.384E-03    2.80       4.0  T
   4    -83.8046847 -0.650153E-07  0.156E-03    2.80       9.9  T
   5    -83.8046847 -0.761447E-08  0.349E-04    2.80      44.2  T
   6    -83.8046847 -0.355747E-08  0.919E-05    2.80     167.8  T
   7    -83.8046847 -0.144240E-09  0.263E-05    2.80     585.9  T
     SCC iter.                  ...        0 min,  0.025 sec
     gradient                   ...        0 min,  0.080 sec
 * total energy  :   -82.9706938 Eh     change       -0.4768103E-03 Eh
   gradient norm :     0.0128682 Eh/α   predicted    -0.4639280E-03 (  -2.70%)
   displ. norm   :     0.3161763 α      lambda       -0.6750170E-03
   maximum displ.:     0.1885564 α      in ANC's #3, #10, #16, ...

........................................................................
.............................. CYCLE   46 ..............................
........................................................................
   1    -83.8021174 -0.838021E+02  0.155E-02    2.80       0.0  T
   2    -83.8021220 -0.456664E-05  0.716E-03    2.81       2.2  T
   3    -83.8021223 -0.343695E-06  0.361E-03    2.81       4.3  T
   4    -83.8021225 -0.134858E-06  0.107E-03    2.81      14.4  T
   5    -83.8021225 -0.527000E-08  0.313E-04    2.81      49.3  T
   6    -83.8021225 -0.189435E-08  0.821E-05    2.81     188.0  T
   7    -83.8021225 -0.200856E-09  0.206E-05    2.81     747.4  T
     SCC iter.                  ...        0 min,  0.025 sec
     gradient                   ...        0 min,  0.080 sec
 * total energy  :   -82.9711266 Eh     change       -0.4327910E-03 Eh
   gradient norm :     0.0157599 Eh/α   predicted    -0.3712490E-03 ( -14.22%)
   displ. norm   :     0.2809767 α      lambda       -0.5028302E-03
   maximum displ.:     0.1863192 α      in ANC's #3, #10, #9, ...

........................................................................
.............................. CYCLE   47 ..............................
........................................................................
   1    -83.7997933 -0.837998E+02  0.150E-02    2.79       0.0  T
   2    -83.7997990 -0.570851E-05  0.728E-03    2.81       2.1  T
   3    -83.7997996 -0.603255E-06  0.424E-03    2.80       3.6  T
   4    -83.7997997 -0.109119E-06  0.107E-03    2.81      14.4  T
   5    -83.7997997 -0.123303E-07  0.291E-04    2.80      53.0  T
   6    -83.7997997 -0.164714E-08  0.665E-05    2.80     232.1  T
   7    -83.7997997 -0.119599E-09  0.209E-05    2.80     737.7  T
     SCC iter.                  ...        0 min,  0.025 sec
     gradient                   ...        0 min,  0.080 sec
 * total energy  :   -82.9715030 Eh     change       -0.3763696E-03 Eh
   gradient norm :     0.0138429 Eh/α   predicted    -0.2712651E-03 ( -27.93%)
   displ. norm   :     0.2575994 α      lambda       -0.4733824E-03
   maximum displ.:     0.1848722 α      in ANC's #3, #10, #9, ...

........................................................................
.............................. CYCLE   48 ..............................
........................................................................
   1    -83.8015748 -0.838016E+02  0.166E-02    2.82       0.0  T
   2    -83.8015849 -0.101340E-04  0.728E-03    2.82       2.1  T
   3    -83.8015857 -0.828832E-06  0.369E-03    2.82       4.2  T
   4    -83.8015858 -0.275968E-07  0.155E-03    2.82       9.9  T
   5    -83.8015858 -0.105234E-07  0.227E-04    2.82      67.9  T
   6    -83.8015858 -0.114960E-08  0.628E-05    2.82     245.9  T
   7    -83.8015858 -0.963780E-10  0.156E-05    2.82     990.1  T
     SCC iter.                  ...        0 min,  0.025 sec
     gradient                   ...        0 min,  0.080 sec
 * total energy  :   -82.9718180 Eh     change       -0.3150657E-03 Eh
   gradient norm :     0.0107267 Eh/α   predicted    -0.2523981E-03 ( -19.89%)
   displ. norm   :     0.2519113 α      lambda       -0.3003769E-03
   maximum displ.:     0.1879679 α      in ANC's #3, #10, #9, ...

........................................................................
.............................. CYCLE   49 ..............................
........................................................................
   1    -83.8014382 -0.838014E+02  0.909E-03    2.81       0.0  T
   2    -83.8014420 -0.380299E-05  0.480E-03    2.81       3.2  T
   3    -83.8014422 -0.172652E-06  0.273E-03    2.81       5.7  T
   4    -83.8014422 -0.791073E-08  0.119E-03    2.81      13.0  T
   5    -83.8014422 -0.121399E-07  0.171E-04    2.81      90.4  T
   6    -83.8014422 -0.437197E-09  0.565E-05    2.81     273.1  T
     SCC iter.                  ...        0 min,  0.022 sec
     gradient                   ...        0 min,  0.080 sec
 * total energy  :   -82.9720656 Eh     change       -0.2475986E-03 Eh
   gradient norm :     0.0112226 Eh/α   predicted    -0.1597196E-03 ( -35.49%)
   displ. norm   :     0.3817649 α      lambda       -0.5065100E-03
   maximum displ.:     0.2884859 α      in ANC's #3, #11, #18, ...

........................................................................
.............................. CYCLE   50 ..............................
........................................................................
   1    -83.8045339 -0.838045E+02  0.206E-02    2.85       0.0  T
   2    -83.8045651 -0.311335E-04  0.105E-02    2.82       1.5  T
   3    -83.8045694 -0.429519E-05  0.381E-03    2.83       4.0  T
   4    -83.8045694 -0.211610E-07  0.219E-03    2.83       7.0  T
   5    -83.8045694 -0.146826E-07  0.451E-04    2.83      34.2  T
   6    -83.8045694 -0.381532E-08  0.102E-04    2.83     151.1  T
   7    -83.8045694 -0.158295E-09  0.336E-05    2.83     458.9  T
     SCC iter.                  ...        0 min,  0.026 sec
     gradient                   ...        0 min,  0.079 sec
 * total energy  :   -82.9724174 Eh     change       -0.3517861E-03 Eh
   gradient norm :     0.0083768 Eh/α   predicted    -0.2901856E-03 ( -17.51%)
   displ. norm   :     0.5259509 α      lambda       -0.4314602E-03
   maximum displ.:     0.4086133 α      in ANC's #3, #10, #9, ...

........................................................................
.............................. CYCLE   51 ..............................
........................................................................
   1    -83.7976540 -0.837977E+02  0.209E-02    2.77       0.0  T
   2    -83.7976638 -0.973711E-05  0.998E-03    2.79       1.5  T
   3    -83.7976648 -0.976014E-06  0.552E-03    2.78       2.8  T
   4    -83.7976649 -0.113527E-06  0.155E-03    2.78      10.0  T
   5    -83.7976649 -0.415455E-07  0.339E-04    2.78      45.5  T
   6    -83.7976649 -0.222383E-08  0.862E-05    2.78     179.0  T
   7    -83.7976649 -0.181558E-09  0.297E-05    2.78     519.9  T
     SCC iter.                  ...        0 min,  0.025 sec
     gradient                   ...        0 min,  0.079 sec
 * total energy  :   -82.9726429 Eh     change       -0.2254903E-03 Eh
   gradient norm :     0.0126874 Eh/α   predicted    -0.2754284E-03 (  22.15%)
   displ. norm   :     0.2177630 α      lambda       -0.3247251E-03
   maximum displ.:     0.1725072 α      in ANC's #3, #4, #2, ...

........................................................................
.............................. CYCLE   52 ..............................
........................................................................
   1    -83.8020669 -0.838021E+02  0.120E-02    2.81       0.0  T
   2    -83.8020722 -0.528432E-05  0.619E-03    2.79       2.5  T
   3    -83.8020730 -0.864812E-06  0.325E-03    2.80       4.7  T
   4    -83.8020730 -0.184775E-07  0.853E-04    2.80      18.1  T
   5    -83.8020730 -0.804228E-08  0.157E-04    2.80      98.5  T
   6    -83.8020730 -0.853007E-09  0.383E-05    2.80     403.4  T
     SCC iter.                  ...        0 min,  0.022 sec
     gradient                   ...        0 min,  0.079 sec
 * total energy  :   -82.9728819 Eh     change       -0.2389579E-03 Eh
   gradient norm :     0.0074442 Eh/α   predicted    -0.1700797E-03 ( -28.82%)
   displ. norm   :     0.4401630 α      lambda       -0.3882470E-03
   maximum displ.:     0.3574220 α      in ANC's #3, #4, #6, ...

........................................................................
.............................. CYCLE   53 ..............................
........................................................................
   1    -83.8042945 -0.838043E+02  0.173E-02    2.84       0.0  T
   2    -83.8043100 -0.155220E-04  0.820E-03    2.82       1.9  T
   3    -83.8043123 -0.226994E-05  0.320E-03    2.83       4.8  T
   4    -83.8043123 -0.107164E-07  0.172E-03    2.82       9.0  T
   5    -83.8043123 -0.108286E-07  0.186E-04    2.82      83.1  T
   6    -83.8043123 -0.128489E-08  0.468E-05    2.82     329.9  T
     SCC iter.                  ...        0 min,  0.021 sec
     gradient                   ...        0 min,  0.085 sec
 * total energy  :   -82.9731210 Eh     change       -0.2391200E-03 Eh
   gradient norm :     0.0108895 Eh/α   predicted    -0.2317376E-03 (  -3.09%)
   displ. norm   :     0.4219935 α      lambda       -0.3979358E-03
   maximum displ.:     0.3448564 α      in ANC's #3, #4, #2, ...

........................................................................
.............................. CYCLE   54 ..............................
........................................................................
   1    -83.8057926 -0.838058E+02  0.167E-02    2.79       0.0  T
   2    -83.8058081 -0.154748E-04  0.824E-03    2.81       1.9  T
   3    -83.8058097 -0.165187E-05  0.414E-03    2.80       3.7  T
   4    -83.8058097 -0.264436E-07  0.187E-03    2.80       8.3  T
   5    -83.8058098 -0.143060E-07  0.385E-04    2.80      40.1  T
   6    -83.8058098 -0.455323E-08  0.931E-05    2.80     165.7  T
   7    -83.8058098 -0.124274E-09  0.294E-05    2.80     524.5  T
     SCC iter.                  ...        0 min,  0.026 sec
     gradient                   ...        0 min,  0.081 sec
 * total energy  :   -82.9733435 Eh     change       -0.2225629E-03 Eh
   gradient norm :     0.0113183 Eh/α   predicted    -0.2344136E-03 (   5.32%)
   displ. norm   :     0.3657601 α      lambda       -0.2489307E-03
   maximum displ.:     0.3032581 α      in ANC's #3, #2, #4, ...

........................................................................
.............................. CYCLE   55 ..............................
........................................................................
   1    -83.8039508 -0.838040E+02  0.100E-02    2.79       0.0  T
   2    -83.8039557 -0.488755E-05  0.345E-03    2.80       4.5  T
   3    -83.8039560 -0.263016E-06  0.185E-03    2.80       8.4  T
   4    -83.8039560 -0.166566E-07  0.102E-03    2.80      15.2  T
   5    -83.8039560 -0.310961E-08  0.160E-04    2.80      96.4  T
   6    -83.8039560 -0.710799E-09  0.455E-05    2.80     339.2  T
     SCC iter.                  ...        0 min,  0.021 sec
     gradient                   ...        0 min,  0.073 sec
 * total energy  :   -82.9735312 Eh     change       -0.1876994E-03 Eh
   gradient norm :     0.0083364 Eh/α   predicted    -0.1411197E-03 ( -24.82%)
   displ. norm   :     0.4325632 α      lambda       -0.3051106E-03
   maximum displ.:     0.3382556 α      in ANC's #3, #2, #4, ...

........................................................................
.............................. CYCLE   56 ..............................
........................................................................
   1    -83.8051566 -0.838052E+02  0.108E-02    2.82       0.0  T
   2    -83.8051606 -0.402727E-05  0.452E-03    2.81       3.4  T
   3    -83.8051611 -0.490601E-06  0.216E-03    2.81       7.1  T
   4    -83.8051611 -0.811723E-08  0.872E-04    2.81      17.7  T
   5    -83.8051611 -0.108527E-07  0.147E-04    2.81     104.9  T
   6    -83.8051611 -0.378151E-09  0.437E-05    2.81     353.4  T
     SCC iter.                  ...        0 min,  0.022 sec
     gradient                   ...        0 min,  0.079 sec
 * total energy  :   -82.9737371 Eh     change       -0.2058387E-03 Eh
   gradient norm :     0.0077952 Eh/α   predicted    -0.1811060E-03 ( -12.02%)
   displ. norm   :     0.5396337 α      lambda       -0.2421163E-03
   maximum displ.:     0.4422690 α      in ANC's #3, #2, #4, ...

........................................................................
.............................. CYCLE   57 ..............................
........................................................................
   1    -83.7991766 -0.837992E+02  0.115E-02    2.78       0.0  T
   2    -83.7991784 -0.180799E-05  0.605E-03    2.79       2.6  T
   3    -83.7991786 -0.200561E-06  0.322E-03    2.79       4.8  T
   4    -83.7991786 -0.666639E-07  0.595E-04    2.79      25.9  T
   5    -83.7991786 -0.615626E-08  0.189E-04    2.79      81.5  T
   6    -83.7991786 -0.431783E-09  0.390E-05    2.79     395.4  T
     SCC iter.                  ...        0 min,  0.022 sec
     gradient                   ...        0 min,  0.080 sec
 * total energy  :   -82.9738460 Eh     change       -0.1089103E-03 Eh
   gradient norm :     0.0101166 Eh/α   predicted    -0.1563135E-03 (  43.52%)
   displ. norm   :     0.3199660 α      lambda       -0.4017904E-03
   maximum displ.:     0.1607702 α      in ANC's #3, #11, #2, ...

........................................................................
.............................. CYCLE   58 ..............................
........................................................................
   1    -83.8054064 -0.838054E+02  0.182E-02    2.79       0.0  T
   2    -83.8054112 -0.475029E-05  0.881E-03    2.79       1.8  T
   3    -83.8054115 -0.352950E-06  0.469E-03    2.79       3.3  T
   4    -83.8054116 -0.101165E-06  0.952E-04    2.79      16.2  T
   5    -83.8054116 -0.796926E-08  0.190E-04    2.79      81.2  T
   6    -83.8054116 -0.610783E-09  0.740E-05    2.79     208.6  T
     SCC iter.                  ...        0 min,  0.022 sec
     gradient                   ...        0 min,  0.081 sec
 * total energy  :   -82.9739976 Eh     change       -0.1516394E-03 Eh
   gradient norm :     0.0108198 Eh/α   predicted    -0.2214652E-03 (  46.05%)
   displ. norm   :     0.2976328 α      lambda       -0.2133483E-03
   maximum displ.:     0.2319937 α      in ANC's #3, #2, #4, ...

........................................................................
.............................. CYCLE   59 ..............................
........................................................................
   1    -83.8042966 -0.838043E+02  0.897E-03    2.80       0.0  T
[...]
H31-C9=1.0886        H32-N11=1.0110       H33-C14=1.0880       H34-C14=1.0889       H35-C14=1.0887       H36-C15=1.0888       
H37-C15=1.0883       H38-C15=1.0883       H39-N16=1.0054       H40-C23=1.0873       H41-C23=1.0898       H42-C23=1.0898       
 C  H  Rav=1.0889 sigma=0.0017  Rmin=1.0851  Rmax=1.0924    15
 C  C  Rav=1.4819 sigma=0.0651  Rmin=1.3180  Rmax=1.5333     8
 N  H  Rav=1.0082 sigma=0.0028  Rmin=1.0054  Rmax=1.0110     2
 N  C  Rav=1.3594 sigma=0.0628  Rmin=1.2702  Rmax=1.4607     8
 N  N  Rav=1.3623 sigma=0.0000  Rmin=1.3623  Rmax=1.3623     1
 O  C  Rav=1.2817 sigma=0.0885  Rmin=1.1567  Rmax=1.4319     8
 
 selected bond angles (degree)
 --------------------
H26-C1-O2=110.04               H27-C1-O2=110.08               H27-C1-H26=109.45              H28-C1-O2=106.43               
H28-C1-H26=110.39              H28-C1-H27=110.42              C3-O2-C1=116.24                O4-C3-O2=124.20                
C5-C3-O2=111.64                C5-C3-O4=124.16                C6-C5-C3=119.76                N25-C5-C3=116.27               
N25-C5-C6=123.69               O7-C6-C5=177.00                O10-C8-C9=122.69               N11-C8-C9=118.24               
N11-C8-O10=119.06              H29-C9-C8=112.42               H30-C9-C8=108.84               H30-C9-H29=109.81              
H31-C9-C8=107.91               H31-C9-H29=109.63              H31-C9-H30=108.13              
 
 selected dihedral angles (degree)
 ---------------------------------
C3-O2-C1-H26= 57.54           C3-O2-C1-H27=296.82           C3-O2-C1-H28=177.15           O4-C3-O2-C1=  0.98            
C5-C3-O2-C1=180.81            C6-C5-C3-O2=175.44            C6-C5-C3-O4=355.26            N25-C5-C3-O2=  1.32           
N25-C5-C3-O4=181.14           O7-C6-C5-C3=352.38            O7-C6-C5-N25=166.04           H29-C9-C8-O10=196.46          
H29-C9-C8-N11= 17.28          H30-C9-C8-O10= 74.58          H30-C9-C8-N11=255.40          H31-C9-C8-O10=317.46          
H31-C9-C8-N11=138.29          
           -------------------------------------------------
          |                Final Singlepoint                |
           -------------------------------------------------

          ...................................................
          :                      SETUP                      :
          :.................................................:
          :  # basis functions                 134          :
          :  # atomic orbitals                 134          :
          :  # shells                           84          :
          :  # electrons                       134          :
          :  # halogen bonds                     0          :
          :  max. iterations                   250          :
          :  Hamiltonian                  GFN1-xTB          :
          :  restarted?                      false          :
          :  GBSA solvation                   true          :
          :  PC potential                    false          :
          :  electronic temp.          300.0000000     K    :
          :  accuracy                    1.0000000          :
          :  -> integral cutoff          0.2500000E+02      :
          :  -> integral neglect         0.1000000E-07      :
          :  -> SCF convergence          0.1000000E-05 Eh   :
          :  -> wf. convergence          0.2000000E-04 e    :
          :  Broyden damping             0.4000000          :
          ...................................................

 iter      E             dE          RMSdq      gap      omega  full diag
   1    -83.8059186 -0.838059E+02  0.688E-06    2.78       0.0  T
   2    -83.8059186 -0.724754E-12  0.358E-06    2.78    4311.1  T
   3    -83.8059186  0.227374E-12  0.197E-06    2.78    7830.6  T

   *** convergence criteria satisfied after 3 iterations ***

         #    Occupation            Energy/Eh            Energy/eV
      -------------------------------------------------------------
         1        2.0000           -0.8724043             -23.7393
       ...           ...                  ...                  ...
        61        2.0000           -0.4673214             -12.7165
        62        2.0000           -0.4664666             -12.6932
        63        2.0000           -0.4630663             -12.6007
        64        2.0000           -0.4564644             -12.4210
        65        2.0000           -0.4531171             -12.3299
        66        2.0000           -0.4495418             -12.2327
        67        2.0000           -0.4315569             -11.7433 (HOMO)
        68                         -0.3293369              -8.9617 (LUMO)
        69                         -0.3130460              -8.5184
        70                         -0.3054373              -8.3114
        71                         -0.2840737              -7.7300
        72                         -0.2571549              -6.9975
       ...                                ...                  ...
       134                          1.2016224              32.6978
      -------------------------------------------------------------
                  HL-Gap            0.1022201 Eh            2.7816 eV
             Fermi-level           -0.3804469 Eh          -10.3525 eV

 SCC (total)                   0 d,  0 h,  0 min,  0.130 sec
 SCC setup                      ...        0 min,  0.002 sec (  1.470%)
 Dispersion                     ...        0 min,  0.000 sec (  0.258%)
 classical contributions        ...        0 min,  0.000 sec (  0.089%)
 integral evaluation            ...        0 min,  0.035 sec ( 26.702%)
 iterations                     ...        0 min,  0.012 sec (  9.211%)
 molecular gradient             ...        0 min,  0.080 sec ( 61.528%)
 printout                       ...        0 min,  0.001 sec (  0.701%)

         :::::::::::::::::::::::::::::::::::::::::::::::::::::
         ::                     SUMMARY                     ::
         :::::::::::::::::::::::::::::::::::::::::::::::::::::
         :: total energy             -82.974652827648 Eh    ::
         :: total w/o Gsasa/hb       -82.953851916738 Eh    ::
         :: gradient norm              0.000637130037 Eh/a0 ::
         :: HOMO-LUMO gap              2.781550146737 eV    ::
         ::.................................................::
         :: SCC energy               -83.805918574229 Eh    ::
         :: -> electrostatic           0.355168071001 Eh    ::
         :: -> Gsolv                  -0.059194759620 Eh    ::
         ::    -> Gelec               -0.038393848709 Eh    ::
         ::    -> Gsasa               -0.023916015512 Eh    ::
         ::    -> Ghb                 -0.004509174403 Eh    ::
         ::    -> Gshift               0.007624279005 Eh    ::
         :: repulsion energy           0.858992394738 Eh    ::
         :: dispersion energy         -0.027726648157 Eh    ::
         :: halogen bond corr.         0.000000000000 Eh    ::
         :: add. restraining           0.000000000000 Eh    ::
         :: total charge              -0.000000000000 e     ::
         :::::::::::::::::::::::::::::::::::::::::::::::::::::

           -------------------------------------------------
          |                Property Printout                |
           -------------------------------------------------

    * Orbital Energies and Occupations

         #    Occupation            Energy/Eh            Energy/eV
      -------------------------------------------------------------
         1        2.0000           -0.8724043             -23.7393
       ...           ...                  ...                  ...
        55        2.0000           -0.5057996             -13.7635
        56        2.0000           -0.5039053             -13.7120
        57        2.0000           -0.5007895             -13.6272
        58        2.0000           -0.4887506             -13.2996
        59        2.0000           -0.4816393             -13.1061
        60        2.0000           -0.4744948             -12.9117
        61        2.0000           -0.4673214             -12.7165
        62        2.0000           -0.4664666             -12.6932
        63        2.0000           -0.4630663             -12.6007
        64        2.0000           -0.4564644             -12.4210
        65        2.0000           -0.4531171             -12.3299
        66        2.0000           -0.4495418             -12.2327
        67        2.0000           -0.4315569             -11.7433 (HOMO)
        68                         -0.3293369              -8.9617 (LUMO)
        69                         -0.3130460              -8.5184
        70                         -0.3054373              -8.3114
        71                         -0.2840737              -7.7300
        72                         -0.2571549              -6.9975
        73                         -0.2558607              -6.9623
        74                         -0.2006968              -5.4612
        75                         -0.1787738              -4.8647
        76                         -0.1417640              -3.8576
        77                         -0.1400675              -3.8114
        78                         -0.1353490              -3.6830
       ...                                ...                  ...
       134                          1.2016224              32.6978
      -------------------------------------------------------------
                  HL-Gap            0.1022201 Eh            2.7816 eV
             Fermi-level           -0.3804469 Eh          -10.3525 eV

  Mulliken/CM5 charges         n(s)   n(p)   n(d)
     1C     0.16251  0.04166   0.982  2.855  0.000
     2O    -0.40440 -0.48698   1.683  4.722  0.000
     3C     0.58615  0.65245   0.958  2.456  0.000
     4O    -0.57067 -0.61618   1.723  4.848  0.000
     5C     0.00332  0.07269   1.004  2.993  0.000
     6C     0.46790  0.51727   1.060  2.473  0.000
     7O    -0.35046 -0.39519   1.727  4.623  0.000
     8C     0.49582  0.58492   1.007  2.497  0.000
     9C    -0.12974 -0.26622   1.021  3.109  0.000
    10O    -0.56770 -0.61257   1.728  4.840  0.000
    11N    -0.36054 -0.70187   1.443  3.918  0.000
    12C     0.29032  0.43824   1.025  2.685  0.000
    13C     0.15259  0.19345   1.065  2.783  0.000
    14C    -0.10050 -0.23903   1.018  3.083  0.000
    15C    -0.11183 -0.25254   1.025  3.087  0.000
    16N    -0.34751 -0.70508   1.434  3.914  0.000
    17C     0.46849  0.57833   0.977  2.554  0.000
    18O    -0.58113 -0.62716   1.726  4.855  0.000
    19C     0.33209  0.45798   1.006  2.662  0.000
    20N    -0.21949 -0.32345   1.566  3.654  0.000
    21N    -0.26710 -0.37478   1.564  3.703  0.000
    22C     0.39297  0.50159   1.008  2.599  0.000
    23C    -0.11203 -0.24944   1.012  3.100  0.000
    24O    -0.35715 -0.41408   1.696  4.661  0.000
    25N    -0.33368 -0.52118   1.530  3.803  0.000
    26H     0.05558  0.11751   0.944  0.000  0.000
    27H     0.05531  0.11671   0.945  0.000  0.000
    28H     0.05764  0.11805   0.942  0.000  0.000
    29H     0.05602  0.12218   0.944  0.000  0.000
    30H     0.06302  0.12017   0.937  0.000  0.000
    31H     0.07561  0.13300   0.924  0.000  0.000
    32H     0.26744  0.47320   0.733  0.000  0.000
    33H     0.04953  0.10544   0.950  0.000  0.000
    34H     0.05695  0.11837   0.943  0.000  0.000
    35H     0.04767  0.10595   0.952  0.000  0.000
    36H     0.05646  0.11208   0.944  0.000  0.000
    37H     0.06235  0.11790   0.938  0.000  0.000
    38H     0.05469  0.11199   0.945  0.000  0.000
    39H     0.27190  0.47814   0.728  0.000  0.000
    40H     0.07002  0.12577   0.930  0.000  0.000
    41H     0.08075  0.13532   0.919  0.000  0.000
    42H     0.08083  0.13538   0.919  0.000  0.000

Wiberg/Mayer (AO) data.
largest (>0.10) Wiberg bond orders for each atom

 ---------------------------------------------------------------------------
     #   Z sym  total        # sym  WBO       # sym  WBO       # sym  WBO
 ---------------------------------------------------------------------------
     1   6 C    3.864 --    28 H    0.985    26 H    0.980    27 H    0.980
                             2 O    0.890
     2   8 O    2.206 --     3 C    1.120     1 C    0.890     4 O    0.130
     3   6 C    3.868 --     4 O    1.641     2 O    1.120     5 C    0.985
     4   8 O    1.916 --     3 C    1.641     2 O    0.130
     5   6 C    3.903 --     6 C    1.576    25 N    1.030     3 C    0.985
                             7 O    0.167
     6   6 C    3.801 --     7 O    1.988     5 C    1.576
     7   8 O    2.288 --     6 C    1.988     5 C    0.167
     8   6 C    3.867 --    10 O    1.662    11 N    1.133     9 C    0.999
     9   6 C    3.991 --     8 C    0.999    29 H    0.981    31 H    0.968
                            30 H    0.959
    10   8 O    1.922 --     8 C    1.662    11 N    0.126
    11   7 N    3.316 --     8 C    1.133    12 C    1.017    32 H    0.888
                            10 O    0.126
    12   6 C    3.933 --    25 N    1.747    11 N    1.017    13 C    0.968
    13   6 C    3.937 --    14 C    0.985    15 C    0.980    12 C    0.968
                            16 N    0.931
    14   6 C    3.987 --    33 H    0.985    13 C    0.985    35 H    0.983
                            34 H    0.981
    15   6 C    3.988 --    38 H    0.984    36 H    0.984    37 H    0.981
                            13 C    0.980
    16   7 N    3.348 --    17 C    1.255    13 C    0.931    39 H    0.891
                            18 O    0.173
    17   6 C    3.916 --    18 O    1.578    16 N    1.255    19 C    0.996
    18   8 O    1.898 --    17 C    1.578    16 N    0.173
    19   6 C    3.873 --    20 N    1.621    24 O    1.047    17 C    0.996
    20   7 N    3.001 --    19 C    1.621    21 N    1.200
    21   7 N    2.981 --    22 C    1.609    20 N    1.200
    22   6 C    3.868 --    21 N    1.609    24 O    1.073    23 C    1.032
    23   6 C    3.986 --    22 C    1.032    40 H    0.982    42 H    0.963
                            41 H    0.962
    24   8 O    2.317 --    22 C    1.073    19 C    1.047
    25   7 N    3.053 --    12 C    1.747     5 C    1.030
    26   1 H    1.006 --     1 C    0.980
    27   1 H    1.006 --     1 C    0.980
    28   1 H    1.009 --     1 C    0.985
    29   1 H    1.013 --     9 C    0.981
    30   1 H    1.002 --     9 C    0.959
    31   1 H    1.006 --     9 C    0.968
    32   1 H    0.942 --    11 N    0.888
    33   1 H    1.000 --    14 C    0.985
    34   1 H    1.010 --    14 C    0.981
    35   1 H    1.010 --    14 C    0.983
    36   1 H    1.002 --    15 C    0.984
    37   1 H    0.996 --    15 C    0.981
    38   1 H    0.997 --    15 C    0.984
    39   1 H    0.933 --    16 N    0.891
    40   1 H    0.998 --    23 C    0.982
    41   1 H    0.996 --    23 C    0.962
    42   1 H    0.996 --    23 C    0.963
 ---------------------------------------------------------------------------

Topologies differ in total number of bonds
Writing topology from bond orders to xtbtopo.mol

 dipole moment from electron density (au)
     X       Y       Z   
   2.6738   4.7789  -0.3597  total (Debye):   13.949

           -------------------------------------------------
          |                Geometry Summary                 |
           -------------------------------------------------

      molecular mass/u    :      351.3152409
   center of mass at/Å    :       -0.1482917      -0.3294610       0.2079190
  moments of inertia/u·Å² :        0.1049240E+04   0.4401276E+04   0.4792811E+04
rotational constants/cm⁻¹ :        0.1606651E-01   0.3830169E-02   0.3517275E-02

 * 36 selected distances

     #   Z          #   Z                                           value/Å
     1   6 C        2   8 O                                       1.4318914
     2   8 O        3   6 C                                       1.3285045
     3   6 C        4   8 O                                       1.2089245
     5   6 C        6   6 C                                       1.3179994
     6   6 C        7   8 O                                       1.1566979
     8   6 C       10   8 O                                       1.2128352
     8   6 C       11   7 N                                       1.3846411
    11   7 N       12   6 C                                       1.4071995
    13   6 C       14   6 C                                       1.5323286
    13   6 C       15   6 C                                       1.5333323 (max)
    13   6 C       16   7 N                                       1.4607174
    16   7 N       17   6 C                                       1.3497278
    17   6 C       18   8 O                                       1.2209778
    19   6 C       20   7 N                                       1.2965587
    21   7 N       22   6 C                                       1.2967806
    22   6 C       23   6 C                                       1.4785932
    19   6 C       24   8 O                                       1.3509287
    22   6 C       24   8 O                                       1.3431017
    12   6 C       25   7 N                                       1.2702138
     1   6 C       26   1 H                                       1.0922415
     1   6 C       27   1 H                                       1.0923532
     1   6 C       28   1 H                                       1.0877446
     9   6 C       29   1 H                                       1.0850943
     9   6 C       30   1 H                                       1.0893246
     9   6 C       31   1 H                                       1.0885526
    11   7 N       32   1 H                                       1.0109780
    14   6 C       33   1 H                                       1.0880050
    14   6 C       34   1 H                                       1.0889433
    14   6 C       35   1 H                                       1.0887041
    15   6 C       36   1 H                                       1.0888496
    15   6 C       37   1 H                                       1.0882590
    15   6 C       38   1 H                                       1.0883163
    16   7 N       39   1 H                                       1.0054146 (min)
    23   6 C       40   1 H                                       1.0873496
    23   6 C       41   1 H                                       1.0897516
    23   6 C       42   1 H                                       1.0897605

 * 5 distinct bonds (by element types)

   Z      Z             #   av. dist./Å        max./Å        min./Å
   1 H    6 C          15     1.0888833     1.0923532     1.0850943
   6 C    6 C           4     1.4655634     1.5333323     1.3179994
   1 H    7 N           2     1.0081963     1.0109780     1.0054146
   6 C    7 N           7     1.3522627     1.4607174     1.2702138
   6 C    8 O           8     1.2817327     1.4318914     1.1566979


optimized geometry written to: xtbopt.xyz


           -------------------------------------------------
          | TOTAL ENERGY              -82.974652827648 Eh   |
          | GRADIENT NORM               0.000637130037 Eh/α |
          | HOMO-LUMO GAP               2.781550146737 eV   |
           -------------------------------------------------

------------------------------------------------------------------------
 * finished run on 2023/06/21 at 17:53:38.279     
------------------------------------------------------------------------
 total:
 * wall-time:     0 d,  0 h,  0 min, 11.550 sec
 *  cpu-time:     0 d,  0 h,  0 min, 11.471 sec
 * ratio c/w:     0.993 speedup
 SCF:
 * wall-time:     0 d,  0 h,  0 min,  0.193 sec
 *  cpu-time:     0 d,  0 h,  0 min,  0.193 sec
 * ratio c/w:     0.995 speedup
 ANC optimizer:
 * wall-time:     0 d,  0 h,  0 min, 11.253 sec
 *  cpu-time:     0 d,  0 h,  0 min, 11.225 sec
 * ratio c/w:     0.998 speedup

