42
 energy: -83.617767503224 gnorm: 0.000744462454 xtb: 6.5.1 (579679a)
C           -5.33319186341560        2.53429045878066       -0.21351829144414
O           -4.02576950244754        2.04516886775517       -0.22344424563488
C           -3.91065496264128        0.48440834703244       -0.30386648035575
C           -3.62882750289578        0.26030619823834       -1.83900683992170
O           -4.95950174219608       -0.13648722396889        0.12127990836036
C           -2.58297098360467        0.20784015784487        0.48967637662861
N           -1.60485910550311       -0.40802622699158       -0.23121098445710
C           -0.48031372003251       -0.75162167672795        0.30622413988158
C            0.57108489806121       -1.49815782844815       -0.48702207130199
C            0.24315551903646       -1.42270833829846       -1.98117241744237
C            0.63210753500736       -2.95887922064892       -0.01204021078885
N            1.87723430356824       -0.85236924659196       -0.23632961019688
C            3.03221995539868       -1.27539956819329       -0.76875154457438
O            3.17299234653197       -2.23881237036663       -1.51117772251739
C            4.20003547450930       -0.44076893442318       -0.37136203916870
N            5.43081513932755       -0.58301526942126       -0.75934244920985
N            6.15307825480986        0.39968405153832       -0.14734714783519
C            5.31910602552305        1.07987120559218        0.57529250572665
C            5.61581862096537        2.24941488882546        1.43135310606438
O            4.06712936778382        0.60255530526592        0.47760841005005
N           -0.23438629081099       -0.52153436277421        1.64443375590667
C           -1.13617081195803        0.09513159512201        2.48214996477931
O           -0.81427423767845        0.26654627497001        3.67186011790765
C           -2.44308299184453        0.49532930643759        1.86743214005685
O           -3.30120015076969        1.05242560663659        2.60847009947411
H           -5.36234878197846        3.48112429934230        0.34419746217638
H           -5.71450365067618        2.73744361975302       -1.23179687384732
H           -6.03765795505654        1.83437370196419        0.27114012124701
H           -2.79485965957630        0.86827940878835       -2.18734043073349
H           -3.40890120396720       -0.79252194969418       -2.01340374041757
H           -4.52874028206098        0.52740652400117       -2.39201169936580
H            0.95648198470511       -2.00377555201065       -2.56171281401149
H            0.26922741159518       -0.38602649203394       -2.31544974433317
H           -0.75866861631235       -1.81802006410983       -2.14737058785614
H            1.34935140670485       -3.52899889402445       -0.59901304135598
H            0.92379252590825       -2.99776906722715        1.03618415952122
H           -0.35215620198129       -3.41239324256762       -0.12279423014780
H            1.89664922552866       -0.02692466888527        0.34230930364282
H            5.05714042301679        3.11921996881806        1.08567987337839
H            6.68066190353378        2.46408138307545        1.39334296625992
H            5.32124773686623        2.04503194488702        2.46044593575229
H            0.64370915900613       -0.79572191725893        2.04740587010167
