42
 energy: -83.629984001855 gnorm: 0.000632984926 xtb: 6.5.1 (579679a)
C            6.52591171438826       -1.39218871108374        0.73801838363740
O            5.52714712955892       -0.37611898889852        0.81140608096325
C            4.28078093019062       -0.74503850345482        0.42190873167916
O            4.05779515142058       -1.87657656287619        0.03915267090169
C            3.27660405281909        0.33314233074458        0.50793955225622
N            2.03857830253965       -0.05055280929831        0.07841122910871
C            1.06815012023627        0.84664112473607        0.11095145943226
C           -0.29084641944545        0.36313877111661       -0.41373722929001
C           -0.10297835829847        0.10357265939173       -1.92456660559113
C           -0.61768584632736       -0.96253492904232        0.30247820759621
N           -1.30801540884007        1.36168354841904       -0.07333429469547
C           -2.52618066138395        1.48949500724097       -0.98915232994558
C           -3.46037213584892        2.48510750612920       -0.20629893394731
O           -2.27668419381672        1.85222386495545       -2.21362509773869
C           -3.27185881727410        0.11058605377690       -0.89970549408158
N           -3.37512334719486       -0.78583273169123       -1.83211374074698
N           -4.21047412342060       -1.77725405151359       -1.35591086349942
C           -4.56748205197753       -1.40962247281988       -0.17211244963221
C           -5.47600103361384       -2.12300292850032        0.75896754291825
O           -4.01919704142741       -0.23114008552191        0.18211478255848
N            1.18158703008587        2.10472399372246        0.51680835210100
C            2.37267815436114        2.57474000929230        0.96894875914018
O            2.51544539323247        3.74756289486413        1.36543400067350
C            3.48992177277774        1.61644314729528        0.96102096767270
O            4.67493098497355        2.10559249053301        1.41880517806978
H            6.60975544514497       -1.77003207290114       -0.28456183239553
H            6.27539469296450       -2.22033880711586        1.40631893096987
H            7.46466262645702       -0.93710089714064        1.04503578511676
H           -0.99063298669195       -0.35105500067724       -2.36384323638724
H            0.74273461510754       -0.57286177076486       -2.06215017438690
H            0.10392823310797        1.03780885949578       -2.44663457634597
H            0.22900646398749       -1.64518941104805        0.22703879794215
H           -0.81928157344891       -0.76718870830720        1.35597807432349
H           -1.49050166829841       -1.44326707123824       -0.13567292539706
H           -0.85716943604367        2.28211340482251       -0.12065561587081
H           -3.02187240033404        3.48045731009298       -0.25499544619199
H           -4.43699846790837        2.50846146664316       -0.68724276095365
H           -3.57222272792771        2.18637366285145        0.83442399809245
H           -6.41238840863711       -1.57486647975463        0.86595982617237
H           -5.01980186160551       -2.20738341269681        1.74467628015471
H           -5.68933071825670       -3.11598328014754        0.37061546024577
H            5.37808787468114        1.44099658034870        1.40390155536926
