16
 energy: -34.296228681929 gnorm: 0.000389843110 xtb: 6.5.1 (579679a)
C           -3.61707392686562       -0.03277298181743       -0.07276580082803
O           -2.26613122011812       -0.31184860924860       -0.46160242954331
C           -1.31168816397705        0.24810880894315        0.27279265031176
O           -1.50824680713066        0.95472028892485        1.22975745840899
C            0.03210919933088       -0.10978681698300       -0.24243550810209
N            0.32775725689149       -0.84684200044220       -1.27174882520704
N            1.68251672880902       -0.87869049367313       -1.35393626683614
C            2.13442411950065       -0.15825105345720       -0.36990924801955
C            3.54557104251277        0.11843417895754       -0.02684817984921
O            1.14174366492571        0.35366963305957        0.36712867725670
H           -3.82296188897606        1.03321109973005       -0.18824410237253
H           -3.77314713616109       -0.32268933209108        0.96824847670085
H           -4.25508443327330       -0.61687154270588       -0.73200204921750
H            3.70948152699390        1.19374581014383        0.03311077646988
H            4.19754367200622       -0.31140815982860       -0.78281900008372
H            3.78318736553134       -0.31272882951178        0.94558937091093
