9
 energy: -15.748335344372 gnorm: 0.000481188837 xtb: 6.5.1 (579679a)
C            1.24387817198234       -0.06228876570153       -0.12948648325052
B           -0.31930692296353        0.01605444109838        0.04553660994431
O           -0.89186663517401        1.21191921393434        0.38933321230063
O           -1.06667606442808       -1.11247200001442       -0.16305640516444
H            1.75029503743461        0.72024501803314        0.43328656354833
H            1.63052305529706       -1.02972451048336        0.18816501804867
H            1.50878598931969        0.06351792760765       -1.18030404786325
H           -1.84097965124430        1.25505678668113        0.48069419196493
H           -2.01465198022380       -1.06230711115535       -0.06416865952866
