42
 energy: -82.874341077197 gnorm: 0.000432520224 xtb: 6.5.1 (579679a)
C           -6.73033375371751       -0.88075740040710        0.63629382479200
O           -5.53852470915545       -0.54687443097803       -0.08340013832485
C           -4.50870156952437       -0.12183512913090        0.63741184502623
O           -4.53235099892994       -0.00745787052052        1.83982067357526
C           -3.29869535151734        0.19460456028583       -0.19294501453228
N           -2.20533249506799        0.51322847742477        0.51357698990578
C           -1.05417906332891        0.70874852763884       -0.13600758361633
C            0.14795888936641        1.03144439322336        0.72312917113834
C            0.18160518030329        0.18329804652754        2.00353360147798
C            0.04006674634514        2.53472536842003        1.08924060448744
N            1.31942264683357        0.80177502238635       -0.06033371218760
C            2.67572296961828        0.90519888525117        0.44121414444006
C            3.45291466249934        1.75227489877870       -0.64795310953563
O            2.83478100413812        1.36094036547481        1.62592634285552
C            3.21639915520695       -0.54301607428458        0.25016836279884
N            2.66153326019924       -1.61410713874780        0.70922722647830
N            3.49658463247718       -2.64384526231554        0.37218726497191
C            4.49237901393979       -2.12965422227222       -0.27547269993452
C            5.66398140111322       -2.82508236958166       -0.85000203736195
O            4.37078083571776       -0.79176759204439       -0.38755343855750
N           -0.87243923591021        0.64031419742501       -1.43428876165703
C           -1.93274595365034        0.38913448227251       -2.25383199416411
O           -1.89105455012498        0.37620879696767       -3.47916825005279
C           -3.22664633808165        0.13010018362422       -1.57807882674245
O           -4.25743320286512       -0.08017424575823       -2.37409580698688
H           -7.44812106674402       -1.23474527581809       -0.10026409633057
H           -6.51780747930512       -1.66266792991610        1.36904032717144
H           -7.11579569450216        0.00250658843505        1.15056365291039
H            0.38969976016426       -0.85452113756420        1.74518877316751
H            0.95208150337811        0.54136183377340        2.68336701914591
H           -0.78918116235212        0.25423481133455        2.49075662212956
H           -0.88075971986490        2.69758798424105        1.64504754713152
H            0.89348757269547        2.81886598426408        1.70050543975322
H            0.02841826571779        3.12935434006268        0.17856916528024
H            1.17263481464612        0.67327672505673       -1.05605742329352
H            3.04483042826729        2.75772959042820       -0.62059134691692
H            4.49869887616702        1.75954264792508       -0.35617705630620
H            3.33138868928361        1.31003039155845       -1.63078699182260
H            6.57984186132129       -2.45353990747367       -0.39075382306694
H            5.72225409985430       -2.63218965103738       -1.92079211479076
H            5.57577863042449       -3.89459560813792       -0.67458289090741
H           -3.94314055503012       -0.10809385680179       -3.30163248155090
