42
 energy: -82.948619248686 gnorm: 0.000178975436 xtb: 6.5.1 (579679a)
C            5.39496009284547        1.88437617848761       -1.51759464561990
O            4.29216310412742        1.24276758857126       -0.87919240411787
C            4.32424707007435        1.20986465694541        0.46802037868922
O            5.23485608427567        1.69985255203278        1.10144183158591
C            3.14429096638902        0.52279732770852        1.03171961675111
N            2.26229050647599        0.03341017718835        0.12461108005132
C            1.20462512202477       -0.61035626425892        0.50371655222353
C            0.26138874203771       -1.17387813306316       -0.53150195191644
C            0.24921785095737       -2.70618324632688       -0.45417881169371
C            0.66824125954163       -0.68473382047142       -1.92254910694404
N           -1.09072642293743       -0.66280337797129       -0.19708448072845
C           -2.16063663251273       -0.95062829448296       -0.92719604415357
O           -2.21418010685427       -1.60090914360743       -1.94448057385487
C           -3.50721077493689       -0.34726822141396       -0.35333570921803
C           -4.48172429338879       -1.50738758117358       -0.14795526026543
N           -3.97175641760984        0.62078464846299       -1.28610079130508
N           -4.00947652360827        1.77557947833331       -0.70406628882055
C           -3.61929142048771        1.62271002097891        0.56222607634499
C           -3.55549418833373        2.67760533378848        1.58209966249948
O           -3.29881163362845        0.37739558556299        0.83948492484500
N            0.91972797811676       -0.82201151849755        1.82361107746716
C            1.71546149056208       -0.37756468328548        2.86526602972226
O            1.39641966801637       -0.61025341459289        4.01627311833176
C            2.95782236714850        0.38407199346060        2.44854090854707
O            3.71195101269112        0.82566413243448        3.31530277376121
H            5.48780849538246        2.91712686431189       -1.17039840851324
H            5.19211139882181        1.86538055875501       -2.58675025939448
H            6.32322392930706        1.34791904504063       -1.30199441766442
H           -0.11232517940938       -3.02910046836055        0.51980798592223
H           -0.40054179279925       -3.11497570619375       -1.22544546418989
H            1.25943153041760       -3.08403958339739       -0.60372539311521
H            1.68983348629940       -1.00220259617160       -2.12603882123457
H            0.00859485266679       -1.10118062203612       -2.68033725868705
H            0.62344913781936        0.40266794315293       -1.96149140438605
H           -1.20898046704926       -0.16245703845854        0.66834759067770
H           -4.08606241198519       -2.17915303257887        0.60950095252863
H           -5.44143726353587       -1.11383723143808        0.17761964645465
H           -4.59394643031205       -2.03712674947808       -1.09167080019422
H           -2.69776511380103        2.52268898848719        2.23435497771697
H           -3.51311515338652        3.65701521398835        1.11108827616890
H           -4.45479823957184        2.62449792768454        2.20071830762183
H            0.09616532015401       -1.33612348811030        2.08837452809571
