20
 energy: -37.645280970703 gnorm: 0.000692875371 xtb: 6.5.1 (579679a)
C            3.36014201632345       -1.41550675416605        0.26889447379491
O            1.95295189302119       -1.17162266915948        0.06897251689951
C            1.53715662535370        0.05977605356648        0.15997142667372
O            2.19284001833483        1.03927366023371        0.38640858393837
C            0.04518946662581        0.14041577893111       -0.05856691340485
O           -0.70206296482403       -0.91105131521095       -0.35362525305484
C           -1.95943223476120       -0.46086909828601       -0.45502832499249
C           -3.06622357481013       -1.36811292166560       -0.79888475266234
N           -2.01148705332490        0.82426844696340       -0.23191225520437
N           -0.74491950665599        1.18790518520994        0.01525875446542
C           -0.45932177717077        2.57637341494580        0.30426403793504
H            3.94092812976511       -0.75543846015523       -0.37670748016320
H            3.61134690382325       -1.22821801956626        1.31383655982382
H            3.52288505470774       -2.45940472111495        0.01150936046052
H           -2.87432365863568       -2.35840470806663       -0.39029789513578
H           -4.00467710288322       -0.97067296483285       -0.41873499136784
H           -3.13681141676793       -1.45446015311359       -1.88519242389430
H            0.60178494644876        2.68577520390265        0.50936265619150
H           -0.74993367631653        3.16825438206899       -0.56254583866489
H           -1.05603408825360        2.87171965951576        1.16575875836212
