46
 energy: -87.033645592191 gnorm: 0.000250949825 xtb: 6.5.1 (579679a)
C           -4.96402232031848        2.11301881435701        3.24411212672237
O           -3.83237750938543        1.52389890472226        2.63032024953177
C           -4.02594714985483        1.10109317149863        1.31966062779280
O           -5.16295695855826        1.23173535792005        0.79837551783533
C           -2.91070270434629        0.53604438219101        0.70273132302809
C           -2.94026654751920        0.13844295046666       -0.69934577708606
O           -4.07317296324826        0.39602467257192       -1.42698235614637
C           -1.83895949580144       -0.38121606399027       -1.26962323571806
O           -1.68014530023003       -0.67749012532645       -2.62404377735399
C           -2.63195884917563       -1.56103146641201       -3.19741627294330
N           -0.64504215231500       -0.67348129428269       -0.49935344618845
C           -0.45827206719274       -2.13621772233308       -0.36647038160437
C           -0.65347713714735        0.00103778947752        0.77893174849517
C            0.69292356048694        0.16074854408771        1.47591183545894
C            0.86734050100947       -0.89295605171849        2.58161075343455
C            0.77425860465481        1.56821735041340        2.08901541316504
N            1.73850290939113        0.01726441771460        0.45991629196500
C            3.05298225404661        0.11280179261958        0.69222290981332
O            3.58484064018839        0.26952073004720        1.78223878983898
C            3.82562632387212        0.01449447898850       -0.57978640230861
N            3.32497323774873       -0.08762630900522       -1.77390954961667
N            4.37806038511818       -0.11785075856270       -2.64164438058912
C            5.45230823455199       -0.03052400863811       -1.92037743155283
C            6.85563114120890       -0.01613335820236       -2.38941608446078
O            5.17160150149568        0.05710086343645       -0.61090003404977
N           -1.67448001098324        0.52784682487756        1.33122845528174
H           -5.29426038490881        3.00315906405539        2.69484202770227
H           -5.80046125223296        1.40597749586304        3.29667695113254
H           -4.66951936629142        2.40053214339943        4.25458998140406
H           -4.74939727953580        0.73824737080481       -0.77581483565992
H           -2.27260292687091       -1.80944216889837       -4.19845827299034
H           -2.72435917476562       -2.48445243176067       -2.61218492145156
H           -3.62103714450081       -1.09349923563383       -3.27790822468675
H            0.50556982474153       -2.33855555834420        0.09734334164665
H           -1.25679369070408       -2.58907101535561        0.23063508730094
H           -0.46100275043972       -2.56973245207320       -1.36575171952566
H            0.94441440794039       -1.89071091804297        2.15450770663032
H            0.00110287551843       -0.85817843908244        3.24121768273259
H            1.76563096777016       -0.69263701205211        3.16390722452069
H            0.71095847734106        2.32106492299186        1.30394465213823
H           -0.06145616569729        1.70445396934248        2.77458161522258
H            1.70818642789956        1.69722134495108        2.63330021248960
H            1.42041655314150       -0.10317850291280       -0.49764303234332
H            6.87907093175262       -0.09100624198655       -3.47363886370933
H            7.40401279955476       -0.85140064001514       -1.95488013011635
H            7.34425874261360        0.90644341782308       -2.07681139517113
