      -----------------------------------------------------------      
     |                   =====================                   |     
     |                           x T B                           |     
     |                   =====================                   |     
     |                         S. Grimme                         |     
     |          Mulliken Center for Theoretical Chemistry        |     
     |                    University of Bonn                     |     
      -----------------------------------------------------------      

   * xtb version 6.5.1 (579679a) compiled by 'ehlert@majestix' on 2022-07-11

   xtb is free software: you can redistribute it and/or modify it under
   the terms of the GNU Lesser General Public License as published by
   the Free Software Foundation, either version 3 of the License, or
   (at your option) any later version.
   
   xtb is distributed in the hope that it will be useful,
   but WITHOUT ANY WARRANTY; without even the implied warranty of
   MERCHANTABILITY or FITNESS FOR A PARTICULAR PURPOSE.  See the
   GNU Lesser General Public License for more details.
   
   Cite this work as:
   * C. Bannwarth, E. Caldeweyher, S. Ehlert, A. Hansen, P. Pracht,
     J. Seibert, S. Spicher, S. Grimme, WIREs Comput. Mol. Sci., 2020, 11,
     e01493. DOI: 10.1002/wcms.1493
   
   for GFN2-xTB:
   * C. Bannwarth, S. Ehlert and S. Grimme., J. Chem. Theory Comput., 2019,
     15, 1652-1671. DOI: 10.1021/acs.jctc.8b01176
   for GFN1-xTB:
   * S. Grimme, C. Bannwarth, P. Shushkov, J. Chem. Theory Comput., 2017,
     13, 1989-2009. DOI: 10.1021/acs.jctc.7b00118
   for GFN0-xTB:
   * P. Pracht, E. Caldeweyher, S. Ehlert, S. Grimme, ChemRxiv, 2019, preprint.
     DOI: 10.26434/chemrxiv.8326202.v1
   for GFN-FF:
   * S. Spicher and S. Grimme, Angew. Chem. Int. Ed., 2020, 59, 15665-15673.
     DOI: 10.1002/anie.202004239
   
   for ALPB and GBSA implicit solvation:
   * S. Ehlert, M. Stahn, S. Spicher, S. Grimme, J. Chem. Theory Comput.,
     2021, 17, 4250-4261. DOI: 10.1021/acs.jctc.1c00471
   
   for DFT-D4:
   * E. Caldeweyher, C. Bannwarth and S. Grimme, J. Chem. Phys., 2017,
     147, 034112. DOI: 10.1063/1.4993215
   * E. Caldeweyher, S. Ehlert, A. Hansen, H. Neugebauer, S. Spicher,
     C. Bannwarth and S. Grimme, J. Chem. Phys., 2019, 150, 154122.
     DOI: 10.1063/1.5090222
   * E. Caldeweyher, J.-M. Mewes, S. Ehlert and S. Grimme, Phys. Chem. Chem. Phys.
     2020, 22, 8499-8512. DOI: 10.1039/D0CP00502A
   
   for sTDA-xTB:
   * S. Grimme and C. Bannwarth, J. Chem. Phys., 2016, 145, 054103.
     DOI: 10.1063/1.4959605
   
   in the mass-spec context:
   * V. Asgeirsson, C. Bauer and S. Grimme, Chem. Sci., 2017, 8, 4879.
     DOI: 10.1039/c7sc00601b
   * J. Koopman and S. Grimme, ACS Omega 2019, 4, 12, 15120-15133.
     DOI: 10.1021/acsomega.9b02011
   
   for metadynamics refer to:
   * S. Grimme, J. Chem. Theory Comput., 2019, 155, 2847-2862
     DOI: 10.1021/acs.jctc.9b00143
   
   for SPH calculations refer to:
   * S. Spicher and S. Grimme, J. Chem. Theory Comput., 2021, 17, 1701-1714
     DOI: 10.1021/acs.jctc.0c01306
   
   with help from (in alphabetical order)
   P. Atkinson, C. Bannwarth, F. Bohle, G. Brandenburg, E. Caldeweyher
   M. Checinski, S. Dohm, S. Ehlert, S. Ehrlich, I. Gerasimov, C. Hölzer
   A. Katbashev, J. Koopman, C. Lavigne, S. Lehtola, F. März, M. Müller,
   F. Musil, H. Neugebauer, J. Pisarek, C. Plett, P. Pracht, F. Pultar,
   J. Seibert, P. Shushkov, S. Spicher, M. Stahn, M. Steiner, T. Strunk,
   J. Stückrath, T. Rose, and J. Unsleber
   
 * started run on 2023/06/20 at 14:53:20.402     

           -------------------------------------------------
          |                Calculation Setup                |
           -------------------------------------------------

          program call               : /lustre/hpc/kemi/ree/PhD/git/ReactivityQM/dep/xtb-6.5.1/bin/xtb --gfn 1 /lustre/hpc/kemi/ree/PhD/git/ReactivityQM/calculations/R01/reac01prodE03/conf02/R01_reac01prodE03_conf02_gfn1.xyz --opt --vfukui --chrg -1 --uhf 0 --alpb DMSO
          hostname                   : node312
          coordinate file            : /lustre/hpc/kemi/ree/PhD/git/ReactivityQM/calculations/R01/reac01prodE03/conf02/R01_reac01prodE03_conf02_gfn1.xyz
          omp threads                :                     1

   ID    Z sym.   atoms
    1    6 C      1, 3, 5, 6, 9, 10
    2    8 O      2, 4, 11
    3    7 N      7, 8
    4    1 H      12-20

           -------------------------------------------------
          |                 G F N 1 - x T B                 |
           -------------------------------------------------

        Reference                      10.1021/acs.jctc.7b00118
      * Hamiltonian:
        H0-scaling (s, p, d)           1.850000    2.250000    2.000000
        zeta-weighting                 0.000000
      * Dispersion:
        s8                             2.400000
        a1                             0.630000
        a2                             5.000000
        s9                             0.000000
      * Repulsion:
        kExp                           1.500000
        rExp                           1.000000
      * Coulomb:
        alpha                          2.000000
        third order                    atomic
        anisotropic                    false
      * Halogen bond correction:
        rad-scale                      1.300000
        damping                        0.440000

      * Solvation model:               ALPB
        Solvent                        DMSO
        Parameter file                 internal GFN1-xTB/ALPB
        Dielectric constant                4.6680E+01
        Reference state                gsolv [1 M gas/solution]
        Free energy shift                  7.6243E-03 Eh       4.7843E+00 kcal/mol
        Temperature                        2.9815E+02 K
        Density                            1.1000E+00 kg/L
        Solvent mass                       7.8130E+01 g/mol
        Interaction kernel             P16
        Born radius scaling (c1)           1.7672E+00
        Born radii integrator          GBOBC
        Born offset                        0.0000E+00 a0       0.0000E+00 AA
        H-bond correction              true
        Ion screening                  false
        Surface tension                    1.0000E-05 Eh       1.5569E+01 dyn/cm
        Grid points                               230 per atom

          ...................................................
          :                      SETUP                      :
          :.................................................:
          :  # basis functions                  62          :
          :  # atomic orbitals                  62          :
          :  # shells                           40          :
          :  # electrons                        62          :
          :  # halogen bonds                     0          :
          :  max. iterations                   250          :
          :  Hamiltonian                  GFN1-xTB          :
          :  restarted?                      false          :
          :  GBSA solvation                   true          :
          :  PC potential                    false          :
          :  electronic temp.          300.0000000     K    :
          :  accuracy                    1.0000000          :
          :  -> integral cutoff          0.2500000E+02      :
          :  -> integral neglect         0.1000000E-07      :
          :  -> SCF convergence          0.1000000E-05 Eh   :
          :  -> wf. convergence          0.2000000E-04 e    :
          :  Broyden damping             0.4000000          :
          ...................................................

 iter      E             dE          RMSdq      gap      omega  full diag
   1    -38.4406486 -0.384406E+02  0.833E+00    2.94       0.0  T
   2    -38.5943204 -0.153672E+00  0.504E+00    0.91       1.0  T
   3    -38.5701516  0.241688E-01  0.233E+00    0.97       1.0  T
   4    -38.6147440 -0.445924E-01  0.469E-01    0.70       1.0  T
   5    -38.6181039 -0.335985E-02  0.961E-02    0.73       1.0  T
   6    -38.6183001 -0.196203E-03  0.273E-02    0.80       1.0  T
   7    -38.6183160 -0.158875E-04  0.641E-03    0.78       3.5  T
   8    -38.6183163 -0.299954E-06  0.227E-03    0.78       9.9  T
   9    -38.6183163 -0.333263E-07  0.568E-04    0.78      39.4  T
  10    -38.6183163 -0.138279E-08  0.166E-04    0.78     134.4  T
  11    -38.6183163 -0.112728E-09  0.331E-05    0.78     676.2  T

   *** convergence criteria satisfied after 11 iterations ***

         #    Occupation            Energy/Eh            Energy/eV
      -------------------------------------------------------------
         1        2.0000           -0.8115670             -22.0839
       ...           ...                  ...                  ...
        25        2.0000           -0.4642833             -12.6338
        26        2.0000           -0.4520496             -12.3009
        27        2.0000           -0.4276266             -11.6363
        28        2.0000           -0.4043558             -11.0031
        29        2.0000           -0.3819812             -10.3942
        30        2.0000           -0.3434720              -9.3463
        31        2.0000           -0.2691098              -7.3229 (HOMO)
        32        0.0000           -0.2403730              -6.5409 (LUMO)
        33                         -0.1591773              -4.3314
        34                         -0.1248327              -3.3969
        35                         -0.1066723              -2.9027
        36                         -0.0928207              -2.5258
       ...                                ...                  ...
        62                          0.7012793              19.0828
      -------------------------------------------------------------
                  HL-Gap            0.0287368 Eh            0.7820 eV
             Fermi-level           -0.2547414 Eh           -6.9319 eV

 SCC (total)                   0 d,  0 h,  0 min,  0.026 sec
 SCC setup                      ...        0 min,  0.001 sec (  2.540%)
 Dispersion                     ...        0 min,  0.000 sec (  0.348%)
 classical contributions        ...        0 min,  0.000 sec (  0.149%)
 integral evaluation            ...        0 min,  0.006 sec ( 22.709%)
 iterations                     ...        0 min,  0.007 sec ( 27.490%)
 molecular gradient             ...        0 min,  0.012 sec ( 45.966%)
 printout                       ...        0 min,  0.000 sec (  0.678%)

         :::::::::::::::::::::::::::::::::::::::::::::::::::::
         ::                     SUMMARY                     ::
         :::::::::::::::::::::::::::::::::::::::::::::::::::::
         :: total energy             -38.308461451511 Eh    ::
         :: total w/o Gsasa/hb       -38.300826784416 Eh    ::
         :: gradient norm              0.138434507384 Eh/a0 ::
         :: HOMO-LUMO gap              0.781968947012 eV    ::
         ::.................................................::
         :: SCC energy               -38.618316318228 Eh    ::
         :: -> electrostatic           0.281094617938 Eh    ::
         :: -> Gsolv                  -0.104746467163 Eh    ::
         ::    -> Gelec               -0.097111800069 Eh    ::
         ::    -> Gsasa               -0.014390059371 Eh    ::
         ::    -> Ghb                 -0.000868886729 Eh    ::
         ::    -> Gshift               0.007624279005 Eh    ::
         :: repulsion energy           0.318544730209 Eh    ::
         :: dispersion energy         -0.008689863492 Eh    ::
         :: halogen bond corr.         0.000000000000 Eh    ::
         :: add. restraining           0.000000000000 Eh    ::
         :: total charge              -1.000000000000 e     ::
         :::::::::::::::::::::::::::::::::::::::::::::::::::::

      ----------------------------------------------------------- 
     |                   =====================                   |
     |                        A N C O P T                        |
     |                   =====================                   |
     |               Approximate Normal Coordinate               |
     |                Rational Function Optimizer                |
      ----------------------------------------------------------- 

          ...................................................
          :                      SETUP                      :
          :.................................................:
          :   optimization level            normal          :
          :   max. optcycles                   200          :
          :   ANC micro-cycles                  20          :
          :   degrees of freedom                54          :
          :.................................................:
          :   RF solver                   davidson          :
          :   write xtbopt.log                true          :
          :   linear?                        false          :
          :   energy convergence         0.5000000E-05 Eh   :
          :   grad. convergence          0.1000000E-02 Eh/α :
          :   maximium RF displ.         1.0000000          :
          :   Hlow (freq-cutoff)         0.1000000E-01      :
          :   Hmax (freq-cutoff)         5.0000000          :
          :   S6 in model hess.         20.0000000          :
          ...................................................

generating ANC from model Hessian ...
Using Lindh-Hessian (1995)
 Shifting diagonal of input Hessian by   8.278864145020748E-003
 Lowest  eigenvalues of input Hessian
    0.000000    0.000000    0.000000    0.000000    0.000000    0.000000
    0.010000    0.010567    0.012891    0.014367    0.016805    0.019042
    0.026066    0.027490    0.029245    0.037926    0.040068    0.048667
 Highest eigenvalues
    1.384451    1.576318    1.682721    1.820561    1.978284    2.244772
 

........................................................................
.............................. CYCLE    1 ..............................
........................................................................
   1    -38.6183163 -0.386183E+02  0.731E-06    0.78       0.0  T
   2    -38.6183163 -0.362377E-12  0.482E-06    0.78    4642.0  T
   3    -38.6183163 -0.284217E-13  0.222E-06    0.78   10084.8  T
     SCC iter.                  ...        0 min,  0.003 sec
     gradient                   ...        0 min,  0.022 sec
 * total energy  :   -38.3084615 Eh     change       -0.1305978E-10 Eh
   gradient norm :     0.1384349 Eh/α   predicted     0.0000000E+00 (-100.00%)
   displ. norm   :     0.2370515 α      lambda       -0.1673291E-01
   maximum displ.:     0.1138588 α      in ANC's #10, #32, #8, ...

........................................................................
.............................. CYCLE    2 ..............................
........................................................................
   1    -38.6247874 -0.386248E+02  0.203E-01    1.10       0.0  T
   2    -38.6253484 -0.560974E-03  0.134E-01    1.13       1.0  T
   3    -38.6256646 -0.316162E-03  0.390E-02    1.14       1.0  T
   4    -38.6256655 -0.963880E-06  0.136E-02    1.14       1.6  T
   5    -38.6256658 -0.309760E-06  0.185E-03    1.14      12.1  T
   6    -38.6256659 -0.484705E-07  0.683E-04    1.14      32.7  T
   7    -38.6256659 -0.464034E-08  0.320E-04    1.14      69.8  T
   8    -38.6256659 -0.624034E-09  0.606E-05    1.14     369.1  T
   9    -38.6256659 -0.149640E-10  0.113E-05    1.14    1979.8  T
     SCC iter.                  ...        0 min,  0.007 sec
     gradient                   ...        0 min,  0.021 sec
 * total energy  :   -38.3200849 Eh     change       -0.1162342E-01 Eh
   gradient norm :     0.0652783 Eh/α   predicted    -0.8840107E-02 ( -23.95%)
   displ. norm   :     0.2438241 α      lambda       -0.6620333E-02
   maximum displ.:     0.1182424 α      in ANC's #10, #8, #1, ...

........................................................................
.............................. CYCLE    3 ..............................
........................................................................
   1    -38.6301658 -0.386302E+02  0.177E-01    1.37       0.0  T
   2    -38.6306622 -0.496376E-03  0.114E-01    1.35       1.0  T
   3    -38.6308814 -0.219189E-03  0.331E-02    1.36       1.0  T
   4    -38.6308817 -0.283413E-06  0.114E-02    1.37       2.0  T
   5    -38.6308819 -0.253063E-06  0.187E-03    1.37      12.0  T
   6    -38.6308820 -0.498709E-07  0.599E-04    1.37      37.3  T
   7    -38.6308820 -0.279856E-08  0.218E-04    1.37     102.7  T
   8    -38.6308820 -0.226230E-09  0.321E-05    1.37     697.6  T
   9    -38.6308820 -0.500222E-11  0.946E-06    1.37    2364.4  T
     SCC iter.                  ...        0 min,  0.007 sec
     gradient                   ...        0 min,  0.022 sec
 * total energy  :   -38.3238889 Eh     change       -0.3804074E-02 Eh
   gradient norm :     0.0116674 Eh/α   predicted    -0.3506971E-02 (  -7.81%)
   displ. norm   :     0.2298051 α      lambda       -0.1087161E-02
   maximum displ.:     0.1334396 α      in ANC's #1, #7, #4, ...

........................................................................
.............................. CYCLE    4 ..............................
........................................................................
   1    -38.6309156 -0.386309E+02  0.486E-02    1.39       0.0  T
   2    -38.6309452 -0.296932E-04  0.267E-02    1.43       1.0  T
   3    -38.6309521 -0.688638E-05  0.123E-02    1.43       1.8  T
   4    -38.6309525 -0.390875E-06  0.426E-03    1.43       5.2  T
   5    -38.6309526 -0.498470E-07  0.897E-04    1.43      24.9  T
   6    -38.6309526 -0.145912E-07  0.204E-04    1.43     109.5  T
   7    -38.6309526 -0.588017E-09  0.838E-05    1.43     266.8  T
   8    -38.6309526 -0.271285E-10  0.242E-05    1.43     925.1  T
     SCC iter.                  ...        0 min,  0.006 sec
     gradient                   ...        0 min,  0.021 sec
 * total energy  :   -38.3247125 Eh     change       -0.8235292E-03 Eh
   gradient norm :     0.0088189 Eh/α   predicted    -0.5723447E-03 ( -30.50%)
   displ. norm   :     0.3521565 α      lambda       -0.1046513E-02
   maximum displ.:     0.1995543 α      in ANC's #1, #7, #2, ...

........................................................................
.............................. CYCLE    5 ..............................
........................................................................
   1    -38.6296708 -0.386297E+02  0.568E-02    1.42       0.0  T
   2    -38.6297177 -0.469279E-04  0.250E-02    1.49       1.0  T
   3    -38.6297245 -0.675661E-05  0.126E-02    1.48       1.8  T
   4    -38.6297250 -0.522066E-06  0.505E-03    1.48       4.4  T
   5    -38.6297250 -0.210628E-07  0.129E-03    1.48      17.3  T
   6    -38.6297251 -0.311329E-07  0.326E-04    1.48      68.7  T
   7    -38.6297251 -0.161968E-08  0.925E-05    1.48     241.8  T
   8    -38.6297251 -0.325855E-10  0.340E-05    1.48     656.9  T
     SCC iter.                  ...        0 min,  0.006 sec
     gradient                   ...        0 min,  0.021 sec
 * total energy  :   -38.3254140 Eh     change       -0.7015057E-03 Eh
   gradient norm :     0.0133940 Eh/α   predicted    -0.5881646E-03 ( -16.16%)
   displ. norm   :     0.2601279 α      lambda       -0.5073288E-03
   maximum displ.:     0.1526050 α      in ANC's #1, #2, #7, ...

........................................................................
.............................. CYCLE    6 ..............................
........................................................................
   1    -38.6301577 -0.386302E+02  0.362E-02    1.48       0.0  T
   2    -38.6301855 -0.277244E-04  0.139E-02    1.53       1.6  T
   3    -38.6301890 -0.359055E-05  0.526E-03    1.52       4.3  T
   4    -38.6301891 -0.963507E-07  0.254E-03    1.52       8.8  T
   5    -38.6301891 -0.615827E-09  0.611E-04    1.52      36.6  T
   6    -38.6301891 -0.349612E-08  0.190E-04    1.52     117.5  T
   7    -38.6301891 -0.635069E-09  0.495E-05    1.52     451.7  T
     SCC iter.                  ...        0 min,  0.006 sec
     gradient                   ...        0 min,  0.019 sec
 * total energy  :   -38.3258090 Eh     change       -0.3950401E-03 Eh
   gradient norm :     0.0144420 Eh/α   predicted    -0.2708352E-03 ( -31.44%)
   displ. norm   :     0.3389148 α      lambda       -0.7346033E-03
   maximum displ.:     0.2007768 α      in ANC's #1, #2, #7, ...

........................................................................
.............................. CYCLE    7 ..............................
........................................................................
   1    -38.6321459 -0.386321E+02  0.456E-02    1.54       0.0  T
   2    -38.6321947 -0.488087E-04  0.190E-02    1.60       1.2  T
   3    -38.6322003 -0.556166E-05  0.774E-03    1.59       2.9  T
   4    -38.6322004 -0.988978E-07  0.392E-03    1.59       5.7  T
   5    -38.6322004 -0.161514E-07  0.681E-04    1.59      32.8  T
   6    -38.6322004 -0.393989E-08  0.167E-04    1.59     134.0  T
   7    -38.6322004 -0.256144E-09  0.708E-05    1.59     315.9  T
     SCC iter.                  ...        0 min,  0.004 sec
     gradient                   ...        0 min,  0.022 sec
 * total energy  :   -38.3263734 Eh     change       -0.5643682E-03 Eh
   gradient norm :     0.0119143 Eh/α   predicted    -0.4094903E-03 ( -27.44%)
   displ. norm   :     0.3816435 α      lambda       -0.7605569E-03
   maximum displ.:     0.2350823 α      in ANC's #2, #1, #9, ...

........................................................................
.............................. CYCLE    8 ..............................
........................................................................
   1    -38.6338994 -0.386339E+02  0.514E-02    1.63       0.0  T
   2    -38.6339602 -0.608180E-04  0.215E-02    1.69       1.0  T
   3    -38.6339672 -0.701914E-05  0.828E-03    1.68       2.7  T
   4    -38.6339673 -0.125039E-06  0.459E-03    1.68       4.9  T
   5    -38.6339674 -0.375269E-07  0.838E-04    1.68      26.7  T
   6    -38.6339674 -0.743851E-08  0.339E-04    1.68      66.0  T
   7    -38.6339674 -0.153521E-08  0.796E-05    1.68     281.1  T
   8    -38.6339674 -0.316049E-10  0.200E-05    1.68    1117.1  T
     SCC iter.                  ...        0 min,  0.007 sec
     gradient                   ...        0 min,  0.020 sec
 * total energy  :   -38.3269666 Eh     change       -0.5931893E-03 Eh
   gradient norm :     0.0105816 Eh/α   predicted    -0.4356709E-03 ( -26.55%)
   displ. norm   :     0.4605995 α      lambda       -0.7547723E-03
   maximum displ.:     0.3033445 α      in ANC's #2, #1, #9, ...

........................................................................
.............................. CYCLE    9 ..............................
........................................................................
   1    -38.6331938 -0.386332E+02  0.678E-02    1.71       0.0  T
   2    -38.6333070 -0.113278E-03  0.280E-02    1.81       1.0  T
   3    -38.6333243 -0.172833E-04  0.588E-03    1.79       3.8  T
   4    -38.6333245 -0.193892E-06  0.332E-03    1.79       6.7  T
   5    -38.6333245 -0.158135E-07  0.109E-03    1.79      20.6  T
   6    -38.6333245 -0.484549E-08  0.419E-04    1.79      53.3  T
   7    -38.6333245 -0.205272E-08  0.713E-05    1.79     313.5  T
   8    -38.6333245 -0.189075E-10  0.306E-05    1.79     731.6  T
     SCC iter.                  ...        0 min,  0.004 sec
     gradient                   ...        0 min,  0.021 sec
 * total energy  :   -38.3275453 Eh     change       -0.5786784E-03 Eh
   gradient norm :     0.0124646 Eh/α   predicted    -0.4574495E-03 ( -20.95%)
   displ. norm   :     0.4116897 α      lambda       -0.7805782E-03
   maximum displ.:     0.2752115 α      in ANC's #2, #4, #8, ...

........................................................................
.............................. CYCLE   10 ..............................
........................................................................
   1    -38.6370207 -0.386370E+02  0.356E-02    1.95       0.0  T
   2    -38.6370355 -0.147749E-04  0.172E-02    1.95       1.3  T
   3    -38.6370366 -0.114070E-05  0.925E-03    1.96       2.4  T
   4    -38.6370367 -0.893458E-07  0.358E-03    1.95       6.2  T
   5    -38.6370368 -0.105983E-06  0.427E-04    1.96      52.4  T
   6    -38.6370368 -0.209996E-08  0.200E-04    1.96     111.7  T
   7    -38.6370368 -0.463601E-09  0.514E-05    1.96     435.3  T
   8    -38.6370368 -0.135145E-10  0.521E-06    1.96    4294.8  T
     SCC iter.                  ...        0 min,  0.006 sec
     gradient                   ...        0 min,  0.021 sec
 * total energy  :   -38.3278613 Eh     change       -0.3159983E-03 Eh
   gradient norm :     0.0167873 Eh/α   predicted    -0.4564365E-03 (  44.44%)
   displ. norm   :     0.4829072 α      lambda       -0.7914448E-03
   maximum displ.:     0.3498218 α      in ANC's #2, #1, #9, ...

........................................................................
.............................. CYCLE   11 ..............................
........................................................................
   1    -38.6290978 -0.386291E+02  0.119E-01    1.85       0.0  T
   2    -38.6294233 -0.325509E-03  0.599E-02    2.01       1.0  T
   3    -38.6295043 -0.809982E-04  0.153E-02    1.97       1.5  T
   4    -38.6295046 -0.272281E-06  0.823E-03    1.97       2.7  T
   5    -38.6295046 -0.183883E-08  0.165E-03    1.97      13.6  T
   6    -38.6295046 -0.288131E-07  0.382E-04    1.97      58.5  T
   7    -38.6295046 -0.284712E-08  0.141E-04    1.97     159.0  T
   8    -38.6295046 -0.128757E-09  0.610E-05    1.97     366.4  T
     SCC iter.                  ...        0 min,  0.006 sec
     gradient                   ...        0 min,  0.022 sec
 * total energy  :   -38.3280593 Eh     change       -0.1980689E-03 Eh
   gradient norm :     0.0174592 Eh/α   predicted    -0.4880154E-03 ( 146.39%)
   displ. norm   :     0.1984328 α      lambda       -0.4285543E-03
   maximum displ.:     0.1221828 α      in ANC's #1, #2, #9, ...

........................................................................
.............................. CYCLE   12 ..............................
........................................................................
   1    -38.6353420 -0.386353E+02  0.614E-02    2.02       0.0  T
   2    -38.6354199 -0.779645E-04  0.288E-02    1.95       1.0  T
   3    -38.6354368 -0.168425E-04  0.775E-03    1.96       2.9  T
   4    -38.6354369 -0.133796E-06  0.396E-03    1.96       5.6  T
   5    -38.6354369 -0.168660E-07  0.110E-03    1.96      20.3  T
   6    -38.6354369 -0.997032E-08  0.320E-04    1.96      69.8  T
   7    -38.6354369 -0.156479E-08  0.598E-05    1.96     373.8  T
   8    -38.6354369 -0.154827E-10  0.235E-05    1.96     953.0  T
     SCC iter.                  ...        0 min,  0.006 sec
     gradient                   ...        0 min,  0.021 sec
 * total energy  :   -38.3282640 Eh     change       -0.2047004E-03 Eh
   gradient norm :     0.0051700 Eh/α   predicted    -0.2227224E-03 (   8.80%)
   displ. norm   :     0.1347340 α      lambda       -0.9904797E-04
   maximum displ.:     0.1151469 α      in ANC's #2, #5, #8, ...

........................................................................
.............................. CYCLE   13 ..............................
........................................................................
   1    -38.6353307 -0.386353E+02  0.120E-02    2.00       0.0  T
   2    -38.6353324 -0.172074E-05  0.496E-03    2.00       4.5  T
   3    -38.6353324 -0.222414E-07  0.303E-03    2.00       7.4  T
   4    -38.6353324  0.363068E-08  0.953E-04    2.00      23.5  T
   5    -38.6353325 -0.149811E-07  0.110E-04    2.00     203.2  T
   6    -38.6353325 -0.169607E-09  0.326E-05    2.00     685.7  T
     SCC iter.                  ...        0 min,  0.005 sec
     gradient                   ...        0 min,  0.021 sec
 * total energy  :   -38.3283229 Eh     change       -0.5884907E-04 Eh
   gradient norm :     0.0041325 Eh/α   predicted    -0.5042377E-04 ( -14.32%)
   displ. norm   :     0.2463719 α      lambda       -0.1352709E-03
   maximum displ.:     0.2009239 α      in ANC's #2, #5, #4, ...

........................................................................
.............................. CYCLE   14 ..............................
........................................................................
   1    -38.6353762 -0.386354E+02  0.254E-02    2.01       0.0  T
   2    -38.6353906 -0.144199E-04  0.129E-02    2.03       1.7  T
   3    -38.6353938 -0.323431E-05  0.247E-03    2.03       9.0  T
   4    -38.6353939 -0.217359E-07  0.153E-03    2.03      14.7  T
   5    -38.6353939 -0.147858E-08  0.446E-04    2.03      50.1  T
   6    -38.6353939 -0.182960E-08  0.149E-04    2.03     150.0  T
   7    -38.6353939 -0.267079E-09  0.316E-05    2.03     706.5  T
     SCC iter.                  ...        0 min,  0.006 sec
     gradient                   ...        0 min,  0.022 sec
 * total energy  :   -38.3284019 Eh     change       -0.7901317E-04 Eh
   gradient norm :     0.0038191 Eh/α   predicted    -0.7175535E-04 (  -9.19%)
   displ. norm   :     0.1188206 α      lambda       -0.5370511E-04
   maximum displ.:     0.0949687 α      in ANC's #2, #5, #1, ...

........................................................................
.............................. CYCLE   15 ..............................
........................................................................
   1    -38.6353510 -0.386354E+02  0.854E-03    2.03       0.0  T
   2    -38.6353524 -0.141342E-05  0.421E-03    2.04       5.3  T
   3    -38.6353527 -0.302327E-06  0.138E-03    2.03      16.3  T
   4    -38.6353527 -0.318882E-08  0.690E-04    2.03      32.4  T
   5    -38.6353527 -0.272316E-09  0.141E-04    2.03     158.3  T
   6    -38.6353527 -0.411603E-09  0.475E-05    2.03     471.1  T
     SCC iter.                  ...        0 min,  0.005 sec
     gradient                   ...        0 min,  0.021 sec
 * total energy  :   -38.3284461 Eh     change       -0.4423043E-04 Eh
   gradient norm :     0.0038651 Eh/α   predicted    -0.2723315E-04 ( -38.43%)
   displ. norm   :     0.2730655 α      lambda       -0.1271045E-03
   maximum displ.:     0.1866405 α      in ANC's #2, #1, #5, ...

........................................................................
.............................. CYCLE   16 ..............................
........................................................................
   1    -38.6351239 -0.386351E+02  0.136E-02    2.03       0.0  T
   2    -38.6351272 -0.336003E-05  0.812E-03    2.04       2.8  T
   3    -38.6351285 -0.130723E-05  0.152E-03    2.04      14.7  T
   4    -38.6351285 -0.223790E-08  0.613E-04    2.04      36.5  T
   5    -38.6351285 -0.441581E-09  0.189E-04    2.04     118.1  T
   6    -38.6351285 -0.482132E-09  0.490E-05    2.04     455.9  T
     SCC iter.                  ...        0 min,  0.005 sec
     gradient                   ...        0 min,  0.026 sec
 * total energy  :   -38.3285303 Eh     change       -0.8422447E-04 Eh
   gradient norm :     0.0033897 Eh/α   predicted    -0.6829992E-04 ( -18.91%)
   displ. norm   :     0.1722395 α      lambda       -0.5608516E-04
   maximum displ.:     0.1025415 α      in ANC's #1, #2, #6, ...

........................................................................
.............................. CYCLE   17 ..............................
........................................................................
   1    -38.6351653 -0.386352E+02  0.504E-03    2.04       0.0  T
   2    -38.6351656 -0.324046E-06  0.287E-03    2.04       7.8  T
   3    -38.6351657 -0.105567E-06  0.135E-03    2.04      16.6  T
   4    -38.6351657 -0.250998E-08  0.332E-04    2.04      67.3  T
   5    -38.6351657 -0.717080E-10  0.423E-05    2.04     528.7  T
   6    -38.6351657 -0.183746E-10  0.189E-05    2.04    1184.7  T
     SCC iter.                  ...        0 min,  0.005 sec
     gradient                   ...        0 min,  0.022 sec
 * total energy  :   -38.3285693 Eh     change       -0.3899016E-04 Eh
   gradient norm :     0.0036215 Eh/α   predicted    -0.2887624E-04 ( -25.94%)
   displ. norm   :     0.1770928 α      lambda       -0.4876205E-04
   maximum displ.:     0.1040523 α      in ANC's #1, #2, #6, ...

........................................................................
.............................. CYCLE   18 ..............................
........................................................................
   1    -38.6351492 -0.386351E+02  0.750E-03    2.04       0.0  T
   2    -38.6351507 -0.151682E-05  0.390E-03    2.04       5.7  T
   3    -38.6351509 -0.221616E-06  0.148E-03    2.04      15.1  T
   4    -38.6351509 -0.218564E-08  0.794E-04    2.04      28.2  T
   5    -38.6351509 -0.123175E-08  0.162E-04    2.04     138.3  T
   6    -38.6351509 -0.255980E-09  0.432E-05    2.04     518.1  T
     SCC iter.                  ...        0 min,  0.005 sec
     gradient                   ...        0 min,  0.023 sec
 * total energy  :   -38.3286018 Eh     change       -0.3249014E-04 Eh
   gradient norm :     0.0035315 Eh/α   predicted    -0.2515079E-04 ( -22.59%)
   displ. norm   :     0.0936918 α      lambda       -0.3586656E-04
   maximum displ.:     0.0631980 α      in ANC's #1, #6, #3, ...

........................................................................
.............................. CYCLE   19 ..............................
........................................................................
   1    -38.6359245 -0.386359E+02  0.532E-03    2.05       0.0  T
   2    -38.6359250 -0.502135E-06  0.323E-03    2.05       6.9  T
   3    -38.6359252 -0.135204E-06  0.124E-03    2.05      18.0  T
   4    -38.6359252 -0.113923E-08  0.519E-04    2.05      43.1  T
   5    -38.6359252 -0.660016E-09  0.756E-05    2.05     295.7  T
   6    -38.6359252 -0.748841E-10  0.350E-05    2.05     639.5  T
     SCC iter.                  ...        0 min,  0.005 sec
     gradient                   ...        0 min,  0.021 sec
 * total energy  :   -38.3286252 Eh     change       -0.2338994E-04 Eh
   gradient norm :     0.0028930 Eh/α   predicted    -0.1809230E-04 ( -22.65%)
   displ. norm   :     0.0991756 α      lambda       -0.2465183E-04
   maximum displ.:     0.0509321 α      in ANC's #2, #6, #1, ...

........................................................................
.............................. CYCLE   20 ..............................
........................................................................
   1    -38.6354251 -0.386354E+02  0.123E-02    2.06       0.0  T
   2    -38.6354284 -0.324940E-05  0.516E-03    2.07       4.3  T
   3    -38.6354290 -0.589439E-06  0.132E-03    2.07      16.9  T
   4    -38.6354290 -0.108195E-07  0.783E-04    2.07      28.6  T
   5    -38.6354290 -0.318060E-09  0.242E-04    2.07      92.3  T
   6    -38.6354290 -0.267555E-09  0.734E-05    2.07     304.7  T
   7    -38.6354290 -0.930243E-10  0.147E-05    2.07    1516.1  T
     SCC iter.                  ...        0 min,  0.006 sec
     gradient                   ...        0 min,  0.020 sec
 * total energy  :   -38.3286411 Eh     change       -0.1586392E-04 Eh
   gradient norm :     0.0025093 Eh/α   predicted    -0.1246305E-04 ( -21.44%)
   displ. norm   :     0.0559256 α      lambda       -0.2175740E-04
   maximum displ.:     0.0307454 α      in ANC's #6, #2, #3, ...
 * RMSD in coord.:     0.7166586 α      energy gain  -0.2017962E-01 Eh

generating ANC from model Hessian ...
Using Lindh-Hessian (1995)
 Shifting diagonal of input Hessian by   8.344919326001329E-003
 Lowest  eigenvalues of input Hessian
    0.000000    0.000000    0.000000    0.000000    0.000000    0.000000
    0.010000    0.010977    0.012764    0.014702    0.017100    0.018714
    0.025435    0.028604    0.029096    0.035702    0.039241    0.051609
 Highest eigenvalues
    1.405514    1.448341    1.685535    1.738924    2.055324    2.215145
 

........................................................................
.............................. CYCLE   21 ..............................
........................................................................
   1    -38.6362997 -0.386363E+02  0.857E-03    2.08       0.0  T
   2    -38.6363009 -0.125757E-05  0.417E-03    2.08       5.4  T
   3    -38.6363012 -0.278940E-06  0.157E-03    2.08      14.3  T
   4    -38.6363012 -0.492256E-08  0.795E-04    2.08      28.1  T
   5    -38.6363012 -0.694193E-09  0.796E-05    2.08     280.8  T
   6    -38.6363012 -0.146500E-09  0.356E-05    2.08     628.5  T
     SCC iter.                  ...        0 min,  0.003 sec
     gradient                   ...        0 min,  0.015 sec
 * total energy  :   -38.3286531 Eh     change       -0.1202339E-04 Eh
   gradient norm :     0.0026637 Eh/α   predicted     0.0000000E+00 (-100.00%)
   displ. norm   :     0.0172913 α      lambda       -0.1007008E-04
   maximum displ.:     0.0085240 α      in ANC's #8, #2, #5, ...

........................................................................
.............................. CYCLE   22 ..............................
........................................................................
   1    -38.6359364 -0.386359E+02  0.470E-03    2.08       0.0  T
   2    -38.6359370 -0.568491E-06  0.241E-03    2.08       9.3  T
   3    -38.6359371 -0.985134E-07  0.775E-04    2.08      28.9  T
   4    -38.6359371 -0.234458E-09  0.375E-04    2.08      59.6  T
   5    -38.6359371 -0.168399E-09  0.631E-05    2.08     354.2  T
   6    -38.6359371 -0.327987E-10  0.162E-05    2.08    1379.0  T
     SCC iter.                  ...        0 min,  0.003 sec
     gradient                   ...        0 min,  0.012 sec
 * total energy  :   -38.3286631 Eh     change       -0.1003563E-04 Eh
   gradient norm :     0.0013082 Eh/α   predicted    -0.6778524E-05 ( -32.46%)
   displ. norm   :     0.0503732 α      lambda       -0.1276495E-04
   maximum displ.:     0.0246293 α      in ANC's #8, #2, #9, ...

........................................................................
.............................. CYCLE   23 ..............................
........................................................................
   1    -38.6354046 -0.386354E+02  0.921E-03    2.08       0.0  T
   2    -38.6354067 -0.215972E-05  0.477E-03    2.09       4.7  T
   3    -38.6354071 -0.376225E-06  0.132E-03    2.08      16.9  T
   4    -38.6354071 -0.175320E-08  0.735E-04    2.08      30.4  T
   5    -38.6354071 -0.807162E-09  0.180E-04    2.08     124.2  T
   6    -38.6354071 -0.345089E-09  0.576E-05    2.08     387.9  T
     SCC iter.                  ...        0 min,  0.003 sec
     gradient                   ...        0 min,  0.023 sec
 * total energy  :   -38.3286732 Eh     change       -0.1006821E-04 Eh
   gradient norm :     0.0016992 Eh/α   predicted    -0.6390526E-05 ( -36.53%)
   displ. norm   :     0.0300447 α      lambda       -0.5078612E-05
   maximum displ.:     0.0143413 α      in ANC's #2, #8, #3, ...

........................................................................
.............................. CYCLE   24 ..............................
........................................................................
   1    -38.6356009 -0.386356E+02  0.359E-03    2.09       0.0  T
   2    -38.6356011 -0.204332E-06  0.203E-03    2.09      11.0  T
   3    -38.6356011 -0.706947E-07  0.492E-04    2.09      45.5  T
   4    -38.6356011 -0.232042E-09  0.219E-04    2.09     102.0  T
   5    -38.6356011 -0.962572E-10  0.332E-05    2.09     674.4  T
   6    -38.6356011 -0.547828E-11  0.126E-05    2.09    1775.6  T
     SCC iter.                  ...        0 min,  0.005 sec
     gradient                   ...        0 min,  0.021 sec
 * total energy  :   -38.3286796 Eh     change       -0.6434223E-05 Eh
   gradient norm :     0.0012724 Eh/α   predicted    -0.2622003E-05 ( -59.25%)
   displ. norm   :     0.0778738 α      lambda       -0.9430664E-05
   maximum displ.:     0.0405912 α      in ANC's #3, #2, #8, ...

........................................................................
.............................. CYCLE   25 ..............................
........................................................................
   1    -38.6358259 -0.386358E+02  0.644E-03    2.10       0.0  T
   2    -38.6358266 -0.721878E-06  0.297E-03    2.11       7.5  T
   3    -38.6358267 -0.153628E-06  0.883E-04    2.10      25.3  T
   4    -38.6358267 -0.381903E-08  0.434E-04    2.10      51.6  T
   5    -38.6358267 -0.215067E-09  0.998E-05    2.11     224.0  T
   6    -38.6358267 -0.891092E-10  0.424E-05    2.11     527.0  T
     SCC iter.                  ...        0 min,  0.005 sec
     gradient                   ...        0 min,  0.023 sec
 * total energy  :   -38.3286885 Eh     change       -0.8851769E-05 Eh
   gradient norm :     0.0009843 Eh/α   predicted    -0.4730100E-05 ( -46.56%)
   displ. norm   :     0.0482923 α      lambda       -0.3449967E-05
   maximum displ.:     0.0329326 α      in ANC's #3, #2, #6, ...

........................................................................
.............................. CYCLE   26 ..............................
........................................................................
   1    -38.6359116 -0.386359E+02  0.318E-03    2.11       0.0  T
   2    -38.6359118 -0.207552E-06  0.115E-03    2.11      19.5  T
   3    -38.6359118 -0.241936E-07  0.441E-04    2.11      50.7  T
   4    -38.6359118 -0.132279E-08  0.219E-04    2.11     102.3  T
   5    -38.6359118 -0.558344E-10  0.492E-05    2.11     454.2  T
   6    -38.6359118 -0.163496E-10  0.198E-05    2.11    1127.3  T
     SCC iter.                  ...        0 min,  0.003 sec
     gradient                   ...        0 min,  0.015 sec
 * total energy  :   -38.3286927 Eh     change       -0.4177369E-05 Eh
   gradient norm :     0.0008576 Eh/α   predicted    -0.1732186E-05 ( -58.53%)
   displ. norm   :     0.0555107 α      lambda       -0.4387521E-05
   maximum displ.:     0.0423620 α      in ANC's #3, #6, #2, ...

   *** GEOMETRY OPTIMIZATION CONVERGED AFTER 26 ITERATIONS ***

------------------------------------------------------------------------
 total energy gain   :        -0.0202312 Eh      -12.6953 kcal/mol
 total RMSD          :         0.7298962 a0        0.3862 Å
 total power (kW/mol):        -2.0429629 (step)  -55.9189 (real)
------------------------------------------------------------------------

 ANCopt (total)                0 d,  0 h,  0 min,  0.950 sec
 optimizer setup                ...        0 min,  0.001 sec (  0.078%)
 model hessian                  ...        0 min,  0.007 sec (  0.721%)
 ANC generation                 ...        0 min,  0.001 sec (  0.094%)
 coordinate transformation      ...        0 min,  0.000 sec (  0.035%)
 single point calculation       ...        0 min,  0.932 sec ( 98.072%)
 optimization log               ...        0 min,  0.004 sec (  0.442%)
 hessian update                 ...        0 min,  0.000 sec (  0.038%)
 rational function              ...        0 min,  0.003 sec (  0.312%)

================
 final structure:
================
20
 xtb: 6.5.1 (579679a)
C           -3.38574338788820        0.35122462030430       -0.31711046187569
O           -2.19081655279560       -0.40897465295760       -0.44079672444862
C           -1.10258938331171        0.06005308951265        0.24576880182462
O           -1.18878320019548        1.02908970114202        0.98924438144865
C            0.18561045046489       -0.59106646652375       -0.24537133807013
C            0.07559119460185       -2.08304595558888       -0.56745626415026
N            0.32975822111565        0.26813278160022       -1.41909459228631
N            1.42153827906573        1.05778927921492       -1.15110549308741
C            1.94275309550536        0.72594080162038       -0.03245802283066
C            3.15907956130211        1.29432176422473        0.60935568642295
O            1.27755306451700       -0.32135664662688        0.61699822060128
H           -3.64343843634455        0.50091798681754        0.73679420386739
H           -3.27718572576485        1.32985233598963       -0.79785350132838
H           -4.17707801120733       -0.21288477355577       -0.80995472964838
H           -0.14672083898232       -2.65256321562609        0.33315608375141
H            1.02200660988280       -2.42490212232014       -0.98190134171220
H           -0.71271621190224       -2.23953131125107       -1.29996316268888
H            3.92191176710682        0.52445922475813        0.74087924561343
H            2.92848061368011        1.70674476291120        1.59377312039100
H            3.56078789115056        2.08579879635456       -0.02107711179354
 
 Bond Distances (Angstroems)
 ---------------------------
C1-O2=1.4216         C1-H12=1.0952        C1-H13=1.0957        C1-H14=1.0896        O2-C1=1.4216         O2-C3=1.3695         
C3-O2=1.3695         C3-O4=1.2244         C3-C5=1.5247         O4-C3=1.2244         C5-C3=1.5247         C5-C6=1.5303         
C5-N7=1.4617         C5-O11=1.4173        C6-C5=1.5303         C6-H15=1.0885        C6-H16=1.0883        C6-H17=1.0874        
N7-C5=1.4617         N7-N8=1.3738         N8-N7=1.3738         N8-C9=1.2780         C9-N8=1.2780         C9-C10=1.4881        
C9-O11=1.4004        C10-C9=1.4881        C10-H18=1.0917       C10-H19=1.0919       C10-H20=1.0887       O11-C5=1.4173        
O11-C9=1.4004        H12-C1=1.0952        H13-C1=1.0957        H14-C1=1.0896        H15-C6=1.0885        H16-C6=1.0883        
H17-C6=1.0874        H18-C10=1.0917       H19-C10=1.0919       H20-C10=1.0887       
 C  H  Rav=1.0908 sigma=0.0029  Rmin=1.0874  Rmax=1.0957     9
 C  C  Rav=1.5144 sigma=0.0187  Rmin=1.4881  Rmax=1.5303     3
 N  C  Rav=1.3698 sigma=0.0919  Rmin=1.2780  Rmax=1.4617     2
 N  N  Rav=1.3738 sigma=0.0000  Rmin=1.3738  Rmax=1.3738     1
 O  C  Rav=1.3667 sigma=0.0734  Rmin=1.2244  Rmax=1.4216     5
 
 selected bond angles (degree)
 --------------------
H12-C1-O2=110.77               H13-C1-O2=110.86               H13-C1-H12=108.87              H14-C1-O2=107.11               
H14-C1-H12=109.58              H14-C1-H13=109.63              C3-O2-C1=116.18                O4-C3-O2=121.30                
C5-C3-O2=111.32                C5-C3-O4=126.37                C6-C5-C3=115.05                N7-C5-C3= 95.22                
N7-C5-C6=114.28                O11-C5-C3=111.94               O11-C5-C6=111.65               O11-C5-N7=107.50               
H15-C6-C5=110.53               H16-C6-C5=108.90               H16-C6-H15=109.17              H17-C6-C5=109.52               
H17-C6-H15=109.51              H17-C6-H16=109.19              N8-N7-C5=105.05                C9-N8-N7=110.22                
C10-C9-N8=127.71               O11-C9-N8=113.98               O11-C9-C10=118.29              H18-C10-C9=110.72              
H19-C10-C9=111.13              H19-C10-H18=107.78             H20-C10-C9=109.24              H20-C10-H18=108.94             
H20-C10-H19=108.99             
 
 selected dihedral angles (degree)
 ---------------------------------
C3-O2-C1-H12=306.46           C3-O2-C1-H13= 67.44           C3-O2-C1-H14=187.00           O4-C3-O2-C1=  4.59            
C5-C3-O2-C1=195.36            C6-C5-C3-O2=320.43            C6-C5-C3-O4=151.86            N7-C5-C3-O2= 80.32            
N7-C5-C3-O4=271.76            O11-C5-C3-O2=191.57           O11-C5-C3-O4= 23.01           H15-C6-C5-C3=295.41           
H15-C6-C5-N7=186.69           H15-C6-C5-O11= 64.42          H16-C6-C5-C3=175.50           H16-C6-C5-N7= 66.78           
H16-C6-C5-O11=304.50          H17-C6-C5-C3= 56.15           H17-C6-C5-N7=307.43           H17-C6-C5-O11=185.16          
N8-N7-C5-C3=110.67            N8-N7-C5-C6=231.18            N8-N7-C5-O11=355.70           C9-N8-N7-C5=  2.94            
C10-C9-N8-N7=177.90           O11-C9-N8-N7=359.55           H18-C10-C9-N8=241.14          H18-C10-C9-O11= 59.42         
H19-C10-C9-N8=121.40          H19-C10-C9-O11=299.68         H20-C10-C9-N8=  1.11          H20-C10-C9-O11=179.40         
           -------------------------------------------------
          |                Final Singlepoint                |
           -------------------------------------------------

          ...................................................
          :                      SETUP                      :
          :.................................................:
          :  # basis functions                  62          :
          :  # atomic orbitals                  62          :
          :  # shells                           40          :
          :  # electrons                        62          :
          :  # halogen bonds                     0          :
          :  max. iterations                   250          :
          :  Hamiltonian                  GFN1-xTB          :
          :  restarted?                      false          :
          :  GBSA solvation                   true          :
          :  PC potential                    false          :
          :  electronic temp.          300.0000000     K    :
          :  accuracy                    1.0000000          :
          :  -> integral cutoff          0.2500000E+02      :
          :  -> integral neglect         0.1000000E-07      :
          :  -> SCF convergence          0.1000000E-05 Eh   :
          :  -> wf. convergence          0.2000000E-04 e    :
          :  Broyden damping             0.4000000          :
          ...................................................

 iter      E             dE          RMSdq      gap      omega  full diag
   1    -38.6359118 -0.386359E+02  0.598E-06    2.11       0.0  T
   2    -38.6359118 -0.127898E-12  0.352E-06    2.11    6354.8  T
   3    -38.6359118 -0.781597E-13  0.178E-06    2.11   12530.2  T

   *** convergence criteria satisfied after 3 iterations ***

         #    Occupation            Energy/Eh            Energy/eV
      -------------------------------------------------------------
         1        2.0000           -0.7915950             -21.5404
       ...           ...                  ...                  ...
        25        2.0000           -0.4607228             -12.5369
        26        2.0000           -0.4576480             -12.4532
        27        2.0000           -0.4188369             -11.3971
        28        2.0000           -0.4129931             -11.2381
        29        2.0000           -0.3888373             -10.5808
        30        2.0000           -0.3630964              -9.8804
        31        2.0000           -0.2897901              -7.8856 (HOMO)
        32                         -0.2121992              -5.7742 (LUMO)
        33                         -0.1703081              -4.6343
        34                         -0.1217561              -3.3132
        35                         -0.1126767              -3.0661
        36                         -0.0977409              -2.6597
       ...                                ...                  ...
        62                          0.6875569              18.7094
      -------------------------------------------------------------
                  HL-Gap            0.0775910 Eh            2.1114 eV
             Fermi-level           -0.2509947 Eh           -6.8299 eV

 SCC (total)                   0 d,  0 h,  0 min,  0.038 sec
 SCC setup                      ...        0 min,  0.001 sec (  2.144%)
 Dispersion                     ...        0 min,  0.000 sec (  0.256%)
 classical contributions        ...        0 min,  0.000 sec (  0.088%)
 integral evaluation            ...        0 min,  0.011 sec ( 28.352%)
 iterations                     ...        0 min,  0.003 sec (  7.105%)
 molecular gradient             ...        0 min,  0.023 sec ( 61.018%)
 printout                       ...        0 min,  0.000 sec (  0.926%)

         :::::::::::::::::::::::::::::::::::::::::::::::::::::
         ::                     SUMMARY                     ::
         :::::::::::::::::::::::::::::::::::::::::::::::::::::
         :: total energy             -38.328692661597 Eh    ::
         :: total w/o Gsasa/hb       -38.320940138510 Eh    ::
         :: gradient norm              0.000857970276 Eh/a0 ::
         :: HOMO-LUMO gap              2.111357409624 eV    ::
         ::.................................................::
         :: SCC energy               -38.635911849683 Eh    ::
         :: -> electrostatic           0.288969107109 Eh    ::
         :: -> Gsolv                  -0.105329589082 Eh    ::
         ::    -> Gelec               -0.097577065994 Eh    ::
         ::    -> Gsasa               -0.014458524200 Eh    ::
         ::    -> Ghb                 -0.000918277892 Eh    ::
         ::    -> Gshift               0.007624279005 Eh    ::
         :: repulsion energy           0.316009023950 Eh    ::
         :: dispersion energy         -0.008789835864 Eh    ::
         :: halogen bond corr.         0.000000000000 Eh    ::
         :: add. restraining           0.000000000000 Eh    ::
         :: total charge              -1.000000000000 e     ::
         :::::::::::::::::::::::::::::::::::::::::::::::::::::

           -------------------------------------------------
          |                Property Printout                |
           -------------------------------------------------

    * Orbital Energies and Occupations

         #    Occupation            Energy/Eh            Energy/eV
      -------------------------------------------------------------
         1        2.0000           -0.7915950             -21.5404
       ...           ...                  ...                  ...
        19        2.0000           -0.5038321             -13.7100
        20        2.0000           -0.4975949             -13.5402
        21        2.0000           -0.4937168             -13.4347
        22        2.0000           -0.4894537             -13.3187
        23        2.0000           -0.4812143             -13.0945
        24        2.0000           -0.4643650             -12.6360
        25        2.0000           -0.4607228             -12.5369
        26        2.0000           -0.4576480             -12.4532
        27        2.0000           -0.4188369             -11.3971
        28        2.0000           -0.4129931             -11.2381
        29        2.0000           -0.3888373             -10.5808
        30        2.0000           -0.3630964              -9.8804
        31        2.0000           -0.2897901              -7.8856 (HOMO)
        32                         -0.2121992              -5.7742 (LUMO)
        33                         -0.1703081              -4.6343
        34                         -0.1217561              -3.3132
        35                         -0.1126767              -3.0661
        36                         -0.0977409              -2.6597
        37                         -0.0593980              -1.6163
        38                         -0.0559818              -1.5233
        39                         -0.0465518              -1.2667
        40                         -0.0449833              -1.2241
        41                         -0.0403238              -1.0973
        42                         -0.0347760              -0.9463
       ...                                ...                  ...
        62                          0.6875569              18.7094
      -------------------------------------------------------------
                  HL-Gap            0.0775910 Eh            2.1114 eV
             Fermi-level           -0.2509947 Eh           -6.8299 eV

  Mulliken/CM5 charges         n(s)   n(p)   n(d)
     1C     0.17464  0.05533   0.970  2.856  0.000
     2O    -0.45452 -0.53971   1.695  4.760  0.000
     3C     0.52072  0.58865   0.999  2.480  0.000
     4O    -0.62374 -0.66700   1.736  4.887  0.000
     5C     0.33313  0.41142   1.024  2.643  0.000
     6C    -0.10887 -0.24592   1.014  3.094  0.000
     7N    -0.50305 -0.59167   1.618  3.886  0.000
     8N    -0.32261 -0.43324   1.566  3.756  0.000
     9C     0.30976  0.41830   0.982  2.708  0.000
    10C    -0.10592 -0.24273   1.006  3.100  0.000
    11O    -0.48603 -0.53796   1.719  4.767  0.000
    12H     0.03176  0.09403   0.968  0.000  0.000
    13H     0.03018  0.09072   0.970  0.000  0.000
    14H     0.02968  0.08981   0.970  0.000  0.000
    15H     0.02081  0.07613   0.979  0.000  0.000
    16H     0.02735  0.08430   0.973  0.000  0.000
    17H     0.02740  0.08669   0.973  0.000  0.000
    18H     0.03418  0.08818   0.966  0.000  0.000
    19H     0.03512  0.08901   0.965  0.000  0.000
    20H     0.03001  0.08566   0.970  0.000  0.000

Wiberg/Mayer (AO) data.
largest (>0.10) Wiberg bond orders for each atom

 ---------------------------------------------------------------------------
     #   Z sym  total        # sym  WBO       # sym  WBO       # sym  WBO
 ---------------------------------------------------------------------------
     1   6 C    3.903 --    14 H    0.987    13 H    0.981    12 H    0.981
                             2 O    0.925
     2   8 O    2.133 --     3 C    1.019     1 C    0.925     4 O    0.103
     3   6 C    3.815 --     4 O    1.588     2 O    1.019     5 C    0.921
                             7 N    0.185
     4   8 O    1.867 --     3 C    1.588     2 O    0.103
     5   6 C    3.900 --     6 C    0.979     7 N    0.967    11 O    0.927
                             3 C    0.921
     6   6 C    3.996 --    15 H    0.987    17 H    0.986    16 H    0.986
                             5 C    0.979
     7   7 N    2.662 --     8 N    1.157     5 C    0.967     3 C    0.185
                             9 C    0.157
     8   7 N    3.013 --     9 C    1.691     7 N    1.157
     9   6 C    3.880 --     8 N    1.691    10 C    1.018    11 O    0.942
                             7 N    0.157
    10   6 C    3.996 --     9 C    1.018    20 H    0.987    19 H    0.976
                            18 H    0.976
    11   8 O    2.070 --     9 C    0.942     5 C    0.927
    12   1 H    1.016 --     1 C    0.981
    13   1 H    1.012 --     1 C    0.981
    14   1 H    1.016 --     1 C    0.987
    15   1 H    1.010 --     6 C    0.987
    16   1 H    1.017 --     6 C    0.986
    17   1 H    1.019 --     6 C    0.986
    18   1 H    1.008 --    10 C    0.976
    19   1 H    1.008 --    10 C    0.976
    20   1 H    1.009 --    10 C    0.987
 ---------------------------------------------------------------------------

Topologies differ in total number of bonds
Writing topology from bond orders to xtbtopo.mol

 dipole moment from electron density (au)
     X       Y       Z   
  -0.5446  -1.3485   1.1485  total (Debye):    4.710

           -------------------------------------------------
          |                Geometry Summary                 |
           -------------------------------------------------

      molecular mass/u    :      157.1475033
   center of mass at/Å    :        0.0055750       0.1211932      -0.1371598
  moments of inertia/u·Å² :        0.2229738E+03   0.6426466E+03   0.7117903E+03
rotational constants/cm⁻¹ :        0.7560364E-01   0.2623157E-01   0.2368343E-01

 * 17 selected distances

     #   Z          #   Z                                           value/Å
     1   6 C        2   8 O                                       1.4216370
     2   8 O        3   6 C                                       1.3695247
     3   6 C        4   8 O                                       1.2244254
     5   6 C        6   6 C                                       1.5303092 (max)
     8   7 N        9   6 C                                       1.2779518
     9   6 C       10   6 C                                       1.4880969
     5   6 C       11   8 O                                       1.4173086
     9   6 C       11   8 O                                       1.4003988
     1   6 C       12   1 H                                       1.0952306
     1   6 C       13   1 H                                       1.0957240
     1   6 C       14   1 H                                       1.0896447
     6   6 C       15   1 H                                       1.0885198
     6   6 C       16   1 H                                       1.0882705
     6   6 C       17   1 H                                       1.0874203 (min)
    10   6 C       18   1 H                                       1.0917417
    10   6 C       19   1 H                                       1.0919462
    10   6 C       20   1 H                                       1.0886924

 * 4 distinct bonds (by element types)

   Z      Z             #   av. dist./Å        max./Å        min./Å
   1 H    6 C           9     1.0907989     1.0957240     1.0874203
   6 C    6 C           2     1.5092030     1.5303092     1.4880969
   6 C    7 N           1     1.2779518     1.2779518     1.2779518
   6 C    8 O           5     1.3666589     1.4216370     1.2244254


optimized geometry written to: xtbopt.xyz


           -------------------------------------------------
          | TOTAL ENERGY              -38.328692661597 Eh   |
          | GRADIENT NORM               0.000857970276 Eh/α |
          | HOMO-LUMO GAP               2.111357409624 eV   |
           -------------------------------------------------

------------------------------------------------------------------------
 * finished run on 2023/06/20 at 14:53:21.501     
------------------------------------------------------------------------
 total:
 * wall-time:     0 d,  0 h,  0 min,  1.099 sec
 *  cpu-time:     0 d,  0 h,  0 min,  1.031 sec
 * ratio c/w:     0.939 speedup
 SCF:
 * wall-time:     0 d,  0 h,  0 min,  0.026 sec
 *  cpu-time:     0 d,  0 h,  0 min,  0.026 sec
 * ratio c/w:     1.000 speedup
 ANC optimizer:
 * wall-time:     0 d,  0 h,  0 min,  0.993 sec
 *  cpu-time:     0 d,  0 h,  0 min,  0.979 sec
 * ratio c/w:     0.986 speedup

