      -----------------------------------------------------------      
     |                   =====================                   |     
     |                           x T B                           |     
     |                   =====================                   |     
     |                         S. Grimme                         |     
     |          Mulliken Center for Theoretical Chemistry        |     
     |                    University of Bonn                     |     
      -----------------------------------------------------------      

   * xtb version 6.5.1 (579679a) compiled by 'ehlert@majestix' on 2022-07-11

   xtb is free software: you can redistribute it and/or modify it under
   the terms of the GNU Lesser General Public License as published by
   the Free Software Foundation, either version 3 of the License, or
   (at your option) any later version.
   
   xtb is distributed in the hope that it will be useful,
   but WITHOUT ANY WARRANTY; without even the implied warranty of
   MERCHANTABILITY or FITNESS FOR A PARTICULAR PURPOSE.  See the
   GNU Lesser General Public License for more details.
   
   Cite this work as:
   * C. Bannwarth, E. Caldeweyher, S. Ehlert, A. Hansen, P. Pracht,
     J. Seibert, S. Spicher, S. Grimme, WIREs Comput. Mol. Sci., 2020, 11,
     e01493. DOI: 10.1002/wcms.1493
   
   for GFN2-xTB:
   * C. Bannwarth, S. Ehlert and S. Grimme., J. Chem. Theory Comput., 2019,
     15, 1652-1671. DOI: 10.1021/acs.jctc.8b01176
   for GFN1-xTB:
   * S. Grimme, C. Bannwarth, P. Shushkov, J. Chem. Theory Comput., 2017,
     13, 1989-2009. DOI: 10.1021/acs.jctc.7b00118
   for GFN0-xTB:
   * P. Pracht, E. Caldeweyher, S. Ehlert, S. Grimme, ChemRxiv, 2019, preprint.
     DOI: 10.26434/chemrxiv.8326202.v1
   for GFN-FF:
   * S. Spicher and S. Grimme, Angew. Chem. Int. Ed., 2020, 59, 15665-15673.
     DOI: 10.1002/anie.202004239
   
   for ALPB and GBSA implicit solvation:
   * S. Ehlert, M. Stahn, S. Spicher, S. Grimme, J. Chem. Theory Comput.,
     2021, 17, 4250-4261. DOI: 10.1021/acs.jctc.1c00471
   
   for DFT-D4:
   * E. Caldeweyher, C. Bannwarth and S. Grimme, J. Chem. Phys., 2017,
     147, 034112. DOI: 10.1063/1.4993215
   * E. Caldeweyher, S. Ehlert, A. Hansen, H. Neugebauer, S. Spicher,
     C. Bannwarth and S. Grimme, J. Chem. Phys., 2019, 150, 154122.
     DOI: 10.1063/1.5090222
   * E. Caldeweyher, J.-M. Mewes, S. Ehlert and S. Grimme, Phys. Chem. Chem. Phys.
     2020, 22, 8499-8512. DOI: 10.1039/D0CP00502A
   
   for sTDA-xTB:
   * S. Grimme and C. Bannwarth, J. Chem. Phys., 2016, 145, 054103.
     DOI: 10.1063/1.4959605
   
   in the mass-spec context:
   * V. Asgeirsson, C. Bauer and S. Grimme, Chem. Sci., 2017, 8, 4879.
     DOI: 10.1039/c7sc00601b
   * J. Koopman and S. Grimme, ACS Omega 2019, 4, 12, 15120-15133.
     DOI: 10.1021/acsomega.9b02011
   
   for metadynamics refer to:
   * S. Grimme, J. Chem. Theory Comput., 2019, 155, 2847-2862
     DOI: 10.1021/acs.jctc.9b00143
   
   for SPH calculations refer to:
   * S. Spicher and S. Grimme, J. Chem. Theory Comput., 2021, 17, 1701-1714
     DOI: 10.1021/acs.jctc.0c01306
   
   with help from (in alphabetical order)
   P. Atkinson, C. Bannwarth, F. Bohle, G. Brandenburg, E. Caldeweyher
   M. Checinski, S. Dohm, S. Ehlert, S. Ehrlich, I. Gerasimov, C. Hölzer
   A. Katbashev, J. Koopman, C. Lavigne, S. Lehtola, F. März, M. Müller,
   F. Musil, H. Neugebauer, J. Pisarek, C. Plett, P. Pracht, F. Pultar,
   J. Seibert, P. Shushkov, S. Spicher, M. Stahn, M. Steiner, T. Strunk,
   J. Stückrath, T. Rose, and J. Unsleber
   
 * started run on 2023/06/20 at 15:06:59.227     

           -------------------------------------------------
          |                Calculation Setup                |
           -------------------------------------------------

          program call               : /lustre/hpc/kemi/ree/PhD/git/ReactivityQM/dep/xtb-6.5.1/bin/xtb --gfn 1 /lustre/hpc/kemi/ree/PhD/git/ReactivityQM/calculations/R01/reac02prodN06/conf15/R01_reac02prodN06_conf15_gfn1.xyz --opt --vfukui --chrg 1 --uhf 0 --alpb DMSO
          hostname                   : node312
          coordinate file            : /lustre/hpc/kemi/ree/PhD/git/ReactivityQM/calculations/R01/reac02prodN06/conf15/R01_reac02prodN06_conf15_gfn1.xyz
          omp threads                :                     1

   ID    Z sym.   atoms
    1    6 C      1, 3, 5, 6, 8-11, 14, 16
    2    8 O      2, 4, 15, 17
    3    7 N      7, 12, 13
    4    1 H      18-33

           -------------------------------------------------
          |                 G F N 1 - x T B                 |
           -------------------------------------------------

        Reference                      10.1021/acs.jctc.7b00118
      * Hamiltonian:
        H0-scaling (s, p, d)           1.850000    2.250000    2.000000
        zeta-weighting                 0.000000
      * Dispersion:
        s8                             2.400000
        a1                             0.630000
        a2                             5.000000
        s9                             0.000000
      * Repulsion:
        kExp                           1.500000
        rExp                           1.000000
      * Coulomb:
        alpha                          2.000000
        third order                    atomic
        anisotropic                    false
      * Halogen bond correction:
        rad-scale                      1.300000
        damping                        0.440000

      * Solvation model:               ALPB
        Solvent                        DMSO
        Parameter file                 internal GFN1-xTB/ALPB
        Dielectric constant                4.6680E+01
        Reference state                gsolv [1 M gas/solution]
        Free energy shift                  7.6243E-03 Eh       4.7843E+00 kcal/mol
        Temperature                        2.9815E+02 K
        Density                            1.1000E+00 kg/L
        Solvent mass                       7.8130E+01 g/mol
        Interaction kernel             P16
        Born radius scaling (c1)           1.7672E+00
        Born radii integrator          GBOBC
        Born offset                        0.0000E+00 a0       0.0000E+00 AA
        H-bond correction              true
        Ion screening                  false
        Surface tension                    1.0000E-05 Eh       1.5569E+01 dyn/cm
        Grid points                               230 per atom

          ...................................................
          :                      SETUP                      :
          :.................................................:
          :  # basis functions                 100          :
          :  # atomic orbitals                 100          :
          :  # shells                           66          :
          :  # electrons                        94          :
          :  # halogen bonds                     0          :
          :  max. iterations                   250          :
          :  Hamiltonian                  GFN1-xTB          :
          :  restarted?                      false          :
          :  GBSA solvation                   true          :
          :  PC potential                    false          :
          :  electronic temp.          300.0000000     K    :
          :  accuracy                    1.0000000          :
          :  -> integral cutoff          0.2500000E+02      :
          :  -> integral neglect         0.1000000E-07      :
          :  -> SCF convergence          0.1000000E-05 Eh   :
          :  -> wf. convergence          0.2000000E-04 e    :
          :  Broyden damping             0.4000000          :
          ...................................................

 iter      E             dE          RMSdq      gap      omega  full diag
   1    -58.0528614 -0.580529E+02  0.804E+00    1.24       0.0  T
   2    -57.7070090  0.345852E+00  0.583E+00    0.37       1.0  T
   3    -58.1135209 -0.406512E+00  0.382E+00    2.59       1.0  T
   4    -58.2419068 -0.128386E+00  0.207E+00    2.02       1.0  T
   5    -58.3046863 -0.627795E-01  0.127E+00    1.72       1.0  T
   6    -58.3433579 -0.386716E-01  0.594E-01    1.13       1.0  T
   7    -57.8663787  0.476979E+00  0.280E+00    0.13       1.0  T
   8    -58.3282955 -0.461917E+00  0.892E-01    1.56       1.0  T
   9    -58.3337228 -0.542733E-02  0.794E-01    1.47       1.0  T
  10    -58.3380930 -0.437026E-02  0.685E-01    1.33       1.0  T
  11    -58.3429982 -0.490512E-02  0.554E-01    1.01       1.0  T
  12    -58.3460081 -0.300995E-02  0.454E-01    0.72       1.0  T
  13    -58.3477858 -0.177770E-02  0.328E-01    0.08       1.0  T
  14    -58.3470008  0.784993E-03  0.413E-01    0.61       1.0  T
  15    -58.3508388 -0.383796E-02  0.257E-01    0.24       1.0  T
  16    -58.3416491  0.918964E-02  0.452E-01    0.07       1.0  T
  17    -58.3482028 -0.655363E-02  0.363E-01    0.46       1.0  T
  18    -58.3526481 -0.444534E-02  0.184E-01    0.18       1.0  T
  19    -58.3492417  0.340643E-02  0.293E-01    0.08       1.0  T
  20    -58.3496634 -0.421695E-03  0.300E-01    0.30       1.0  T
  21    -58.3541649 -0.450156E-02  0.934E-02    0.11       1.0  T
  22    -58.3530205  0.114446E-02  0.166E-01    0.18       1.0  T
  23    -58.3519211  0.109936E-02  0.210E-01    0.09       1.0  T
  24    -58.3517113  0.209808E-03  0.223E-01    0.21       1.0  T
  25    -58.3524829 -0.771579E-03  0.188E-01    0.10       1.0  T
  26    -58.3525092 -0.262938E-04  0.190E-01    0.19       1.0  T
  27    -58.3531947 -0.685512E-03  0.155E-01    0.10       1.0  T
  28    -58.3532599 -0.651706E-04  0.154E-01    0.17       1.0  T
  29    -58.3537708 -0.510943E-03  0.122E-01    0.11       1.0  T
  30    -58.3538599 -0.891163E-04  0.118E-01    0.16       1.0  T
  31    -58.3542026 -0.342656E-03  0.903E-02    0.11       1.0  T
  32    -58.3542885 -0.859390E-04  0.830E-02    0.15       1.0  T
  33    -58.3544844 -0.195849E-03  0.609E-02    0.12       1.0  T
  34    -58.3545440 -0.595870E-04  0.528E-02    0.14       1.0  T
  35    -58.3546342 -0.902245E-04  0.366E-02    0.12       1.0  T
  36    -58.3546636 -0.293930E-04  0.296E-02    0.13       1.0  T
  37    -58.3546954 -0.318469E-04  0.192E-02    0.12       1.0  T
  38    -58.3547056 -0.101437E-04  0.145E-02    0.13       1.2  T
  39    -58.3547141 -0.855040E-05  0.854E-03    0.13       2.0  T
  40    -58.3547169 -0.278816E-05  0.536E-03    0.13       3.2  T
  41    -58.3547185 -0.159607E-05  0.183E-03    0.13       9.5  T
  42    -58.3547187 -0.193107E-06  0.518E-04    0.13      33.6  T
  43    -58.3547187 -0.157342E-07  0.136E-04    0.13     127.9  T
  44    -58.3547187 -0.116008E-08  0.614E-06    0.13    2836.3  T

   *** convergence criteria satisfied after 44 iterations ***

         #    Occupation            Energy/Eh            Energy/eV
      -------------------------------------------------------------
         1        2.0000           -0.8949172             -24.3519
       ...           ...                  ...                  ...
        41        2.0000           -0.5253003             -14.2941
        42        2.0000           -0.5229118             -14.2292
        43        2.0000           -0.5133362             -13.9686
        44        2.0000           -0.5066741             -13.7873
        45        2.0000           -0.4988682             -13.5749
        46        2.0000           -0.4927670             -13.4089
        47        1.8416           -0.4483932             -12.2014 (HOMO)
        48        0.1584           -0.4437322             -12.0746 (LUMO)
        49                         -0.3393649              -9.2346
        50                         -0.3152558              -8.5785
        51                         -0.2650024              -7.2111
        52                         -0.1499878              -4.0814
       ...                                ...                  ...
       100                          0.6275843              17.0774
      -------------------------------------------------------------
                  HL-Gap            0.0046610 Eh            0.1268 eV
             Fermi-level           -0.4460627 Eh          -12.1380 eV

 SCC (total)                   0 d,  0 h,  0 min,  0.161 sec
 SCC setup                      ...        0 min,  0.001 sec (  0.908%)
 Dispersion                     ...        0 min,  0.000 sec (  0.162%)
 classical contributions        ...        0 min,  0.000 sec (  0.054%)
 integral evaluation            ...        0 min,  0.024 sec ( 14.893%)
 iterations                     ...        0 min,  0.081 sec ( 50.188%)
 molecular gradient             ...        0 min,  0.054 sec ( 33.405%)
 printout                       ...        0 min,  0.001 sec (  0.369%)

         :::::::::::::::::::::::::::::::::::::::::::::::::::::
         ::                     SUMMARY                     ::
         :::::::::::::::::::::::::::::::::::::::::::::::::::::
         :: total energy             -57.797020128759 Eh    ::
         :: total w/o Gsasa/hb       -57.773678738516 Eh    ::
         :: gradient norm              0.153852821128 Eh/a0 ::
         :: HOMO-LUMO gap              0.126831249868 eV    ::
         ::.................................................::
         :: SCC energy               -58.354718705985 Eh    ::
         :: -> electrostatic           0.300160841344 Eh    ::
         :: -> Gsolv                  -0.096928120533 Eh    ::
         ::    -> Gelec               -0.073586730290 Eh    ::
         ::    -> Gsasa               -0.017713181090 Eh    ::
         ::    -> Ghb                 -0.013252488158 Eh    ::
         ::    -> Gshift               0.007624279005 Eh    ::
         :: repulsion energy           0.577354946308 Eh    ::
         :: dispersion energy         -0.019656369083 Eh    ::
         :: halogen bond corr.         0.000000000000 Eh    ::
         :: add. restraining           0.000000000000 Eh    ::
         :: total charge               1.000000000000 e     ::
         :::::::::::::::::::::::::::::::::::::::::::::::::::::

      ----------------------------------------------------------- 
     |                   =====================                   |
     |                        A N C O P T                        |
     |                   =====================                   |
     |               Approximate Normal Coordinate               |
     |                Rational Function Optimizer                |
      ----------------------------------------------------------- 

          ...................................................
          :                      SETUP                      :
          :.................................................:
          :   optimization level            normal          :
          :   max. optcycles                   200          :
          :   ANC micro-cycles                  20          :
          :   degrees of freedom                93          :
          :.................................................:
          :   RF solver                   davidson          :
          :   write xtbopt.log                true          :
          :   linear?                        false          :
          :   energy convergence         0.5000000E-05 Eh   :
          :   grad. convergence          0.1000000E-02 Eh/α :
          :   maximium RF displ.         1.0000000          :
          :   Hlow (freq-cutoff)         0.1000000E-01      :
          :   Hmax (freq-cutoff)         5.0000000          :
          :   S6 in model hess.         20.0000000          :
          ...................................................

generating ANC from model Hessian ...
Using Lindh-Hessian (1995)
 Shifting diagonal of input Hessian by   9.423719793780563E-003
 Lowest  eigenvalues of input Hessian
    0.000000    0.000000    0.000000    0.000000    0.000000    0.000000
    0.010000    0.010218    0.011563    0.012378    0.013015    0.014173
    0.016487    0.016936    0.017771    0.018881    0.019132    0.019458
 Highest eigenvalues
    1.734219    1.747810    2.024533    2.159081    2.293653    2.386997
 

........................................................................
.............................. CYCLE    1 ..............................
........................................................................
   1    -58.3547187 -0.583547E+02  0.736E-06    0.13       0.0  T
   2    -58.3547187  0.335135E-09  0.729E-05    0.13     238.8  T
   3    -58.3547187 -0.338538E-09  0.363E-07    0.13   48003.3  T
     SCC iter.                  ...        0 min,  0.006 sec
     gradient                   ...        0 min,  0.054 sec
 * total energy  :   -57.7970201 Eh     change       -0.2501110E-11 Eh
   gradient norm :     0.1538524 Eh/α   predicted     0.0000000E+00 (-100.00%)
   displ. norm   :     0.2931860 α      lambda       -0.2028739E-01
   maximum displ.:     0.1170755 α      in ANC's #20, #21, #23, ...

........................................................................
.............................. CYCLE    2 ..............................
........................................................................
   1    -58.3737504 -0.583738E+02  0.296E-01    0.46       0.0  T
   2    -57.7746289  0.599122E+00  0.312E+00    0.21       1.0  T
   3    -58.3762801 -0.601651E+00  0.232E-01    0.35       1.0  T
   4    -58.3763501 -0.699809E-04  0.215E-01    0.32       1.0  T
   5    -58.3769579 -0.607801E-03  0.185E-01    0.26       1.0  T
   6    -58.3781218 -0.116387E-02  0.116E-01    0.20       1.0  T
   7    -58.3788123 -0.690537E-03  0.444E-02    0.16       1.0  T
   8    -58.3789267 -0.114321E-03  0.876E-03    0.15       2.0  T
   9    -58.3789263  0.397801E-06  0.901E-03    0.15       1.9  T
  10    -58.3789312 -0.499007E-05  0.105E-03    0.15      16.5  T
  11    -58.3789313 -0.562676E-07  0.491E-04    0.15      35.4  T
  12    -58.3789313 -0.621704E-08  0.353E-04    0.15      49.3  T
  13    -58.3789313 -0.583025E-08  0.157E-04    0.15     110.5  T
  14    -58.3789313 -0.145384E-08  0.211E-05    0.15     825.1  T
     SCC iter.                  ...        0 min,  0.026 sec
     gradient                   ...        0 min,  0.054 sec
 * total energy  :   -57.8119532 Eh     change       -0.1493305E-01 Eh
   gradient norm :     0.0790509 Eh/α   predicted    -0.1102281E-01 ( -26.19%)
   displ. norm   :     0.3209266 α      lambda       -0.1003103E-01
   maximum displ.:     0.1352379 α      in ANC's #20, #21, #15, ...

........................................................................
.............................. CYCLE    3 ..............................
........................................................................
   1    -58.3938256 -0.583938E+02  0.211E-01    0.56       0.0  T
   2    -58.3778807  0.159449E-01  0.538E-01    0.09       1.0  T
   3    -58.3955250 -0.176442E-01  0.132E-01    0.41       1.0  T
   4    -58.3957022 -0.177249E-03  0.109E-01    0.35       1.0  T
   5    -58.3961911 -0.488888E-03  0.457E-02    0.24       1.0  T
   6    -58.3962246 -0.335047E-04  0.398E-02    0.18       1.0  T
   7    -58.3963161 -0.915314E-04  0.291E-03    0.20       6.0  T
   8    -58.3963139  0.222059E-05  0.633E-03    0.20       2.8  T
   9    -58.3963164 -0.248832E-05  0.317E-04    0.20      55.0  T
  10    -58.3963164 -0.651757E-08  0.997E-05    0.20     174.7  T
  11    -58.3963164  0.241647E-08  0.219E-04    0.20      79.6  T
  12    -58.3963164 -0.252277E-08  0.520E-05    0.20     335.0  T
     SCC iter.                  ...        0 min,  0.022 sec
     gradient                   ...        0 min,  0.055 sec
 * total energy  :   -57.8177849 Eh     change       -0.5831698E-02 Eh
   gradient norm :     0.0258041 Eh/α   predicted    -0.5533939E-02 (  -5.11%)
   displ. norm   :     0.2164100 α      lambda       -0.1704352E-02
   maximum displ.:     0.0764340 α      in ANC's #15, #20, #5, ...

........................................................................
.............................. CYCLE    4 ..............................
........................................................................
   1    -58.3962952 -0.583963E+02  0.497E-02    0.30       0.0  T
   2    -58.3960499  0.245306E-03  0.799E-02    0.18       1.0  T
   3    -58.3964135 -0.363521E-03  0.209E-02    0.25       1.0  T
   4    -58.3964337 -0.202248E-04  0.744E-03    0.24       2.3  T
   5    -58.3964340 -0.343662E-06  0.645E-03    0.22       2.7  T
   6    -58.3964355 -0.149783E-05  0.261E-03    0.23       6.7  T
   7    -58.3964359 -0.406299E-06  0.180E-04    0.23      96.8  T
   8    -58.3964359 -0.297433E-09  0.920E-05    0.23     189.2  T
     SCC iter.                  ...        0 min,  0.015 sec
     gradient                   ...        0 min,  0.056 sec
 * total energy  :   -57.8190649 Eh     change       -0.1280067E-02 Eh
   gradient norm :     0.0162965 Eh/α   predicted    -0.8921739E-03 ( -30.30%)
   displ. norm   :     0.2711867 α      lambda       -0.1269520E-02
   maximum displ.:     0.1006130 α      in ANC's #5, #15, #14, ...

........................................................................
.............................. CYCLE    5 ..............................
........................................................................
   1    -58.3955985 -0.583956E+02  0.300E-02    0.31       0.0  T
   2    -58.3956485 -0.500241E-04  0.172E-02    0.27       1.0  T
   3    -58.3956539 -0.539912E-05  0.742E-03    0.27       2.3  T
   4    -58.3956539  0.329267E-07  0.457E-03    0.28       3.8  T
   5    -58.3956539 -0.366575E-07  0.167E-03    0.27      10.4  T
   6    -58.3956541 -0.149718E-06  0.429E-04    0.27      40.6  T
   7    -58.3956541 -0.616769E-08  0.122E-04    0.27     142.9  T
   8    -58.3956541 -0.266652E-09  0.435E-05    0.27     400.6  T
     SCC iter.                  ...        0 min,  0.015 sec
     gradient                   ...        0 min,  0.054 sec
 * total energy  :   -57.8198644 Eh     change       -0.7995044E-03 Eh
   gradient norm :     0.0106084 Eh/α   predicted    -0.6814994E-03 ( -14.76%)
   displ. norm   :     0.1571952 α      lambda       -0.3364667E-03
   maximum displ.:     0.0589022 α      in ANC's #5, #2, #14, ...

........................................................................
.............................. CYCLE    6 ..............................
........................................................................
   1    -58.3962453 -0.583962E+02  0.121E-02    0.30       0.0  T
   2    -58.3962520 -0.668656E-05  0.687E-03    0.30       2.5  T
   3    -58.3962532 -0.126080E-05  0.251E-03    0.29       6.9  T
   4    -58.3962533 -0.394756E-07  0.165E-03    0.30      10.5  T
   5    -58.3962533 -0.319606E-07  0.609E-04    0.29      28.6  T
   6    -58.3962533 -0.612801E-08  0.118E-04    0.29     147.0  T
   7    -58.3962533 -0.383601E-09  0.263E-05    0.29     660.9  T
     SCC iter.                  ...        0 min,  0.014 sec
     gradient                   ...        0 min,  0.057 sec
 * total energy  :   -57.8201183 Eh     change       -0.2538605E-03 Eh
   gradient norm :     0.0087670 Eh/α   predicted    -0.1727726E-03 ( -31.94%)
   displ. norm   :     0.2057222 α      lambda       -0.3311548E-03
   maximum displ.:     0.0922033 α      in ANC's #2, #5, #3, ...

........................................................................
.............................. CYCLE    7 ..............................
........................................................................
   1    -58.3972322 -0.583972E+02  0.128E-02    0.31       0.0  T
   2    -58.3972363 -0.410197E-05  0.675E-03    0.31       2.6  T
   3    -58.3972374 -0.116429E-05  0.344E-03    0.31       5.1  T
   4    -58.3972376 -0.143337E-06  0.145E-03    0.31      12.0  T
   5    -58.3972376 -0.135521E-07  0.485E-04    0.31      35.9  T
   6    -58.3972376 -0.462264E-08  0.818E-05    0.31     212.9  T
   7    -58.3972376 -0.167198E-09  0.284E-05    0.31     613.2  T
     SCC iter.                  ...        0 min,  0.014 sec
     gradient                   ...        0 min,  0.057 sec
 * total energy  :   -57.8203469 Eh     change       -0.2285675E-03 Eh
   gradient norm :     0.0058621 Eh/α   predicted    -0.1726035E-03 ( -24.48%)
   displ. norm   :     0.1652834 α      lambda       -0.1627541E-03
   maximum displ.:     0.0933431 α      in ANC's #2, #5, #4, ...

........................................................................
.............................. CYCLE    8 ..............................
........................................................................
   1    -58.3978784 -0.583979E+02  0.799E-03    0.31       0.0  T
   2    -58.3978793 -0.830651E-06  0.407E-03    0.32       4.3  T
   3    -58.3978796 -0.284941E-06  0.274E-03    0.31       6.4  T
   4    -58.3978797 -0.113929E-06  0.703E-04    0.32      24.8  T
   5    -58.3978797 -0.271184E-08  0.182E-04    0.32      95.6  T
   6    -58.3978797 -0.511868E-09  0.449E-05    0.32     387.3  T
     SCC iter.                  ...        0 min,  0.012 sec
     gradient                   ...        0 min,  0.057 sec
 * total energy  :   -57.8204638 Eh     change       -0.1169383E-03 Eh
   gradient norm :     0.0047930 Eh/α   predicted    -0.8360051E-04 ( -28.51%)
   displ. norm   :     0.1560878 α      lambda       -0.1189252E-03
   maximum displ.:     0.1026152 α      in ANC's #2, #4, #5, ...

........................................................................
.............................. CYCLE    9 ..............................
........................................................................
   1    -58.3985164 -0.583985E+02  0.626E-03    0.31       0.0  T
   2    -58.3985172 -0.765332E-06  0.389E-03    0.32       4.5  T
   3    -58.3985175 -0.350703E-06  0.226E-03    0.32       7.7  T
   4    -58.3985175 -0.306642E-07  0.619E-04    0.32      28.1  T
   5    -58.3985175 -0.720359E-08  0.206E-04    0.32      84.4  T
   6    -58.3985175 -0.702357E-09  0.617E-05    0.32     282.1  T
   7    -58.3985175 -0.392930E-10  0.242E-05    0.32     718.5  T
     SCC iter.                  ...        0 min,  0.014 sec
     gradient                   ...        0 min,  0.057 sec
 * total energy  :   -57.8205542 Eh     change       -0.9036136E-04 Eh
   gradient norm :     0.0044258 Eh/α   predicted    -0.6091330E-04 ( -32.59%)
   displ. norm   :     0.1854678 α      lambda       -0.1172670E-03
   maximum displ.:     0.1281970 α      in ANC's #2, #4, #5, ...

........................................................................
.............................. CYCLE   10 ..............................
........................................................................
   1    -58.3985649 -0.583986E+02  0.642E-03    0.31       0.0  T
   2    -58.3985663 -0.138758E-05  0.447E-03    0.32       3.9  T
   3    -58.3985671 -0.819870E-06  0.174E-03    0.32      10.0  T
   4    -58.3985671 -0.806020E-08  0.831E-04    0.32      20.9  T
   5    -58.3985671 -0.380601E-08  0.299E-04    0.32      58.2  T
   6    -58.3985671 -0.107271E-08  0.656E-05    0.32     265.3  T
   7    -58.3985671 -0.245777E-10  0.231E-05    0.32     752.2  T
     SCC iter.                  ...        0 min,  0.013 sec
     gradient                   ...        0 min,  0.057 sec
 * total energy  :   -57.8206443 Eh     change       -0.9014947E-04 Eh
   gradient norm :     0.0047441 Eh/α   predicted    -0.6065325E-04 ( -32.72%)
   displ. norm   :     0.1953165 α      lambda       -0.1151517E-03
   maximum displ.:     0.1423848 α      in ANC's #2, #7, #4, ...

........................................................................
.............................. CYCLE   11 ..............................
........................................................................
   1    -58.3990487 -0.583990E+02  0.691E-03    0.31       0.0  T
   2    -58.3990500 -0.133013E-05  0.594E-03    0.32       2.9  T
   3    -58.3990510 -0.991507E-06  0.268E-03    0.32       6.5  T
   4    -58.3990510  0.644255E-08  0.102E-03    0.32      17.0  T
   5    -58.3990510 -0.165802E-07  0.310E-04    0.32      56.2  T
   6    -58.3990510 -0.114158E-08  0.730E-05    0.32     238.4  T
   7    -58.3990510 -0.625846E-10  0.259E-05    0.32     672.4  T
     SCC iter.                  ...        0 min,  0.013 sec
     gradient                   ...        0 min,  0.057 sec
 * total energy  :   -57.8207293 Eh     change       -0.8493274E-04 Eh
   gradient norm :     0.0043602 Eh/α   predicted    -0.5977388E-04 ( -29.62%)
   displ. norm   :     0.2311213 α      lambda       -0.1014183E-03
   maximum displ.:     0.1689842 α      in ANC's #2, #7, #5, ...

........................................................................
.............................. CYCLE   12 ..............................
........................................................................
   1    -58.3977313 -0.583977E+02  0.104E-02    0.32       0.0  T
   2    -58.3977336 -0.226194E-05  0.638E-03    0.34       2.7  T
   3    -58.3977355 -0.192369E-05  0.219E-03    0.33       8.0  T
   4    -58.3977356 -0.598923E-07  0.896E-04    0.33      19.4  T
   5    -58.3977356 -0.148574E-08  0.235E-04    0.33      74.1  T
   6    -58.3977356 -0.621604E-09  0.539E-05    0.33     323.0  T
   7    -58.3977356 -0.677502E-10  0.237E-05    0.33     733.2  T
     SCC iter.                  ...        0 min,  0.013 sec
     gradient                   ...        0 min,  0.057 sec
 * total energy  :   -57.8207886 Eh     change       -0.5931422E-04 Eh
   gradient norm :     0.0053446 Eh/α   predicted    -0.5341817E-04 (  -9.94%)
   displ. norm   :     0.1303275 α      lambda       -0.7844811E-04
   maximum displ.:     0.1038591 α      in ANC's #2, #7, #5, ...

........................................................................
.............................. CYCLE   13 ..............................
........................................................................
   1    -58.3989518 -0.583990E+02  0.828E-03    0.34       0.0  T
   2    -58.3989531 -0.127195E-05  0.415E-03    0.34       4.2  T
   3    -58.3989533 -0.174323E-06  0.218E-03    0.33       8.0  T
   4    -58.3989534 -0.109096E-06  0.101E-03    0.34      17.3  T
   5    -58.3989534 -0.992967E-08  0.178E-04    0.33      97.6  T
   6    -58.3989534 -0.587455E-09  0.515E-05    0.33     338.0  T
     SCC iter.                  ...        0 min,  0.011 sec
     gradient                   ...        0 min,  0.057 sec
 * total energy  :   -57.8208392 Eh     change       -0.5059303E-04 Eh
   gradient norm :     0.0035518 Eh/α   predicted    -0.3989637E-04 ( -21.14%)
   displ. norm   :     0.1216796 α      lambda       -0.4296784E-04
   maximum displ.:     0.1014743 α      in ANC's #2, #7, #5, ...

........................................................................
.............................. CYCLE   14 ..............................
........................................................................
   1    -58.3992669 -0.583993E+02  0.628E-03    0.34       0.0  T
   2    -58.3992681 -0.122206E-05  0.364E-03    0.34       4.8  T
   3    -58.3992687 -0.554849E-06  0.127E-03    0.34      13.7  T
   4    -58.3992687 -0.327871E-07  0.520E-04    0.34      33.4  T
   5    -58.3992687 -0.410829E-09  0.183E-04    0.34      95.2  T
   6    -58.3992687 -0.416080E-09  0.437E-05    0.34     398.8  T
     SCC iter.                  ...        0 min,  0.012 sec
     gradient                   ...        0 min,  0.057 sec
 * total energy  :   -57.8208747 Eh     change       -0.3551120E-04 Eh
   gradient norm :     0.0030878 Eh/α   predicted    -0.2180267E-04 ( -38.60%)
   displ. norm   :     0.1131017 α      lambda       -0.4582152E-04
   maximum displ.:     0.0945500 α      in ANC's #2, #1, #3, ...

........................................................................
.............................. CYCLE   15 ..............................
........................................................................
   1    -58.3997250 -0.583997E+02  0.641E-03    0.35       0.0  T
   2    -58.3997264 -0.148475E-05  0.341E-03    0.35       5.1  T
   3    -58.3997269 -0.490950E-06  0.154E-03    0.35      11.3  T
   4    -58.3997270 -0.409726E-07  0.626E-04    0.35      27.8  T
   5    -58.3997270  0.171809E-09  0.295E-04    0.35      59.0  T
   6    -58.3997270 -0.137308E-08  0.435E-05    0.35     400.5  T
   7    -58.3997270 -0.488853E-10  0.140E-05    0.35    1247.1  T
     SCC iter.                  ...        0 min,  0.013 sec
     gradient                   ...        0 min,  0.057 sec
 * total energy  :   -57.8209116 Eh     change       -0.3691241E-04 Eh
   gradient norm :     0.0024873 Eh/α   predicted    -0.2320643E-04 ( -37.13%)
   displ. norm   :     0.1231868 α      lambda       -0.3961630E-04
   maximum displ.:     0.1012131 α      in ANC's #2, #3, #1, ...

........................................................................
.............................. CYCLE   16 ..............................
........................................................................
   1    -58.3998300 -0.583998E+02  0.633E-03    0.36       0.0  T
   2    -58.3998312 -0.124306E-05  0.335E-03    0.36       5.2  T
   3    -58.3998318 -0.583692E-06  0.146E-03    0.36      11.9  T
   4    -58.3998318 -0.335854E-07  0.623E-04    0.36      27.9  T
   5    -58.3998318 -0.132319E-08  0.250E-04    0.36      69.7  T
   6    -58.3998318 -0.981530E-09  0.343E-05    0.36     507.4  T
   7    -58.3998318 -0.295159E-10  0.121E-05    0.36    1434.6  T
     SCC iter.                  ...        0 min,  0.014 sec
     gradient                   ...        0 min,  0.057 sec
 * total energy  :   -57.8209451 Eh     change       -0.3346225E-04 Eh
   gradient norm :     0.0024911 Eh/α   predicted    -0.2011000E-04 ( -39.90%)
   displ. norm   :     0.1248419 α      lambda       -0.3828495E-04
   maximum displ.:     0.0991245 α      in ANC's #2, #3, #1, ...

........................................................................
.............................. CYCLE   17 ..............................
........................................................................
   1    -58.3998363 -0.583998E+02  0.528E-03    0.36       0.0  T
   2    -58.3998372 -0.829583E-06  0.275E-03    0.36       6.3  T
   3    -58.3998376 -0.439373E-06  0.121E-03    0.36      14.4  T
   4    -58.3998376 -0.200980E-07  0.555E-04    0.36      31.4  T
   5    -58.3998376 -0.189124E-08  0.197E-04    0.36      88.2  T
   6    -58.3998376 -0.604615E-09  0.295E-05    0.36     590.2  T
     SCC iter.                  ...        0 min,  0.011 sec
     gradient                   ...        0 min,  0.057 sec
 * total energy  :   -57.8209795 Eh     change       -0.3447661E-04 Eh
   gradient norm :     0.0026126 Eh/α   predicted    -0.1944211E-04 ( -43.61%)
   displ. norm   :     0.1485442 α      lambda       -0.4747731E-04
   maximum displ.:     0.1142871 α      in ANC's #2, #3, #1, ...

........................................................................
.............................. CYCLE   18 ..............................
........................................................................
   1    -58.3996914 -0.583997E+02  0.471E-03    0.36       0.0  T
   2    -58.3996919 -0.567697E-06  0.243E-03    0.37       7.2  T
   3    -58.3996923 -0.368764E-06  0.106E-03    0.36      16.5  T
   4    -58.3996923 -0.136978E-07  0.493E-04    0.36      35.3  T
   5    -58.3996923 -0.213332E-08  0.120E-04    0.36     145.3  T
   6    -58.3996923 -0.213383E-09  0.237E-05    0.36     733.9  T
     SCC iter.                  ...        0 min,  0.011 sec
     gradient                   ...        0 min,  0.057 sec
 * total energy  :   -57.8210221 Eh     change       -0.4259336E-04 Eh
   gradient norm :     0.0026558 Eh/α   predicted    -0.2426343E-04 ( -43.03%)
   displ. norm   :     0.1851352 α      lambda       -0.5694105E-04
   maximum displ.:     0.1407548 α      in ANC's #2, #1, #3, ...

........................................................................
.............................. CYCLE   19 ..............................
........................................................................
   1    -58.3994306 -0.583994E+02  0.402E-03    0.36       0.0  T
   2    -58.3994310 -0.399230E-06  0.206E-03    0.37       8.4  T
   3    -58.3994313 -0.253426E-06  0.908E-04    0.37      19.2  T
   4    -58.3994313 -0.103233E-07  0.403E-04    0.37      43.2  T
   5    -58.3994313 -0.101034E-08  0.871E-05    0.37     199.9  T
   6    -58.3994313 -0.960014E-10  0.237E-05    0.37     735.6  T
     SCC iter.                  ...        0 min,  0.011 sec
     gradient                   ...        0 min,  0.057 sec
 * total energy  :   -57.8210721 Eh     change       -0.5002728E-04 Eh
   gradient norm :     0.0026091 Eh/α   predicted    -0.2944691E-04 ( -41.14%)
   displ. norm   :     0.2070536 α      lambda       -0.5652747E-04
   maximum displ.:     0.1589142 α      in ANC's #2, #1, #3, ...

........................................................................
.............................. CYCLE   20 ..............................
........................................................................
   1    -58.3991585 -0.583992E+02  0.295E-03    0.37       0.0  T
   2    -58.3991587 -0.192458E-06  0.130E-03    0.37      13.3  T
   3    -58.3991588 -0.713724E-07  0.720E-04    0.37      24.2  T
   4    -58.3991588 -0.921425E-08  0.272E-04    0.37      63.9  T
   5    -58.3991588 -0.107157E-09  0.672E-05    0.37     259.2  T
   6    -58.3991588 -0.418794E-10  0.212E-05    0.37     820.9  T
     SCC iter.                  ...        0 min,  0.011 sec
     gradient                   ...        0 min,  0.057 sec
 * total energy  :   -57.8211194 Eh     change       -0.4729177E-04 Eh
   gradient norm :     0.0026999 Eh/α   predicted    -0.2947747E-04 ( -37.67%)
   displ. norm   :     0.1947523 α      lambda       -0.4655679E-04
   maximum displ.:     0.1534697 α      in ANC's #2, #1, #3, ...
 * RMSD in coord.:     0.4628165 α      energy gain  -0.2409931E-01 Eh

generating ANC from model Hessian ...
Using Lindh-Hessian (1995)
 Shifting diagonal of input Hessian by   9.433628552038460E-003
 Lowest  eigenvalues of input Hessian
    0.000000    0.000000    0.000000    0.000000    0.000000    0.000000
    0.010000    0.010290    0.011534    0.012379    0.013290    0.014110
    0.016691    0.017134    0.018218    0.019291    0.019470    0.019522
 Highest eigenvalues
    1.755110    1.908191    2.039785    2.212066    2.479333    2.484565
 

........................................................................
.............................. CYCLE   21 ..............................
........................................................................
   1    -58.3991420 -0.583991E+02  0.254E-03    0.37       0.0  T
   2    -58.3991421 -0.147079E-06  0.876E-04    0.37      19.9  T
   3    -58.3991422 -0.621716E-08  0.476E-04    0.37      36.5  T
   4    -58.3991422 -0.494389E-09  0.228E-04    0.37      76.3  T
   5    -58.3991422 -0.824258E-09  0.696E-05    0.36     250.2  T
   6    -58.3991422 -0.161066E-09  0.246E-05    0.36     706.6  T
     SCC iter.                  ...        0 min,  0.011 sec
     gradient                   ...        0 min,  0.057 sec
 * total energy  :   -57.8211585 Eh     change       -0.3909646E-04 Eh
   gradient norm :     0.0023513 Eh/α   predicted     0.0000000E+00 (-100.00%)
   displ. norm   :     0.0285245 α      lambda       -0.1587653E-04
   maximum displ.:     0.0202083 α      in ANC's #2, #3, #19, ...

........................................................................
.............................. CYCLE   22 ..............................
........................................................................
   1    -58.3997262 -0.583997E+02  0.184E-03    0.36       0.0  T
   2    -58.3997263 -0.476956E-07  0.784E-04    0.36      22.2  T
   3    -58.3997263 -0.125506E-07  0.606E-04    0.36      28.7  T
   4    -58.3997263 -0.442942E-08  0.167E-04    0.36     104.3  T
   5    -58.3997263 -0.175419E-09  0.432E-05    0.36     403.1  T
     SCC iter.                  ...        0 min,  0.010 sec
     gradient                   ...        0 min,  0.057 sec
 * total energy  :   -57.8211727 Eh     change       -0.1416658E-04 Eh
   gradient norm :     0.0013183 Eh/α   predicted    -0.8390267E-05 ( -40.77%)
   displ. norm   :     0.1224061 α      lambda       -0.3349170E-04
   maximum displ.:     0.0855256 α      in ANC's #2, #3, #19, ...

........................................................................
.............................. CYCLE   23 ..............................
........................................................................
   1    -58.4007717 -0.584008E+02  0.621E-03    0.36       0.0  T
   2    -58.4007724 -0.630085E-06  0.255E-03    0.36       6.8  T
   3    -58.4007727 -0.285011E-06  0.193E-03    0.36       9.0  T
   4    -58.4007727 -0.522951E-07  0.668E-04    0.36      26.1  T
   5    -58.4007727 -0.206676E-08  0.122E-04    0.36     143.0  T
   6    -58.4007727 -0.335667E-09  0.211E-05    0.36     824.0  T
     SCC iter.                  ...        0 min,  0.011 sec
     gradient                   ...        0 min,  0.038 sec
 * total energy  :   -57.8212023 Eh     change       -0.2957642E-04 Eh
   gradient norm :     0.0023513 Eh/α   predicted    -0.1685948E-04 ( -43.00%)
   displ. norm   :     0.0466795 α      lambda       -0.1282488E-04
   maximum displ.:     0.0356745 α      in ANC's #2, #3, #19, ...

........................................................................
.............................. CYCLE   24 ..............................
........................................................................
   1    -58.4005054 -0.584005E+02  0.117E-03    0.36       0.0  T
   2    -58.4005055 -0.440758E-07  0.642E-04    0.36      27.1  T
   3    -58.4005055 -0.155627E-07  0.299E-04    0.36      58.3  T
   4    -58.4005055 -0.932211E-09  0.128E-04    0.36     136.3  T
   5    -58.4005055 -0.257003E-10  0.296E-05    0.36     587.9  T
     SCC iter.                  ...        0 min,  0.007 sec
     gradient                   ...        0 min,  0.030 sec
 * total energy  :   -57.8212138 Eh     change       -0.1154407E-04 Eh
   gradient norm :     0.0019661 Eh/α   predicted    -0.6427592E-05 ( -44.32%)
   displ. norm   :     0.1231485 α      lambda       -0.2305630E-04
   maximum displ.:     0.0946577 α      in ANC's #2, #3, #16, ...

........................................................................
.............................. CYCLE   25 ..............................
........................................................................
   1    -58.3995796 -0.583996E+02  0.301E-03    0.37       0.0  T
   2    -58.3995798 -0.221580E-06  0.149E-03    0.36      11.7  T
   3    -58.3995798 -0.178060E-07  0.839E-04    0.36      20.8  T
   4    -58.3995798 -0.823974E-09  0.335E-04    0.36      52.0  T
   5    -58.3995798 -0.234228E-08  0.964E-05    0.36     180.6  T
   6    -58.3995798 -0.235985E-09  0.239E-05    0.36     729.1  T
     SCC iter.                  ...        0 min,  0.008 sec
     gradient                   ...        0 min,  0.046 sec
 * total energy  :   -57.8212378 Eh     change       -0.2392867E-04 Eh
   gradient norm :     0.0014880 Eh/α   predicted    -0.1160743E-04 ( -51.49%)
   displ. norm   :     0.0835974 α      lambda       -0.1025033E-04
   maximum displ.:     0.0678971 α      in ANC's #2, #16, #4, ...

........................................................................
.............................. CYCLE   26 ..............................
........................................................................
   1    -58.3994298 -0.583994E+02  0.299E-03    0.37       0.0  T
   2    -58.3994301 -0.261064E-06  0.169E-03    0.37      10.3  T
   3    -58.3994302 -0.139638E-06  0.582E-04    0.37      29.9  T
   4    -58.3994302 -0.327094E-08  0.259E-04    0.37      67.1  T
   5    -58.3994302 -0.614833E-10  0.637E-05    0.37     273.1  T
   6    -58.3994302 -0.530349E-10  0.147E-05    0.37    1181.8  T
     SCC iter.                  ...        0 min,  0.011 sec
     gradient                   ...        0 min,  0.057 sec
 * total energy  :   -57.8212510 Eh     change       -0.1327816E-04 Eh
   gradient norm :     0.0015580 Eh/α   predicted    -0.5160630E-05 ( -61.13%)
   displ. norm   :     0.0911287 α      lambda       -0.1322481E-04
   maximum displ.:     0.0742766 α      in ANC's #2, #16, #6, ...

........................................................................
.............................. CYCLE   27 ..............................
........................................................................
   1    -58.3996593 -0.583997E+02  0.465E-03    0.37       0.0  T
   2    -58.3996601 -0.720848E-06  0.282E-03    0.37       6.2  T
   3    -58.3996605 -0.435885E-06  0.653E-04    0.37      26.7  T
   4    -58.3996605 -0.410569E-08  0.337E-04    0.37      51.7  T
   5    -58.3996605 -0.332157E-09  0.704E-05    0.37     247.2  T
   6    -58.3996605 -0.449560E-10  0.165E-05    0.37    1053.7  T
     SCC iter.                  ...        0 min,  0.012 sec
     gradient                   ...        0 min,  0.057 sec
 * total energy  :   -57.8212688 Eh     change       -0.1773891E-04 Eh
   gradient norm :     0.0011586 Eh/α   predicted    -0.6637551E-05 ( -62.58%)
   displ. norm   :     0.1461555 α      lambda       -0.2031148E-04
   maximum displ.:     0.1165011 α      in ANC's #2, #3, #16, ...

........................................................................
.............................. CYCLE   28 ..............................
........................................................................
   1    -58.3997519 -0.583998E+02  0.631E-03    0.37       0.0  T
   2    -58.3997532 -0.131036E-05  0.376E-03    0.37       4.6  T
   3    -58.3997540 -0.774619E-06  0.887E-04    0.37      19.6  T
   4    -58.3997540 -0.917414E-08  0.433E-04    0.37      40.2  T
   5    -58.3997540 -0.768424E-09  0.790E-05    0.37     220.4  T
   6    -58.3997540 -0.554081E-10  0.218E-05    0.37     798.1  T
     SCC iter.                  ...        0 min,  0.011 sec
     gradient                   ...        0 min,  0.057 sec
 * total energy  :   -57.8212950 Eh     change       -0.2620878E-04 Eh
   gradient norm :     0.0014090 Eh/α   predicted    -0.1025546E-04 ( -60.87%)
   displ. norm   :     0.1819518 α      lambda       -0.2263474E-04
   maximum displ.:     0.1443803 α      in ANC's #2, #3, #5, ...

........................................................................
.............................. CYCLE   29 ..............................
........................................................................
   1    -58.3998367 -0.583998E+02  0.611E-03    0.37       0.0  T
   2    -58.3998380 -0.130064E-05  0.377E-03    0.38       4.6  T
   3    -58.3998387 -0.728473E-06  0.852E-04    0.38      20.4  T
   4    -58.3998388 -0.793317E-08  0.418E-04    0.38      41.7  T
   5    -58.3998388 -0.347541E-09  0.889E-05    0.38     195.7  T
   6    -58.3998388 -0.867715E-10  0.200E-05    0.38     871.7  T
     SCC iter.                  ...        0 min,  0.011 sec
     gradient                   ...        0 min,  0.057 sec
 * total energy  :   -57.8213244 Eh     change       -0.2940576E-04 Eh
   gradient norm :     0.0017382 Eh/α   predicted    -0.1148449E-04 ( -60.94%)
   displ. norm   :     0.2036890 α      lambda       -0.2407946E-04
   maximum displ.:     0.1614329 α      in ANC's #2, #3, #5, ...

........................................................................
.............................. CYCLE   30 ..............................
........................................................................
   1    -58.3997514 -0.583998E+02  0.395E-03    0.38       0.0  T
   2    -58.3997519 -0.501275E-06  0.198E-03    0.38       8.8  T
   3    -58.3997521 -0.151770E-06  0.867E-04    0.38      20.1  T
   4    -58.3997521 -0.124212E-07  0.357E-04    0.38      48.7  T
   5    -58.3997521 -0.967262E-10  0.849E-05    0.38     204.9  T
   6    -58.3997521 -0.905445E-10  0.193E-05    0.38     900.3  T
     SCC iter.                  ...        0 min,  0.012 sec
     gradient                   ...        0 min,  0.058 sec
 * total energy  :   -57.8213552 Eh     change       -0.3081380E-04 Eh
   gradient norm :     0.0018082 Eh/α   predicted    -0.1226603E-04 ( -60.19%)
   displ. norm   :     0.1901461 α      lambda       -0.2228760E-04
   maximum displ.:     0.1519012 α      in ANC's #2, #3, #5, ...

........................................................................
.............................. CYCLE   31 ..............................
........................................................................
   1    -58.4000414 -0.584000E+02  0.236E-03    0.38       0.0  T
   2    -58.4000415 -0.142212E-06  0.125E-03    0.38      13.9  T
   3    -58.4000416 -0.199057E-07  0.673E-04    0.38      25.9  T
   4    -58.4000416 -0.326092E-08  0.307E-04    0.38      56.7  T
   5    -58.4000416 -0.881435E-09  0.740E-05    0.38     235.2  T
   6    -58.4000416 -0.157875E-09  0.173E-05    0.38    1008.9  T
     SCC iter.                  ...        0 min,  0.012 sec
     gradient                   ...        0 min,  0.058 sec
 * total energy  :   -57.8213824 Eh     change       -0.2720615E-04 Eh
   gradient norm :     0.0012930 Eh/α   predicted    -0.1132417E-04 ( -58.38%)
   displ. norm   :     0.1652380 α      lambda       -0.1664594E-04
   maximum displ.:     0.1335411 α      in ANC's #2, #3, #5, ...

........................................................................
.............................. CYCLE   32 ..............................
........................................................................
   1    -58.4001317 -0.584001E+02  0.276E-03    0.38       0.0  T
   2    -58.4001320 -0.289095E-06  0.151E-03    0.38      11.6  T
   3    -58.4001321 -0.866853E-07  0.630E-04    0.38      27.6  T
   4    -58.4001321 -0.265123E-08  0.324E-04    0.38      53.7  T
   5    -58.4001321 -0.236007E-09  0.375E-05    0.38     464.2  T
   6    -58.4001321 -0.104521E-10  0.123E-05    0.38    1410.0  T
     SCC iter.                  ...        0 min,  0.012 sec
     gradient                   ...        0 min,  0.058 sec
 * total energy  :   -57.8214025 Eh     change       -0.2005336E-04 Eh
   gradient norm :     0.0007730 Eh/α   predicted    -0.8424213E-05 ( -57.99%)
   displ. norm   :     0.1200224 α      lambda       -0.1004510E-04
   maximum displ.:     0.0981733 α      in ANC's #2, #3, #5, ...

........................................................................
.............................. CYCLE   33 ..............................
........................................................................
   1    -58.4003837 -0.584004E+02  0.213E-03    0.38       0.0  T
   2    -58.4003838 -0.924139E-07  0.111E-03    0.38      15.7  T
   3    -58.4003838 -0.319267E-07  0.632E-04    0.38      27.6  T
   4    -58.4003838 -0.338816E-08  0.210E-04    0.38      82.8  T
   5    -58.4003838 -0.208630E-09  0.417E-05    0.38     417.2  T
   6    -58.4003838 -0.445368E-10  0.116E-05    0.38    1501.6  T
     SCC iter.                  ...        0 min,  0.012 sec
     gradient                   ...        0 min,  0.058 sec
 * total energy  :   -57.8214142 Eh     change       -0.1176506E-04 Eh
   gradient norm :     0.0008030 Eh/α   predicted    -0.5055753E-05 ( -57.03%)
   displ. norm   :     0.0806111 α      lambda       -0.5736829E-05
   maximum displ.:     0.0674134 α      in ANC's #2, #3, #5, ...

........................................................................
.............................. CYCLE   34 ..............................
........................................................................
   1    -58.4003410 -0.584003E+02  0.166E-03    0.38       0.0  T
   2    -58.4003411 -0.126417E-06  0.101E-03    0.38      17.2  T
   3    -58.4003412 -0.436926E-07  0.308E-04    0.38      56.6  T
   4    -58.4003412 -0.544489E-09  0.170E-04    0.38     102.6  T
   5    -58.4003412 -0.648370E-10  0.378E-05    0.38     460.7  T
     SCC iter.                  ...        0 min,  0.010 sec
     gradient                   ...        0 min,  0.058 sec
 * total energy  :   -57.8214214 Eh     change       -0.7146976E-05 Eh
   gradient norm :     0.0005095 Eh/α   predicted    -0.2877427E-05 ( -59.74%)
   displ. norm   :     0.0663132 α      lambda       -0.4744368E-05
   maximum displ.:     0.0538691 α      in ANC's #2, #5, #12, ...

........................................................................
.............................. CYCLE   35 ..............................
........................................................................
   1    -58.4003894 -0.584004E+02  0.777E-04    0.38       0.0  T
   2    -58.4003894 -0.813628E-08  0.351E-04    0.38      49.5  T
   3    -58.4003894 -0.408228E-09  0.190E-04    0.38      91.8  T
   4    -58.4003894 -0.307018E-09  0.782E-05    0.38     222.6  T
     SCC iter.                  ...        0 min,  0.008 sec
     gradient                   ...        0 min,  0.057 sec
 * total energy  :   -57.8214274 Eh     change       -0.6069440E-05 Eh
   gradient norm :     0.0006048 Eh/α   predicted    -0.2377430E-05 ( -60.83%)
   displ. norm   :     0.0675294 α      lambda       -0.4849246E-05
   maximum displ.:     0.0537310 α      in ANC's #2, #12, #1, ...

........................................................................
.............................. CYCLE   36 ..............................
........................................................................
   1    -58.4003949 -0.584004E+02  0.129E-03    0.38       0.0  T
   2    -58.4003950 -0.364550E-07  0.678E-04    0.38      25.7  T
   3    -58.4003950 -0.174069E-07  0.288E-04    0.38      60.5  T
   4    -58.4003950 -0.867345E-09  0.998E-05    0.38     174.5  T
   5    -58.4003950 -0.347455E-10  0.302E-05    0.38     576.9  T
     SCC iter.                  ...        0 min,  0.010 sec
     gradient                   ...        0 min,  0.058 sec
 * total energy  :   -57.8214333 Eh     change       -0.5898547E-05 Eh
   gradient norm :     0.0005399 Eh/α   predicted    -0.2430099E-05 ( -58.80%)
   displ. norm   :     0.0723005 α      lambda       -0.4209939E-05
   maximum displ.:     0.0546041 α      in ANC's #2, #1, #12, ...

........................................................................
.............................. CYCLE   37 ..............................
........................................................................
   1    -58.4001747 -0.584002E+02  0.202E-03    0.38       0.0  T
   2    -58.4001748 -0.115416E-06  0.115E-03    0.38      15.2  T
   3    -58.4001749 -0.606409E-07  0.398E-04    0.38      43.8  T
   4    -58.4001749 -0.141664E-08  0.167E-04    0.38     104.5  T
   5    -58.4001749 -0.162217E-10  0.327E-05    0.38     532.2  T
     SCC iter.                  ...        0 min,  0.010 sec
     gradient                   ...        0 min,  0.058 sec
 * total energy  :   -57.8214380 Eh     change       -0.4652632E-05 Eh
   gradient norm :     0.0004867 Eh/α   predicted    -0.2112552E-05 ( -54.59%)
   displ. norm   :     0.0585552 α      lambda       -0.2929443E-05
   maximum displ.:     0.0437068 α      in ANC's #2, #1, #12, ...

   *** GEOMETRY OPTIMIZATION CONVERGED AFTER 37 ITERATIONS ***

------------------------------------------------------------------------
 total energy gain   :        -0.0244179 Eh      -15.3224 kcal/mol
 total RMSD          :         0.6952722 a0        0.3679 Å
 total power (kW/mol):        -1.7326779 (step)  -17.9975 (real)
------------------------------------------------------------------------

 ANCopt (total)                0 d,  0 h,  0 min,  3.562 sec
 optimizer setup                ...        0 min,  0.001 sec (  0.024%)
 model hessian                  ...        0 min,  0.050 sec (  1.401%)
 ANC generation                 ...        0 min,  0.003 sec (  0.082%)
 coordinate transformation      ...        0 min,  0.001 sec (  0.025%)
 single point calculation       ...        0 min,  3.491 sec ( 98.006%)
 optimization log               ...        0 min,  0.008 sec (  0.237%)
 hessian update                 ...        0 min,  0.001 sec (  0.023%)
 rational function              ...        0 min,  0.004 sec (  0.121%)

================
 final structure:
================
33
 xtb: 6.5.1 (579679a)
C            2.37782571467483        1.28778009374540        2.19805321744461
O            1.68363804021088        0.46678462012443        1.22770557203483
C            2.32584396592489        0.08164649773696        0.17464857973477
O            3.46133613465724        0.25139550720100       -0.12883183524731
C            1.34091531313404       -0.75166771646289       -0.81707475446444
C            2.06406623758979       -0.88427573113055       -2.15890293316113
N            0.17551900544303        0.06264166136576       -0.91868554290689
C           -0.85737509084600       -0.18368848599974       -0.20681221786870
C           -2.06372187071536        0.72920696763961       -0.22853401124778
C           -1.76519017049530        1.88447960444077        0.73851344147735
C           -2.30847872217851        1.25066765492179       -1.64903762356381
N           -3.19696636271686       -0.03190913333563        0.27869655608290
N           -0.95303717444456       -1.24431002486557        0.66951754836730
C           -0.01693277920655       -2.20767211500829        0.80655178172431
O           -0.08453599736094       -3.19148227325654        1.51085548691653
C            1.17503878740634       -1.98379934372674       -0.06697905467548
O            2.06690523156902       -2.89813438200443       -0.08204819435924
H            3.42245010661580        0.98120353073287        2.25902708974267
H            1.86385998200082        1.12936009722959        3.14326218799234
H            2.30174507862281        2.33088541346721        1.88982587028338
H            3.00290089171160       -1.41606018562589       -2.02076314636753
H            2.25775973479183        0.10907824892844       -2.55706292037720
H            1.42743468933434       -1.43410871122846       -2.84813573907997
H           -1.64798828487986        1.49969448506392        1.75052247365225
H           -0.84775601216781        2.39116161824806        0.44189876579439
H           -2.58852178803007        2.59662489695555        0.72144346401919
H           -1.42442121781393        1.77764382233712       -2.00654555383604
H           -3.15756598608562        1.93136329867514       -1.64638623737435
H           -2.52091468391978        0.42030631399197       -2.32052166740486
H           -3.61153888540304       -0.57499042413903       -0.46603557854099
H           -3.90203075738537        0.59282937096384        0.64350181500750
H           -1.85234754119576       -1.32508280733726        1.14819218107047
H            1.85208441116134       -3.64757136965506        0.52014397912884
 
 Bond Distances (Angstroems)
 ---------------------------
C1-O2=1.4483         C1-H18=1.0904        C1-H19=1.0875        C1-H20=1.0903        O2-C1=1.4483         O2-C3=1.2922         
C3-O2=1.2922         C3-O4=1.1875         C3-C5=1.6273         O4-C3=1.1875         C5-C3=1.6273         C5-C6=1.5300         
C5-N7=1.4253         C5-C16=1.4520        C6-C5=1.5300         C6-H21=1.0878        C6-H22=1.0876        C6-H23=1.0875        
N7-C5=1.4253         N7-C8=1.2784         C8-N7=1.2784         C8-C9=1.5130         C8-N13=1.3791        C9-C8=1.5130         
C9-C10=1.5359        C9-C11=1.5329        C9-N12=1.4563        C10-C9=1.5359        C10-H24=1.0890       C10-H25=1.0892       
C10-H26=1.0887       C11-C9=1.5329        C11-H27=1.0895       C11-H28=1.0883       C11-H29=1.0888       N12-C9=1.4563        
N12-H30=1.0107       N12-H31=1.0102       N13-C8=1.3791        N13-C14=1.3502       N13-H32=1.0220       C14-N13=1.3502       
C14-O15=1.2118       C14-C16=1.4946       O15-C14=1.2118       C16-C5=1.4520        C16-C14=1.4946       C16-O17=1.2774       
O17-C16=1.2774       O17-H33=0.9851       H18-C1=1.0904        H19-C1=1.0875        H20-C1=1.0903        H21-C6=1.0878        
H22-C6=1.0876        H23-C6=1.0875        H24-C10=1.0890       H25-C10=1.0892       H26-C10=1.0887       H27-C11=1.0895       
H28-C11=1.0883       H29-C11=1.0888       H30-N12=1.0107       H31-N12=1.0102       H32-N13=1.0220       H33-O17=0.9851       
 C  H  Rav=1.0887 sigma=0.0010  Rmin=1.0875  Rmax=1.0904    12
 C  C  Rav=1.5265 sigma=0.0493  Rmin=1.4520  Rmax=1.6273     7
 N  H  Rav=1.0143 sigma=0.0054  Rmin=1.0102  Rmax=1.0220     3
 N  C  Rav=1.3779 sigma=0.0617  Rmin=1.2784  Rmax=1.4563     5
 O  H  Rav=0.9851 sigma=0.0000  Rmin=0.9851  Rmax=0.9851     1
 O  C  Rav=1.2834 sigma=0.0912  Rmin=1.1875  Rmax=1.4483     5
 
 selected bond angles (degree)
 --------------------
H18-C1-O2=109.71               H19-C1-O2=105.86               H19-C1-H18=111.30              H20-C1-O2=108.63               
H20-C1-H18=110.59              H20-C1-H19=110.61              C3-O2-C1=118.47                O4-C3-O2=129.86                
C5-C3-O2=110.39                C5-C3-O4=119.75                C6-C5-C3=107.02                N7-C5-C3=104.23                
N7-C5-C6=111.93                C16-C5-C3=100.89               C16-C5-C6=115.69               C16-C5-N7=115.35               
H21-C6-C5=109.81               H22-C6-C5=109.03               H22-C6-H21=109.83              H23-C6-C5=108.84               
H23-C6-H21=109.79              H23-C6-H22=109.51              C8-N7-C5=120.72                C9-C8-N7=121.33                
N13-C8-N7=123.92               N13-C8-C9=114.70               C10-C9-C8=106.85               C11-C9-C8=110.24               
C11-C9-C10=111.02              N12-C9-C8=107.46               N12-C9-C10=108.97              N12-C9-C11=112.11              
H24-C10-C9=109.89              H25-C10-C9=110.01              H25-C10-H24=109.07             H26-C10-C9=109.58              
H26-C10-H24=109.09             H26-C10-H25=109.17             
 
 selected dihedral angles (degree)
 ---------------------------------
C3-O2-C1-H18=324.68           C3-O2-C1-H19=204.49           C3-O2-C1-H20= 85.67           O4-C3-O2-C1=  3.30            
C5-C3-O2-C1=183.27            C6-C5-C3-O2=167.04            C6-C5-C3-O4=347.01            N7-C5-C3-O2= 48.32            
N7-C5-C3-O4=228.29            C16-C5-C3-O2=288.41           C16-C5-C3-O4=108.38           H21-C6-C5-C3= 60.08           
H21-C6-C5-N7=173.68           H21-C6-C5-C16=308.58          H22-C6-C5-C3=299.70           H22-C6-C5-N7= 53.30           
H22-C6-C5-C16=188.20          H23-C6-C5-C3=180.29           H23-C6-C5-N7=293.89           H23-C6-C5-C16= 68.79          
C8-N7-C5-C3=261.53            C8-N7-C5-C6=146.21            C8-N7-C5-C16= 11.14           C9-C8-N7-C5=175.48            
N13-C8-N7-C5=358.22           C10-C9-C8-N7=277.17           C10-C9-C8-N13= 94.67          C11-C9-C8-N7= 37.90           
C11-C9-C8-N13=215.40          N12-C9-C8-N7=160.34           N12-C9-C8-N13=337.84          H24-C10-C9-C8=297.17          
H24-C10-C9-C11=176.94         H24-C10-C9-N12= 53.00         H25-C10-C9-C8= 57.28          H25-C10-C9-C11=297.05         
H25-C10-C9-N12=173.10         H26-C10-C9-C8=177.31          H26-C10-C9-C11= 57.08         H26-C10-C9-N12=293.14         
           -------------------------------------------------
          |                Final Singlepoint                |
           -------------------------------------------------

          ...................................................
          :                      SETUP                      :
          :.................................................:
          :  # basis functions                 100          :
          :  # atomic orbitals                 100          :
          :  # shells                           66          :
          :  # electrons                        94          :
          :  # halogen bonds                     0          :
          :  max. iterations                   250          :
          :  Hamiltonian                  GFN1-xTB          :
          :  restarted?                      false          :
          :  GBSA solvation                   true          :
          :  PC potential                    false          :
          :  electronic temp.          300.0000000     K    :
          :  accuracy                    1.0000000          :
          :  -> integral cutoff          0.2500000E+02      :
          :  -> integral neglect         0.1000000E-07      :
          :  -> SCF convergence          0.1000000E-05 Eh   :
          :  -> wf. convergence          0.2000000E-04 e    :
          :  Broyden damping             0.4000000          :
          ...................................................

 iter      E             dE          RMSdq      gap      omega  full diag
   1    -58.4001749 -0.584002E+02  0.965E-06    0.38       0.0  T
   2    -58.4001749 -0.142819E-11  0.500E-06    0.38    3478.5  T
   3    -58.4001749 -0.362377E-12  0.271E-06    0.38    6416.5  T

   *** convergence criteria satisfied after 3 iterations ***

         #    Occupation            Energy/Eh            Energy/eV
      -------------------------------------------------------------
         1        2.0000           -0.9145614             -24.8865
       ...           ...                  ...                  ...
        41        2.0000           -0.5227897             -14.2258
        42        2.0000           -0.5183220             -14.1043
        43        2.0000           -0.5055618             -13.7570
        44        2.0000           -0.5025621             -13.6754
        45        2.0000           -0.4900538             -13.3350
        46        2.0000           -0.4859434             -13.2232
        47        1.9988           -0.4360545             -11.8656 (HOMO)
        48        0.0012           -0.4219808             -11.4827 (LUMO)
        49                         -0.3313589              -9.0167
        50                         -0.3050457              -8.3007
        51                         -0.2617498              -7.1226
        52                         -0.1662152              -4.5229
       ...                                ...                  ...
       100                          0.7442804              20.2529
      -------------------------------------------------------------
                  HL-Gap            0.0140737 Eh            0.3830 eV
             Fermi-level           -0.4290176 Eh          -11.6742 eV

 SCC (total)                   0 d,  0 h,  0 min,  0.064 sec
 SCC setup                      ...        0 min,  0.001 sec (  2.106%)
 Dispersion                     ...        0 min,  0.000 sec (  0.332%)
 classical contributions        ...        0 min,  0.000 sec (  0.110%)
 integral evaluation            ...        0 min,  0.026 sec ( 40.292%)
 iterations                     ...        0 min,  0.006 sec (  9.203%)
 molecular gradient             ...        0 min,  0.030 sec ( 47.378%)
 printout                       ...        0 min,  0.000 sec (  0.520%)

         :::::::::::::::::::::::::::::::::::::::::::::::::::::
         ::                     SUMMARY                     ::
         :::::::::::::::::::::::::::::::::::::::::::::::::::::
         :: total energy             -57.821437989117 Eh    ::
         :: total w/o Gsasa/hb       -57.798588071438 Eh    ::
         :: gradient norm              0.000488131689 Eh/a0 ::
         :: HOMO-LUMO gap              0.382964365249 eV    ::
         ::.................................................::
         :: SCC energy               -58.400174873784 Eh    ::
         :: -> electrostatic           0.297400385761 Eh    ::
         :: -> Gsolv                  -0.094403914197 Eh    ::
         ::    -> Gelec               -0.071553996519 Eh    ::
         ::    -> Gsasa               -0.017564129431 Eh    ::
         ::    -> Ghb                 -0.012910067252 Eh    ::
         ::    -> Gshift               0.007624279005 Eh    ::
         :: repulsion energy           0.598779536780 Eh    ::
         :: dispersion energy         -0.020042652113 Eh    ::
         :: halogen bond corr.         0.000000000000 Eh    ::
         :: add. restraining           0.000000000000 Eh    ::
         :: total charge               1.000000000000 e     ::
         :::::::::::::::::::::::::::::::::::::::::::::::::::::

           -------------------------------------------------
          |                Property Printout                |
           -------------------------------------------------

    * Orbital Energies and Occupations

         #    Occupation            Energy/Eh            Energy/eV
      -------------------------------------------------------------
         1        2.0000           -0.9145614             -24.8865
       ...           ...                  ...                  ...
        35        2.0000           -0.5509919             -14.9933
        36        2.0000           -0.5482002             -14.9173
        37        2.0000           -0.5405867             -14.7101
        38        2.0000           -0.5349448             -14.5566
        39        2.0000           -0.5307005             -14.4411
        40        2.0000           -0.5277857             -14.3618
        41        2.0000           -0.5227897             -14.2258
        42        2.0000           -0.5183220             -14.1043
        43        2.0000           -0.5055618             -13.7570
        44        2.0000           -0.5025621             -13.6754
        45        2.0000           -0.4900538             -13.3350
        46        2.0000           -0.4859434             -13.2232
        47        1.9988           -0.4360545             -11.8656 (HOMO)
        48        0.0012           -0.4219808             -11.4827 (LUMO)
        49                         -0.3313589              -9.0167
        50                         -0.3050457              -8.3007
        51                         -0.2617498              -7.1226
        52                         -0.1662152              -4.5229
        53                         -0.1536394              -4.1807
        54                         -0.1497137              -4.0739
        55                         -0.1361978              -3.7061
        56                         -0.1328629              -3.6154
        57                         -0.1191090              -3.2411
        58                         -0.1071622              -2.9160
       ...                                ...                  ...
       100                          0.7442804              20.2529
      -------------------------------------------------------------
                  HL-Gap            0.0140737 Eh            0.3830 eV
             Fermi-level           -0.4290176 Eh          -11.6742 eV

  Mulliken/CM5 charges         n(s)   n(p)   n(d)
     1C     0.15536  0.03290   0.997  2.847  0.000
     2O    -0.38240 -0.46816   1.677  4.706  0.000
     3C     0.62673  0.69699   0.959  2.414  0.000
     4O    -0.46358 -0.51590   1.714  4.750  0.000
     5C     0.13174  0.18930   1.068  2.800  0.000
     6C    -0.08451 -0.22235   1.023  3.062  0.000
     7N    -0.37156 -0.56026   1.533  3.838  0.000
     8C     0.30413  0.45577   1.033  2.662  0.000
     9C     0.14569  0.18088   1.064  2.790  0.000
    10C    -0.10409 -0.24475   1.023  3.081  0.000
    11C    -0.11308 -0.25396   1.023  3.090  0.000
    12N    -0.52507 -0.98882   1.475  4.050  0.000
    13N    -0.26314 -0.60455   1.440  3.823  0.000
    14C     0.46829  0.57544   0.972  2.560  0.000
    15O    -0.52086 -0.56652   1.720  4.801  0.000
    16C     0.33888  0.37538   1.091  2.570  0.000
    17O    -0.40163 -0.59806   1.689  4.712  0.000
    18H     0.07858  0.14183   0.921  0.000  0.000
    19H     0.08268  0.14303   0.917  0.000  0.000
    20H     0.08022  0.14020   0.920  0.000  0.000
    21H     0.07693  0.13663   0.923  0.000  0.000
    22H     0.08114  0.13936   0.919  0.000  0.000
    23H     0.07771  0.13359   0.922  0.000  0.000
    24H     0.05065  0.10823   0.949  0.000  0.000
    25H     0.04788  0.10405   0.952  0.000  0.000
    26H     0.06374  0.11877   0.936  0.000  0.000
    27H     0.05010  0.10730   0.950  0.000  0.000
    28H     0.05870  0.11367   0.941  0.000  0.000
    29H     0.05070  0.10691   0.949  0.000  0.000
    30H     0.23894  0.43067   0.761  0.000  0.000
    31H     0.24626  0.43704   0.754  0.000  0.000
    32H     0.30397  0.51075   0.696  0.000  0.000
    33H     0.47090  0.64463   0.529  0.000  0.000

Wiberg/Mayer (AO) data.
largest (>0.10) Wiberg bond orders for each atom

 ---------------------------------------------------------------------------
     #   Z sym  total        # sym  WBO       # sym  WBO       # sym  WBO
 ---------------------------------------------------------------------------
     1   6 C    3.819 --    19 H    0.980    18 H    0.980    20 H    0.976
                             2 O    0.839
     2   8 O    2.252 --     3 C    1.216     1 C    0.839     4 O    0.148
     3   6 C    3.855 --     4 O    1.746     2 O    1.216     5 C    0.710
     4   8 O    2.086 --     3 C    1.746     2 O    0.148
     5   6 C    3.958 --    16 C    1.102     7 N    1.020     6 C    0.954
                             3 C    0.710
     6   6 C    3.967 --    21 H    0.981    22 H    0.980    23 H    0.978
                             5 C    0.954
     7   7 N    3.021 --     8 C    1.674     5 C    1.020
     8   6 C    3.903 --     7 N    1.674    13 N    1.110     9 C    0.975
     9   6 C    3.960 --    12 N    0.991    11 C    0.984     8 C    0.975
                            10 C    0.971
    10   6 C    3.990 --    24 H    0.985    25 H    0.985    26 H    0.980
                             9 C    0.971
    11   6 C    3.991 --    29 H    0.984    28 H    0.984     9 C    0.984
                            27 H    0.982
    12   7 N    2.997 --     9 C    0.991    30 H    0.933    31 H    0.928
    13   7 N    3.494 --    14 C    1.211     8 C    1.110    32 H    0.839
                            15 O    0.168
    14   6 C    3.924 --    15 O    1.624    13 N    1.211    16 C    0.975
    15   8 O    1.965 --    14 C    1.624    13 N    0.168
    16   6 C    3.803 --    17 O    1.355     5 C    1.102    14 C    0.975
    17   8 O    2.276 --    16 C    1.355    33 H    0.745
    18   1 H    0.998 --     1 C    0.980
    19   1 H    1.003 --     1 C    0.980
    20   1 H    0.998 --     1 C    0.976
    21   1 H    0.999 --     6 C    0.981
    22   1 H    0.998 --     6 C    0.980
    23   1 H    0.995 --     6 C    0.978
    24   1 H    1.000 --    10 C    0.985
    25   1 H    1.003 --    10 C    0.985
    26   1 H    0.997 --    10 C    0.980
    27   1 H    1.006 --    11 C    0.982
    28   1 H    1.000 --    11 C    0.984
    29   1 H    1.001 --    11 C    0.984
    30   1 H    0.946 --    12 N    0.933
    31   1 H    0.942 --    12 N    0.928
    32   1 H    0.931 --    13 N    0.839
    33   1 H    0.790 --    17 O    0.745
 ---------------------------------------------------------------------------

Topologies differ in total number of bonds
Writing topology from bond orders to xtbtopo.mol

 dipole moment from electron density (au)
     X       Y       Z   
  -0.6571  -0.8700   0.6098  total (Debye):    3.175

           -------------------------------------------------
          |                Geometry Summary                 |
           -------------------------------------------------

      molecular mass/u    :      242.2521403
   center of mass at/Å    :        0.3309948      -0.4328277       0.1030694
  moments of inertia/u·Å² :        0.7901544E+03   0.1273415E+04   0.1460728E+04
rotational constants/cm⁻¹ :        0.2133461E-01   0.1323813E-01   0.1154057E-01

 * 29 selected distances

     #   Z          #   Z                                           value/Å
     2   8 O        3   6 C                                       1.2921645
     3   6 C        4   8 O                                       1.1875428
     5   6 C        6   6 C                                       1.5300443
     5   6 C        7   7 N                                       1.4253327
     7   7 N        8   6 C                                       1.2784024
     9   6 C       10   6 C                                       1.5358897 (max)
     9   6 C       11   6 C                                       1.5328595
     9   6 C       12   7 N                                       1.4563049
     8   6 C       13   7 N                                       1.3791387
    13   7 N       14   6 C                                       1.3502358
    14   6 C       15   8 O                                       1.2118154
     5   6 C       16   6 C                                       1.4520011
    16   6 C       17   8 O                                       1.2773651
     1   6 C       18   1 H                                       1.0903886
     1   6 C       19   1 H                                       1.0875099
     1   6 C       20   1 H                                       1.0903492
     6   6 C       21   1 H                                       1.0877904
     6   6 C       22   1 H                                       1.0875665
     6   6 C       23   1 H                                       1.0875009
    10   6 C       24   1 H                                       1.0890172
    10   6 C       25   1 H                                       1.0892165
    10   6 C       26   1 H                                       1.0887229
    11   6 C       27   1 H                                       1.0895291
    11   6 C       28   1 H                                       1.0882569
    11   6 C       29   1 H                                       1.0888159
    12   7 N       30   1 H                                       1.0106601
    12   7 N       31   1 H                                       1.0101965
    13   7 N       32   1 H                                       1.0219653
    17   8 O       33   1 H                                       0.9851088 (min)

 * 6 distinct bonds (by element types)

   Z      Z             #   av. dist./Å        max./Å        min./Å
   1 H    6 C          12     1.0887220     1.0903886     1.0875009
   6 C    6 C           4     1.5126986     1.5358897     1.4520011
   1 H    7 N           3     1.0142740     1.0219653     1.0101965
   6 C    7 N           5     1.3778829     1.4563049     1.2784024
   1 H    8 O           1     0.9851088     0.9851088     0.9851088
   6 C    8 O           4     1.2422220     1.2921645     1.1875428


optimized geometry written to: xtbopt.xyz


           -------------------------------------------------
          | TOTAL ENERGY              -57.821437989117 Eh   |
          | GRADIENT NORM               0.000488131689 Eh/α |
          | HOMO-LUMO GAP               0.382964365249 eV   |
           -------------------------------------------------

------------------------------------------------------------------------
 * finished run on 2023/06/20 at 15:07:03.105     
------------------------------------------------------------------------
 total:
 * wall-time:     0 d,  0 h,  0 min,  3.878 sec
 *  cpu-time:     0 d,  0 h,  0 min,  3.809 sec
 * ratio c/w:     0.982 speedup
 SCF:
 * wall-time:     0 d,  0 h,  0 min,  0.162 sec
 *  cpu-time:     0 d,  0 h,  0 min,  0.161 sec
 * ratio c/w:     0.997 speedup
 ANC optimizer:
 * wall-time:     0 d,  0 h,  0 min,  3.633 sec
 *  cpu-time:     0 d,  0 h,  0 min,  3.619 sec
 * ratio c/w:     0.996 speedup

