      -----------------------------------------------------------      
     |                   =====================                   |     
     |                           x T B                           |     
     |                   =====================                   |     
     |                         S. Grimme                         |     
     |          Mulliken Center for Theoretical Chemistry        |     
     |                    University of Bonn                     |     
      -----------------------------------------------------------      

   * xtb version 6.5.1 (579679a) compiled by 'ehlert@majestix' on 2022-07-11

   xtb is free software: you can redistribute it and/or modify it under
   the terms of the GNU Lesser General Public License as published by
   the Free Software Foundation, either version 3 of the License, or
   (at your option) any later version.
   
   xtb is distributed in the hope that it will be useful,
   but WITHOUT ANY WARRANTY; without even the implied warranty of
   MERCHANTABILITY or FITNESS FOR A PARTICULAR PURPOSE.  See the
   GNU Lesser General Public License for more details.
   
   Cite this work as:
   * C. Bannwarth, E. Caldeweyher, S. Ehlert, A. Hansen, P. Pracht,
     J. Seibert, S. Spicher, S. Grimme, WIREs Comput. Mol. Sci., 2020, 11,
     e01493. DOI: 10.1002/wcms.1493
   
   for GFN2-xTB:
   * C. Bannwarth, S. Ehlert and S. Grimme., J. Chem. Theory Comput., 2019,
     15, 1652-1671. DOI: 10.1021/acs.jctc.8b01176
   for GFN1-xTB:
   * S. Grimme, C. Bannwarth, P. Shushkov, J. Chem. Theory Comput., 2017,
     13, 1989-2009. DOI: 10.1021/acs.jctc.7b00118
   for GFN0-xTB:
   * P. Pracht, E. Caldeweyher, S. Ehlert, S. Grimme, ChemRxiv, 2019, preprint.
     DOI: 10.26434/chemrxiv.8326202.v1
   for GFN-FF:
   * S. Spicher and S. Grimme, Angew. Chem. Int. Ed., 2020, 59, 15665-15673.
     DOI: 10.1002/anie.202004239
   
   for ALPB and GBSA implicit solvation:
   * S. Ehlert, M. Stahn, S. Spicher, S. Grimme, J. Chem. Theory Comput.,
     2021, 17, 4250-4261. DOI: 10.1021/acs.jctc.1c00471
   
   for DFT-D4:
   * E. Caldeweyher, C. Bannwarth and S. Grimme, J. Chem. Phys., 2017,
     147, 034112. DOI: 10.1063/1.4993215
   * E. Caldeweyher, S. Ehlert, A. Hansen, H. Neugebauer, S. Spicher,
     C. Bannwarth and S. Grimme, J. Chem. Phys., 2019, 150, 154122.
     DOI: 10.1063/1.5090222
   * E. Caldeweyher, J.-M. Mewes, S. Ehlert and S. Grimme, Phys. Chem. Chem. Phys.
     2020, 22, 8499-8512. DOI: 10.1039/D0CP00502A
   
   for sTDA-xTB:
   * S. Grimme and C. Bannwarth, J. Chem. Phys., 2016, 145, 054103.
     DOI: 10.1063/1.4959605
   
   in the mass-spec context:
   * V. Asgeirsson, C. Bauer and S. Grimme, Chem. Sci., 2017, 8, 4879.
     DOI: 10.1039/c7sc00601b
   * J. Koopman and S. Grimme, ACS Omega 2019, 4, 12, 15120-15133.
     DOI: 10.1021/acsomega.9b02011
   
   for metadynamics refer to:
   * S. Grimme, J. Chem. Theory Comput., 2019, 155, 2847-2862
     DOI: 10.1021/acs.jctc.9b00143
   
   for SPH calculations refer to:
   * S. Spicher and S. Grimme, J. Chem. Theory Comput., 2021, 17, 1701-1714
     DOI: 10.1021/acs.jctc.0c01306
   
   with help from (in alphabetical order)
   P. Atkinson, C. Bannwarth, F. Bohle, G. Brandenburg, E. Caldeweyher
   M. Checinski, S. Dohm, S. Ehlert, S. Ehrlich, I. Gerasimov, C. Hölzer
   A. Katbashev, J. Koopman, C. Lavigne, S. Lehtola, F. März, M. Müller,
   F. Musil, H. Neugebauer, J. Pisarek, C. Plett, P. Pracht, F. Pultar,
   J. Seibert, P. Shushkov, S. Spicher, M. Stahn, M. Steiner, T. Strunk,
   J. Stückrath, T. Rose, and J. Unsleber
   
 * started run on 2023/06/20 at 15:10:35.107     

           -------------------------------------------------
          |                Calculation Setup                |
           -------------------------------------------------

          program call               : /lustre/hpc/kemi/ree/PhD/git/ReactivityQM/dep/xtb-6.5.1/bin/xtb --gfn 1 /lustre/hpc/kemi/ree/PhD/git/ReactivityQM/calculations/RaltegravirCLI/reac02prodE10/conf06/RaltegravirCLI_reac02prodE10_conf06_gfn1.xyz --opt --vfukui --chrg -1 --uhf 0 --alpb DMSO
          hostname                   : node308
          coordinate file            : /lustre/hpc/kemi/ree/PhD/git/ReactivityQM/calculations/RaltegravirCLI/reac02prodE10/conf06/RaltegravirCLI_reac02prodE10_conf06_gfn1.xyz
          omp threads                :                     1

   ID    Z sym.   atoms
    1    6 C      1, 3, 5, 6, 8, 9, 12-16, 18, 19, 21-24
    2    7 N      2, 11, 20, 25
    3    8 O      4, 7, 10
    4    9 F      17
    5    1 H      26-47

           -------------------------------------------------
          |                 G F N 1 - x T B                 |
           -------------------------------------------------

        Reference                      10.1021/acs.jctc.7b00118
      * Hamiltonian:
        H0-scaling (s, p, d)           1.850000    2.250000    2.000000
        zeta-weighting                 0.000000
      * Dispersion:
        s8                             2.400000
        a1                             0.630000
        a2                             5.000000
        s9                             0.000000
      * Repulsion:
        kExp                           1.500000
        rExp                           1.000000
      * Coulomb:
        alpha                          2.000000
        third order                    atomic
        anisotropic                    false
      * Halogen bond correction:
        rad-scale                      1.300000
        damping                        0.440000

      * Solvation model:               ALPB
        Solvent                        DMSO
        Parameter file                 internal GFN1-xTB/ALPB
        Dielectric constant                4.6680E+01
        Reference state                gsolv [1 M gas/solution]
        Free energy shift                  7.6243E-03 Eh       4.7843E+00 kcal/mol
        Temperature                        2.9815E+02 K
        Density                            1.1000E+00 kg/L
        Solvent mass                       7.8130E+01 g/mol
        Interaction kernel             P16
        Born radius scaling (c1)           1.7672E+00
        Born radii integrator          GBOBC
        Born offset                        0.0000E+00 a0       0.0000E+00 AA
        H-bond correction              true
        Ion screening                  false
        Surface tension                    1.0000E-05 Eh       1.5569E+01 dyn/cm
        Grid points                               230 per atom

          ...................................................
          :                      SETUP                      :
          :.................................................:
          :  # basis functions                 144          :
          :  # atomic orbitals                 144          :
          :  # shells                           94          :
          :  # electrons                       136          :
          :  # halogen bonds                     0          :
          :  max. iterations                   250          :
          :  Hamiltonian                  GFN1-xTB          :
          :  restarted?                      false          :
          :  GBSA solvation                   true          :
          :  PC potential                    false          :
          :  electronic temp.          300.0000000     K    :
          :  accuracy                    1.0000000          :
          :  -> integral cutoff          0.2500000E+02      :
          :  -> integral neglect         0.1000000E-07      :
          :  -> SCF convergence          0.1000000E-05 Eh   :
          :  -> wf. convergence          0.2000000E-04 e    :
          :  Broyden damping             0.4000000          :
          ...................................................

 iter      E             dE          RMSdq      gap      omega  full diag
   1    -80.9073987 -0.809074E+02  0.875E+00    2.24       0.0  T
   2    -81.0718823 -0.164484E+00  0.524E+00    1.86       1.0  T
   3    -81.0373999  0.344824E-01  0.118E+00    1.10       1.0  T
   4    -81.0790252 -0.416253E-01  0.305E-01    1.14       1.0  T
   5    -81.0837345 -0.470933E-02  0.710E-02    1.20       1.0  T
   6    -81.0839586 -0.224036E-03  0.172E-02    1.25       1.0  T
   7    -81.0839741 -0.154932E-04  0.325E-03    1.25       4.5  T
   8    -81.0839743 -0.245657E-06  0.139E-03    1.25      10.5  T
   9    -81.0839743 -0.273963E-07  0.574E-04    1.25      25.4  T
  10    -81.0839743 -0.106796E-08  0.160E-04    1.25      91.1  T
  11    -81.0839743 -0.317996E-09  0.381E-05    1.25     382.4  T

   *** convergence criteria satisfied after 11 iterations ***

         #    Occupation            Energy/Eh            Energy/eV
      -------------------------------------------------------------
         1        2.0000           -0.8499561             -23.1285
       ...           ...                  ...                  ...
        62        2.0000           -0.4142425             -11.2721
        63        2.0000           -0.4078981             -11.0995
        64        2.0000           -0.3953792             -10.7588
        65        2.0000           -0.3883585             -10.5678
        66        2.0000           -0.3856901             -10.4952
        67        2.0000           -0.3696708             -10.0593
        68        2.0000           -0.3057453              -8.3198 (HOMO)
        69                         -0.2596904              -7.0665 (LUMO)
        70                         -0.2533721              -6.8946
        71                         -0.2336437              -6.3578
        72                         -0.1900169              -5.1706
        73                         -0.1341716              -3.6510
       ...                                ...                  ...
       144                          0.7235168              19.6879
      -------------------------------------------------------------
                  HL-Gap            0.0460549 Eh            1.2532 eV
             Fermi-level           -0.2827183 Eh           -7.6932 eV

 SCC (total)                   0 d,  0 h,  0 min,  0.208 sec
 SCC setup                      ...        0 min,  0.002 sec (  0.939%)
 Dispersion                     ...        0 min,  0.000 sec (  0.231%)
 classical contributions        ...        0 min,  0.000 sec (  0.061%)
 integral evaluation            ...        0 min,  0.045 sec ( 21.827%)
 iterations                     ...        0 min,  0.053 sec ( 25.730%)
 molecular gradient             ...        0 min,  0.105 sec ( 50.555%)
 printout                       ...        0 min,  0.001 sec (  0.623%)

         :::::::::::::::::::::::::::::::::::::::::::::::::::::
         ::                     SUMMARY                     ::
         :::::::::::::::::::::::::::::::::::::::::::::::::::::
         :: total energy             -80.215178569979 Eh    ::
         :: total w/o Gsasa/hb       -80.191555929732 Eh    ::
         :: gradient norm              0.122683370304 Eh/a0 ::
         :: HOMO-LUMO gap              1.253216543896 eV    ::
         ::.................................................::
         :: SCC energy               -81.083974349763 Eh    ::
         :: -> electrostatic           0.343070643148 Eh    ::
         :: -> Gsolv                  -0.102951324190 Eh    ::
         ::    -> Gelec               -0.079328683943 Eh    ::
         ::    -> Gsasa               -0.024157705013 Eh    ::
         ::    -> Ghb                 -0.007089214238 Eh    ::
         ::    -> Gshift               0.007624279005 Eh    ::
         :: repulsion energy           0.899812712808 Eh    ::
         :: dispersion energy         -0.031016933024 Eh    ::
         :: halogen bond corr.         0.000000000000 Eh    ::
         :: add. restraining           0.000000000000 Eh    ::
         :: total charge              -1.000000000000 e     ::
         :::::::::::::::::::::::::::::::::::::::::::::::::::::

      ----------------------------------------------------------- 
     |                   =====================                   |
     |                        A N C O P T                        |
     |                   =====================                   |
     |               Approximate Normal Coordinate               |
     |                Rational Function Optimizer                |
      ----------------------------------------------------------- 

          ...................................................
          :                      SETUP                      :
          :.................................................:
          :   optimization level            normal          :
          :   max. optcycles                   200          :
          :   ANC micro-cycles                  20          :
          :   degrees of freedom               135          :
          :.................................................:
          :   RF solver                   davidson          :
          :   write xtbopt.log                true          :
          :   linear?                        false          :
          :   energy convergence         0.5000000E-05 Eh   :
          :   grad. convergence          0.1000000E-02 Eh/α :
          :   maximium RF displ.         1.0000000          :
          :   Hlow (freq-cutoff)         0.1000000E-01      :
          :   Hmax (freq-cutoff)         5.0000000          :
          :   S6 in model hess.         20.0000000          :
          ...................................................

generating ANC from model Hessian ...
Using Lindh-Hessian (1995)
 Shifting diagonal of input Hessian by   9.783582032992457E-003
 Lowest  eigenvalues of input Hessian
    0.000000    0.000000    0.000000    0.000000    0.000000    0.000000
    0.010000    0.010022    0.010588    0.010754    0.010995    0.012028
    0.012935    0.013441    0.014430    0.015670    0.016964    0.017905
 Highest eigenvalues
    1.919596    2.021574    2.062055    2.125311    2.257888    2.282952
 

........................................................................
.............................. CYCLE    1 ..............................
........................................................................
   1    -81.0839743 -0.810840E+02  0.149E-05    1.25       0.0  T
   2    -81.0839743 -0.186162E-11  0.712E-06    1.25    2048.7  T
   3    -81.0839743 -0.142109E-12  0.394E-06    1.25    3703.1  T
     SCC iter.                  ...        0 min,  0.012 sec
     gradient                   ...        0 min,  0.113 sec
 * total energy  :   -80.2151786 Eh     change       -0.1404032E-10 Eh
   gradient norm :     0.1226838 Eh/α   predicted     0.0000000E+00 (-100.00%)
   displ. norm   :     0.2457343 α      lambda       -0.1370666E-01
   maximum displ.:     0.1039145 α      in ANC's #13, #18, #71, ...

........................................................................
.............................. CYCLE    2 ..............................
........................................................................
   1    -81.0785590 -0.810786E+02  0.878E-02    1.38       0.0  T
   2    -81.0790028 -0.443856E-03  0.466E-02    1.41       1.0  T
   3    -81.0791550 -0.152143E-03  0.168E-02    1.40       1.0  T
   4    -81.0791572 -0.227275E-05  0.827E-03    1.39       1.8  T
   5    -81.0791573 -0.905141E-07  0.234E-03    1.39       6.2  T
   6    -81.0791574 -0.672745E-07  0.439E-04    1.39      33.3  T
   7    -81.0791574 -0.425348E-08  0.135E-04    1.39     108.3  T
   8    -81.0791574 -0.358412E-09  0.388E-05    1.39     375.7  T
     SCC iter.                  ...        0 min,  0.058 sec
     gradient                   ...        0 min,  0.214 sec
 * total energy  :   -80.2245833 Eh     change       -0.9404736E-02 Eh
   gradient norm :     0.0559933 Eh/α   predicted    -0.7274563E-02 ( -22.65%)
   displ. norm   :     0.2071601 α      lambda       -0.4334158E-02
   maximum displ.:     0.1119525 α      in ANC's #13, #16, #19, ...

........................................................................
.............................. CYCLE    3 ..............................
........................................................................
   1    -81.0805574 -0.810806E+02  0.622E-02    1.48       0.0  T
   2    -81.0807570 -0.199578E-03  0.304E-02    1.50       1.0  T
   3    -81.0808243 -0.672940E-04  0.116E-02    1.50       1.3  T
   4    -81.0808254 -0.108427E-05  0.554E-03    1.49       2.6  T
   5    -81.0808255 -0.102340E-06  0.128E-03    1.49      11.4  T
   6    -81.0808255 -0.197814E-07  0.224E-04    1.49      65.2  T
   7    -81.0808255 -0.822197E-09  0.774E-05    1.49     188.4  T
   8    -81.0808255 -0.768239E-10  0.234E-05    1.49     624.5  T
     SCC iter.                  ...        0 min,  0.069 sec
     gradient                   ...        0 min,  0.174 sec
 * total energy  :   -80.2270516 Eh     change       -0.2468320E-02 Eh
   gradient norm :     0.0135188 Eh/α   predicted    -0.2261160E-02 (  -8.39%)
   displ. norm   :     0.1196946 α      lambda       -0.4480029E-03
   maximum displ.:     0.0652837 α      in ANC's #13, #7, #16, ...

........................................................................
.............................. CYCLE    4 ..............................
........................................................................
   1    -81.0823628 -0.810824E+02  0.944E-03    1.51       0.0  T
   2    -81.0823666 -0.380551E-05  0.442E-03    1.52       3.3  T
   3    -81.0823668 -0.260112E-06  0.273E-03    1.52       5.3  T
   4    -81.0823668 -0.823476E-08  0.955E-04    1.52      15.3  T
   5    -81.0823669 -0.160651E-07  0.352E-04    1.52      41.5  T
   6    -81.0823669 -0.328805E-08  0.656E-05    1.52     222.2  T
   7    -81.0823669 -0.622009E-10  0.244E-05    1.52     598.8  T
     SCC iter.                  ...        0 min,  0.032 sec
     gradient                   ...        0 min,  0.104 sec
 * total energy  :   -80.2273837 Eh     change       -0.3320991E-03 Eh
   gradient norm :     0.0071903 Eh/α   predicted    -0.2272152E-03 ( -31.58%)
   displ. norm   :     0.1731585 α      lambda       -0.3579847E-03
   maximum displ.:     0.0786888 α      in ANC's #13, #7, #16, ...

........................................................................
.............................. CYCLE    5 ..............................
........................................................................
   1    -81.0834329 -0.810834E+02  0.125E-02    1.53       0.0  T
   2    -81.0834414 -0.858478E-05  0.707E-03    1.53       2.1  T
   3    -81.0834425 -0.104226E-05  0.364E-03    1.53       4.0  T
   4    -81.0834425  0.129643E-07  0.203E-03    1.53       7.2  T
   5    -81.0834425 -0.577040E-07  0.315E-04    1.53      46.3  T
   6    -81.0834425 -0.228161E-08  0.103E-04    1.53     141.1  T
   7    -81.0834425 -0.192699E-09  0.280E-05    1.53     520.2  T
     SCC iter.                  ...        0 min,  0.032 sec
     gradient                   ...        0 min,  0.105 sec
 * total energy  :   -80.2276128 Eh     change       -0.2291168E-03 Eh
   gradient norm :     0.0060960 Eh/α   predicted    -0.1843601E-03 ( -19.53%)
   displ. norm   :     0.1198065 α      lambda       -0.1242393E-03
   maximum displ.:     0.0503740 α      in ANC's #7, #5, #13, ...

........................................................................
.............................. CYCLE    6 ..............................
........................................................................
   1    -81.0836262 -0.810836E+02  0.750E-03    1.53       0.0  T
   2    -81.0836291 -0.286104E-05  0.391E-03    1.53       3.7  T
   3    -81.0836295 -0.405626E-06  0.218E-03    1.54       6.7  T
   4    -81.0836295 -0.126433E-07  0.107E-03    1.54      13.6  T
   5    -81.0836295 -0.105061E-07  0.143E-04    1.54     101.9  T
   6    -81.0836295 -0.467537E-09  0.522E-05    1.54     279.4  T
     SCC iter.                  ...        0 min,  0.021 sec
     gradient                   ...        0 min,  0.094 sec
 * total energy  :   -80.2277076 Eh     change       -0.9475551E-04 Eh
   gradient norm :     0.0057774 Eh/α   predicted    -0.6301621E-04 ( -33.50%)
   displ. norm   :     0.1804217 α      lambda       -0.1496984E-03
   maximum displ.:     0.0739997 α      in ANC's #5, #7, #25, ...

........................................................................
.............................. CYCLE    7 ..............................
........................................................................
   1    -81.0834357 -0.810834E+02  0.784E-03    1.53       0.0  T
   2    -81.0834383 -0.258631E-05  0.395E-03    1.54       3.7  T
   3    -81.0834385 -0.168164E-06  0.257E-03    1.54       5.7  T
   4    -81.0834385 -0.942623E-08  0.991E-04    1.54      14.7  T
   5    -81.0834385 -0.252505E-07  0.143E-04    1.54     102.3  T
   6    -81.0834385 -0.412953E-09  0.542E-05    1.54     269.1  T
     SCC iter.                  ...        0 min,  0.024 sec
     gradient                   ...        0 min,  0.058 sec
 * total energy  :   -80.2278121 Eh     change       -0.1045116E-03 Eh
   gradient norm :     0.0048218 Eh/α   predicted    -0.7729635E-04 ( -26.04%)
   displ. norm   :     0.1577445 α      lambda       -0.9324985E-04
   maximum displ.:     0.0751469 α      in ANC's #5, #7, #2, ...

........................................................................
.............................. CYCLE    8 ..............................
........................................................................
   1    -81.0833429 -0.810833E+02  0.433E-03    1.54       0.0  T
   2    -81.0833436 -0.678350E-06  0.286E-03    1.54       5.1  T
   3    -81.0833437 -0.982801E-07  0.153E-03    1.54       9.5  T
   4    -81.0833437 -0.930314E-09  0.615E-04    1.54      23.7  T
   5    -81.0833437 -0.721516E-08  0.104E-04    1.54     139.8  T
   6    -81.0833437 -0.330488E-09  0.336E-05    1.54     434.0  T
     SCC iter.                  ...        0 min,  0.020 sec
     gradient                   ...        0 min,  0.058 sec
 * total energy  :   -80.2278801 Eh     change       -0.6796647E-04 Eh
   gradient norm :     0.0036967 Eh/α   predicted    -0.4778597E-04 ( -29.69%)
   displ. norm   :     0.1601496 α      lambda       -0.6925400E-04
   maximum displ.:     0.0814933 α      in ANC's #5, #1, #2, ...

........................................................................
.............................. CYCLE    9 ..............................
........................................................................
   1    -81.0834209 -0.810834E+02  0.512E-03    1.54       0.0  T
   2    -81.0834222 -0.132040E-05  0.351E-03    1.54       4.2  T
   3    -81.0834228 -0.538638E-06  0.112E-03    1.54      13.0  T
   4    -81.0834228 -0.847052E-09  0.476E-04    1.54      30.6  T
   5    -81.0834228 -0.204011E-08  0.991E-05    1.54     147.2  T
   6    -81.0834228 -0.167020E-09  0.247E-05    1.54     590.6  T
     SCC iter.                  ...        0 min,  0.020 sec
     gradient                   ...        0 min,  0.068 sec
 * total energy  :   -80.2279308 Eh     change       -0.5069657E-04 Eh
   gradient norm :     0.0028325 Eh/α   predicted    -0.3551611E-04 ( -29.94%)
   displ. norm   :     0.1480525 α      lambda       -0.4939467E-04
   maximum displ.:     0.0757396 α      in ANC's #5, #1, #2, ...

........................................................................
.............................. CYCLE   10 ..............................
........................................................................
   1    -81.0837017 -0.810837E+02  0.489E-03    1.54       0.0  T
   2    -81.0837029 -0.115662E-05  0.293E-03    1.54       5.0  T
   3    -81.0837033 -0.458380E-06  0.725E-04    1.54      20.1  T
   4    -81.0837033 -0.139379E-08  0.351E-04    1.54      41.5  T
   5    -81.0837033 -0.556042E-09  0.697E-05    1.54     209.2  T
   6    -81.0837033 -0.673452E-10  0.185E-05    1.54     786.5  T
     SCC iter.                  ...        0 min,  0.029 sec
     gradient                   ...        0 min,  0.103 sec
 * total energy  :   -80.2279690 Eh     change       -0.3818728E-04 Eh
   gradient norm :     0.0026006 Eh/α   predicted    -0.2523932E-04 ( -33.91%)
   displ. norm   :     0.1463241 α      lambda       -0.4500900E-04
   maximum displ.:     0.0821539 α      in ANC's #1, #5, #2, ...

........................................................................
.............................. CYCLE   11 ..............................
........................................................................
   1    -81.0840677 -0.810841E+02  0.370E-03    1.54       0.0  T
   2    -81.0840683 -0.601031E-06  0.186E-03    1.54       7.8  T
   3    -81.0840685 -0.179330E-06  0.688E-04    1.54      21.2  T
   4    -81.0840685 -0.358904E-08  0.313E-04    1.54      46.6  T
   5    -81.0840685 -0.160952E-09  0.530E-05    1.54     275.0  T
   6    -81.0840685 -0.546265E-10  0.148E-05    1.54     984.2  T
     SCC iter.                  ...        0 min,  0.028 sec
     gradient                   ...        0 min,  0.103 sec
 * total energy  :   -80.2280058 Eh     change       -0.3684748E-04 Eh
   gradient norm :     0.0027142 Eh/α   predicted    -0.2298772E-04 ( -37.61%)
   displ. norm   :     0.1705367 α      lambda       -0.5097669E-04
   maximum displ.:     0.1019328 α      in ANC's #1, #5, #2, ...

........................................................................
.............................. CYCLE   12 ..............................
........................................................................
   1    -81.0843186 -0.810843E+02  0.250E-03    1.55       0.0  T
   2    -81.0843189 -0.273275E-06  0.105E-03    1.55      13.8  T
   3    -81.0843189 -0.180378E-07  0.632E-04    1.55      23.1  T
   4    -81.0843189 -0.108844E-08  0.246E-04    1.55      59.3  T
   5    -81.0843189 -0.956177E-09  0.699E-05    1.55     208.7  T
   6    -81.0843189 -0.148603E-09  0.155E-05    1.55     942.0  T
     SCC iter.                  ...        0 min,  0.028 sec
     gradient                   ...        0 min,  0.075 sec
 * total energy  :   -80.2280481 Eh     change       -0.4228578E-04 Eh
   gradient norm :     0.0027648 Eh/α   predicted    -0.2623830E-04 ( -37.95%)
   displ. norm   :     0.1983392 α      lambda       -0.5336812E-04
   maximum displ.:     0.1220529 α      in ANC's #1, #2, #5, ...

........................................................................
.............................. CYCLE   13 ..............................
........................................................................
   1    -81.0842455 -0.810842E+02  0.229E-03    1.55       0.0  T
   2    -81.0842458 -0.291554E-06  0.140E-03    1.55      10.4  T
   3    -81.0842459 -0.619374E-07  0.539E-04    1.55      27.1  T
   4    -81.0842459 -0.185892E-09  0.304E-04    1.55      47.9  T
   5    -81.0842459 -0.121500E-08  0.674E-05    1.55     216.4  T
   6    -81.0842459 -0.552376E-10  0.159E-05    1.55     916.4  T
     SCC iter.                  ...        0 min,  0.029 sec
     gradient                   ...        0 min,  0.104 sec
 * total energy  :   -80.2280924 Eh     change       -0.4426119E-04 Eh
   gradient norm :     0.0025087 Eh/α   predicted    -0.2773425E-04 ( -37.34%)
   displ. norm   :     0.1996404 α      lambda       -0.4797057E-04
   maximum displ.:     0.1258672 α      in ANC's #1, #2, #5, ...

........................................................................
.............................. CYCLE   14 ..............................
........................................................................
   1    -81.0840332 -0.810840E+02  0.278E-03    1.55       0.0  T
   2    -81.0840336 -0.386304E-06  0.172E-03    1.55       8.5  T
   3    -81.0840337 -0.138085E-06  0.490E-04    1.55      29.8  T
   4    -81.0840337 -0.511776E-09  0.243E-04    1.55      60.0  T
   5    -81.0840337 -0.587363E-09  0.595E-05    1.55     245.3  T
   6    -81.0840337 -0.335518E-10  0.164E-05    1.55     891.7  T
     SCC iter.                  ...        0 min,  0.029 sec
     gradient                   ...        0 min,  0.106 sec
 * total energy  :   -80.2281326 Eh     change       -0.4026943E-04 Eh
   gradient norm :     0.0020946 Eh/α   predicted    -0.2494486E-04 ( -38.06%)
   displ. norm   :     0.1892279 α      lambda       -0.4308712E-04
   maximum displ.:     0.1218822 α      in ANC's #1, #2, #4, ...

........................................................................
.............................. CYCLE   15 ..............................
........................................................................
   1    -81.0837774 -0.810838E+02  0.278E-03    1.55       0.0  T
   2    -81.0837777 -0.307887E-06  0.150E-03    1.55       9.7  T
   3    -81.0837778 -0.789247E-07  0.686E-04    1.55      21.3  T
   4    -81.0837778 -0.174026E-08  0.289E-04    1.55      50.5  T
   5    -81.0837778 -0.770967E-09  0.545E-05    1.55     267.8  T
   6    -81.0837778 -0.474216E-10  0.181E-05    1.55     805.7  T
     SCC iter.                  ...        0 min,  0.029 sec
     gradient                   ...        0 min,  0.107 sec
 * total energy  :   -80.2281698 Eh     change       -0.3718616E-04 Eh
   gradient norm :     0.0018012 Eh/α   predicted    -0.2231925E-04 ( -39.98%)
   displ. norm   :     0.2871948 α      lambda       -0.4378707E-04
   maximum displ.:     0.1889505 α      in ANC's #1, #2, #4, ...

........................................................................
.............................. CYCLE   16 ..............................
........................................................................
   1    -81.0835984 -0.810836E+02  0.374E-03    1.55       0.0  T
   2    -81.0835989 -0.527398E-06  0.193E-03    1.56       7.6  T
   3    -81.0835990 -0.334730E-07  0.119E-03    1.56      12.3  T
   4    -81.0835990  0.785434E-10  0.445E-04    1.56      32.8  T
   5    -81.0835990 -0.555237E-08  0.778E-05    1.56     187.5  T
   6    -81.0835990 -0.198185E-09  0.284E-05    1.56     513.5  T
     SCC iter.                  ...        0 min,  0.029 sec
     gradient                   ...        0 min,  0.107 sec
 * total energy  :   -80.2282238 Eh     change       -0.5401006E-04 Eh
   gradient norm :     0.0023283 Eh/α   predicted    -0.2269877E-04 ( -57.97%)
   displ. norm   :     0.1884189 α      lambda       -0.4267246E-04
   maximum displ.:     0.1247002 α      in ANC's #1, #2, #4, ...

........................................................................
.............................. CYCLE   17 ..............................
........................................................................
   1    -81.0830691 -0.810831E+02  0.324E-03    1.56       0.0  T
   2    -81.0830695 -0.406624E-06  0.206E-03    1.56       7.1  T
   3    -81.0830696 -0.718009E-07  0.115E-03    1.56      12.6  T
   4    -81.0830696 -0.407911E-08  0.424E-04    1.56      34.4  T
   5    -81.0830696 -0.199343E-08  0.703E-05    1.56     207.4  T
   6    -81.0830696 -0.114611E-09  0.229E-05    1.56     638.2  T
     SCC iter.                  ...        0 min,  0.029 sec
     gradient                   ...        0 min,  0.106 sec
 * total energy  :   -80.2282617 Eh     change       -0.3791574E-04 Eh
   gradient norm :     0.0024450 Eh/α   predicted    -0.2209733E-04 ( -41.72%)
   displ. norm   :     0.2605396 α      lambda       -0.6544690E-04
   maximum displ.:     0.1746589 α      in ANC's #1, #2, #4, ...

........................................................................
.............................. CYCLE   18 ..............................
........................................................................
   1    -81.0834055 -0.810834E+02  0.393E-03    1.57       0.0  T
   2    -81.0834062 -0.718906E-06  0.270E-03    1.57       5.4  T
   3    -81.0834064 -0.221235E-06  0.130E-03    1.57      11.2  T
   4    -81.0834064 -0.126992E-08  0.454E-04    1.57      32.1  T
   5    -81.0834064 -0.129577E-08  0.635E-05    1.57     229.6  T
   6    -81.0834064 -0.126562E-09  0.233E-05    1.57     625.8  T
     SCC iter.                  ...        0 min,  0.029 sec
     gradient                   ...        0 min,  0.106 sec
 * total energy  :   -80.2283174 Eh     change       -0.5564763E-04 Eh
   gradient norm :     0.0021626 Eh/α   predicted    -0.3494711E-04 ( -37.20%)
   displ. norm   :     0.3346103 α      lambda       -0.7143965E-04
   maximum displ.:     0.2251336 α      in ANC's #1, #2, #4, ...

........................................................................
.............................. CYCLE   19 ..............................
........................................................................
   1    -81.0827432 -0.810827E+02  0.524E-03    1.57       0.0  T
   2    -81.0827447 -0.143608E-05  0.369E-03    1.58       4.0  T
   3    -81.0827451 -0.471286E-06  0.169E-03    1.58       8.6  T
   4    -81.0827451 -0.230888E-08  0.647E-04    1.58      22.6  T
   5    -81.0827451 -0.179655E-08  0.860E-05    1.58     169.7  T
   6    -81.0827451 -0.197431E-09  0.314E-05    1.58     463.8  T
     SCC iter.                  ...        0 min,  0.030 sec
     gradient                   ...        0 min,  0.106 sec
 * total energy  :   -80.2283754 Eh     change       -0.5804919E-04 Eh
   gradient norm :     0.0019813 Eh/α   predicted    -0.3972397E-04 ( -31.57%)
   displ. norm   :     0.4180460 α      lambda       -0.4913465E-04
   maximum displ.:     0.2857542 α      in ANC's #1, #2, #4, ...

........................................................................
.............................. CYCLE   20 ..............................
........................................................................
   1    -81.0822914 -0.810823E+02  0.483E-03    1.58       0.0  T
   2    -81.0822927 -0.125261E-05  0.329E-03    1.59       4.4  T
   3    -81.0822931 -0.404439E-06  0.141E-03    1.59      10.4  T
   4    -81.0822931 -0.291601E-08  0.606E-04    1.59      24.1  T
   5    -81.0822931 -0.132711E-08  0.824E-05    1.59     177.1  T
   6    -81.0822931 -0.178986E-09  0.306E-05    1.59     477.0  T
     SCC iter.                  ...        0 min,  0.029 sec
     gradient                   ...        0 min,  0.106 sec
 * total energy  :   -80.2284308 Eh     change       -0.5541382E-04 Eh
   gradient norm :     0.0020579 Eh/α   predicted    -0.2647756E-04 ( -52.22%)
   displ. norm   :     0.1663809 α      lambda       -0.2833334E-04
   maximum displ.:     0.1166093 α      in ANC's #1, #2, #4, ...
 * RMSD in coord.:     0.4732786 α      energy gain  -0.1325228E-01 Eh

generating ANC from model Hessian ...
Using Lindh-Hessian (1995)
 Shifting diagonal of input Hessian by   9.790645916105317E-003
 Lowest  eigenvalues of input Hessian
    0.000000    0.000000    0.000000    0.000000    0.000000    0.000000
    0.010000    0.010046    0.010567    0.010723    0.010946    0.012036
    0.012705    0.013344    0.014334    0.015235    0.016914    0.017720
 Highest eigenvalues
    1.883545    2.018021    2.083135    2.093047    2.220847    2.243830
 

........................................................................
.............................. CYCLE   21 ..............................
........................................................................
   1    -81.0827970 -0.810828E+02  0.123E-03    1.59       0.0  T
   2    -81.0827970 -0.510389E-07  0.580E-04    1.59      25.2  T
   3    -81.0827971 -0.543437E-08  0.317E-04    1.59      46.0  T
   4    -81.0827971 -0.144269E-08  0.136E-04    1.59     107.2  T
   5    -81.0827971 -0.120735E-09  0.285E-05    1.59     512.6  T
     SCC iter.                  ...        0 min,  0.023 sec
     gradient                   ...        0 min,  0.103 sec
 * total energy  :   -80.2284550 Eh     change       -0.2413575E-04 Eh
   gradient norm :     0.0016183 Eh/α   predicted     0.0000000E+00 (-100.00%)
   displ. norm   :     0.0351144 α      lambda       -0.1178114E-04
   maximum displ.:     0.0230842 α      in ANC's #1, #12, #8, ...

........................................................................
.............................. CYCLE   22 ..............................
........................................................................
   1    -81.0838207 -0.810838E+02  0.201E-03    1.59       0.0  T
   2    -81.0838208 -0.119985E-06  0.124E-03    1.59      11.7  T
   3    -81.0838209 -0.486368E-07  0.571E-04    1.59      25.5  T
   4    -81.0838209 -0.694627E-09  0.144E-04    1.59     101.5  T
   5    -81.0838209 -0.318778E-09  0.335E-05    1.59     435.6  T
     SCC iter.                  ...        0 min,  0.024 sec
     gradient                   ...        0 min,  0.104 sec
 * total energy  :   -80.2284690 Eh     change       -0.1400024E-04 Eh
   gradient norm :     0.0007229 Eh/α   predicted    -0.5967122E-05 ( -57.38%)
   displ. norm   :     0.0799506 α      lambda       -0.1643504E-04
   maximum displ.:     0.0541471 α      in ANC's #1, #17, #12, ...

........................................................................
.............................. CYCLE   23 ..............................
........................................................................
   1    -81.0841265 -0.810841E+02  0.273E-03    1.59       0.0  T
   2    -81.0841268 -0.278180E-06  0.185E-03    1.59       7.9  T
   3    -81.0841269 -0.107659E-06  0.857E-04    1.59      17.0  T
   4    -81.0841269 -0.419604E-09  0.223E-04    1.59      65.4  T
   5    -81.0841269 -0.521808E-09  0.388E-05    1.59     375.6  T
   6    -81.0841269 -0.368345E-10  0.136E-05    1.59    1069.8  T
     SCC iter.                  ...        0 min,  0.028 sec
     gradient                   ...        0 min,  0.103 sec
 * total energy  :   -80.2284861 Eh     change       -0.1716035E-04 Eh
   gradient norm :     0.0008901 Eh/α   predicted    -0.8241042E-05 ( -51.98%)
   displ. norm   :     0.0684481 α      lambda       -0.8275021E-05
   maximum displ.:     0.0518064 α      in ANC's #1, #17, #14, ...

........................................................................
.............................. CYCLE   24 ..............................
........................................................................
   1    -81.0840286 -0.810840E+02  0.161E-03    1.59       0.0  T
   2    -81.0840287 -0.973966E-07  0.936E-04    1.59      15.6  T
   3    -81.0840287 -0.115272E-07  0.538E-04    1.59      27.1  T
   4    -81.0840287 -0.381874E-09  0.194E-04    1.59      75.3  T
   5    -81.0840287 -0.843642E-09  0.361E-05    1.59     404.6  T
     SCC iter.                  ...        0 min,  0.024 sec
     gradient                   ...        0 min,  0.103 sec
 * total energy  :   -80.2284958 Eh     change       -0.9617513E-05 Eh
   gradient norm :     0.0009388 Eh/α   predicted    -0.4146384E-05 ( -56.89%)
   displ. norm   :     0.0608383 α      lambda       -0.6773021E-05
   maximum displ.:     0.0478127 α      in ANC's #1, #17, #14, ...

........................................................................
.............................. CYCLE   25 ..............................
........................................................................
   1    -81.0839004 -0.810839E+02  0.115E-03    1.59       0.0  T
   2    -81.0839005 -0.694409E-07  0.502E-04    1.59      29.1  T
   3    -81.0839005 -0.437886E-08  0.271E-04    1.59      53.9  T
   4    -81.0839005 -0.218989E-10  0.131E-04    1.59     111.2  T
   5    -81.0839005 -0.285297E-09  0.290E-05    1.59     503.7  T
     SCC iter.                  ...        0 min,  0.024 sec
     gradient                   ...        0 min,  0.102 sec
 * total energy  :   -80.2285045 Eh     change       -0.8730253E-05 Eh
   gradient norm :     0.0006984 Eh/α   predicted    -0.3429483E-05 ( -60.72%)
   displ. norm   :     0.0673071 α      lambda       -0.7643237E-05
   maximum displ.:     0.0532838 α      in ANC's #1, #3, #11, ...

........................................................................
.............................. CYCLE   26 ..............................
........................................................................
   1    -81.0837165 -0.810837E+02  0.118E-03    1.58       0.0  T
   2    -81.0837166 -0.650560E-07  0.696E-04    1.58      21.0  T
   3    -81.0837166 -0.191603E-07  0.231E-04    1.58      63.2  T
   4    -81.0837166 -0.207052E-10  0.123E-04    1.58     118.5  T
   5    -81.0837166 -0.207663E-09  0.254E-05    1.58     574.9  T
     SCC iter.                  ...        0 min,  0.024 sec
     gradient                   ...        0 min,  0.103 sec
 * total energy  :   -80.2285142 Eh     change       -0.9661917E-05 Eh
   gradient norm :     0.0005491 Eh/α   predicted    -0.3831687E-05 ( -60.34%)
   displ. norm   :     0.0723255 α      lambda       -0.7216310E-05
   maximum displ.:     0.0576381 α      in ANC's #1, #3, #8, ...

........................................................................
.............................. CYCLE   27 ..............................
........................................................................
   1    -81.0836835 -0.810837E+02  0.112E-03    1.58       0.0  T
   2    -81.0836835 -0.509324E-07  0.769E-04    1.58      19.0  T
   3    -81.0836836 -0.218723E-07  0.311E-04    1.58      46.9  T
   4    -81.0836836 -0.764260E-10  0.932E-05    1.58     156.6  T
   5    -81.0836836 -0.678142E-10  0.195E-05    1.58     746.1  T
     SCC iter.                  ...        0 min,  0.024 sec
     gradient                   ...        0 min,  0.079 sec
 * total energy  :   -80.2285235 Eh     change       -0.9367895E-05 Eh
   gradient norm :     0.0006398 Eh/α   predicted    -0.3620924E-05 ( -61.35%)
   displ. norm   :     0.0695895 α      lambda       -0.6519391E-05
   maximum displ.:     0.0560917 α      in ANC's #1, #3, #8, ...

........................................................................
.............................. CYCLE   28 ..............................
........................................................................
   1    -81.0837029 -0.810837E+02  0.105E-03    1.59       0.0  T
   2    -81.0837030 -0.481020E-07  0.653E-04    1.59      22.3  T
   3    -81.0837030 -0.127428E-07  0.314E-04    1.59      46.4  T
   4    -81.0837030 -0.170473E-09  0.137E-04    1.59     106.1  T
   5    -81.0837030 -0.130242E-09  0.203E-05    1.59     718.1  T
     SCC iter.                  ...        0 min,  0.022 sec
     gradient                   ...        0 min,  0.107 sec
 * total energy  :   -80.2285323 Eh     change       -0.8812255E-05 Eh
   gradient norm :     0.0006505 Eh/α   predicted    -0.3267322E-05 ( -62.92%)
   displ. norm   :     0.0722253 α      lambda       -0.6846999E-05
   maximum displ.:     0.0578160 α      in ANC's #1, #3, #18, ...

........................................................................
.............................. CYCLE   29 ..............................
........................................................................
   1    -81.0837745 -0.810838E+02  0.101E-03    1.59       0.0  T
   2    -81.0837746 -0.433023E-07  0.552E-04    1.59      26.4  T
   3    -81.0837746 -0.637792E-08  0.297E-04    1.59      49.1  T
   4    -81.0837746 -0.353580E-09  0.144E-04    1.59     101.4  T
   5    -81.0837746 -0.207507E-09  0.225E-05    1.59     648.3  T
     SCC iter.                  ...        0 min,  0.024 sec
     gradient                   ...        0 min,  0.093 sec
 * total energy  :   -80.2285418 Eh     change       -0.9490245E-05 Eh
   gradient norm :     0.0005545 Eh/α   predicted    -0.3432091E-05 ( -63.84%)
   displ. norm   :     0.0850554 α      lambda       -0.8054632E-05
   maximum displ.:     0.0672633 α      in ANC's #1, #3, #18, ...

........................................................................
.............................. CYCLE   30 ..............................
........................................................................
   1    -81.0838579 -0.810839E+02  0.923E-04    1.59       0.0  T
   2    -81.0838579 -0.298816E-07  0.410E-04    1.59      35.5  T
   3    -81.0838579 -0.175555E-08  0.230E-04    1.59      63.4  T
   4    -81.0838579 -0.312767E-09  0.107E-04    1.59     136.4  T
   5    -81.0838579 -0.207464E-09  0.250E-05    1.59     584.6  T
     SCC iter.                  ...        0 min,  0.022 sec
     gradient                   ...        0 min,  0.098 sec
 * total energy  :   -80.2285530 Eh     change       -0.1116011E-04 Eh
   gradient norm :     0.0004656 Eh/α   predicted    -0.4040404E-05 ( -63.80%)
   displ. norm   :     0.1014242 α      lambda       -0.9110714E-05
   maximum displ.:     0.0793727 α      in ANC's #1, #3, #18, ...

........................................................................
.............................. CYCLE   31 ..............................
........................................................................
   1    -81.0838919 -0.810839E+02  0.818E-04    1.59       0.0  T
   2    -81.0838920 -0.144736E-07  0.308E-04    1.59      47.3  T
   3    -81.0838920 -0.641108E-09  0.130E-04    1.59     112.4  T
   4    -81.0838920 -0.114369E-09  0.497E-05    1.59     293.6  T
     SCC iter.                  ...        0 min,  0.019 sec
     gradient                   ...        0 min,  0.100 sec
 * total energy  :   -80.2285655 Eh     change       -0.1254043E-04 Eh
   gradient norm :     0.0004801 Eh/α   predicted    -0.4576416E-05 ( -63.51%)
   displ. norm   :     0.1091311 α      lambda       -0.9058690E-05
   maximum displ.:     0.0852083 α      in ANC's #1, #3, #18, ...

........................................................................
.............................. CYCLE   32 ..............................
........................................................................
   1    -81.0839244 -0.810839E+02  0.740E-04    1.59       0.0  T
   2    -81.0839245 -0.124067E-07  0.330E-04    1.59      44.2  T
   3    -81.0839245 -0.668365E-09  0.139E-04    1.59     105.2  T
   4    -81.0839245 -0.281759E-09  0.559E-05    1.59     260.9  T
     SCC iter.                  ...        0 min,  0.019 sec
     gradient                   ...        0 min,  0.100 sec
 * total energy  :   -80.2285780 Eh     change       -0.1246954E-04 Eh
   gradient norm :     0.0005011 Eh/α   predicted    -0.4555667E-05 ( -63.47%)
   displ. norm   :     0.1081155 α      lambda       -0.8343740E-05
   maximum displ.:     0.0842889 α      in ANC's #1, #3, #5, ...

........................................................................
.............................. CYCLE   33 ..............................
........................................................................
   1    -81.0839422 -0.810839E+02  0.793E-04    1.59       0.0  T
   2    -81.0839422 -0.187372E-07  0.396E-04    1.59      36.8  T
   3    -81.0839422 -0.881187E-09  0.196E-04    1.59      74.3  T
   4    -81.0839422 -0.164718E-09  0.692E-05    1.59     210.8  T
     SCC iter.                  ...        0 min,  0.019 sec
     gradient                   ...        0 min,  0.101 sec
 * total energy  :   -80.2285897 Eh     change       -0.1170774E-04 Eh
   gradient norm :     0.0004638 Eh/α   predicted    -0.4195604E-05 ( -64.16%)
   displ. norm   :     0.1075440 α      lambda       -0.8006487E-05
   maximum displ.:     0.0837415 α      in ANC's #1, #3, #5, ...

........................................................................
.............................. CYCLE   34 ..............................
........................................................................
   1    -81.0839303 -0.810839E+02  0.803E-04    1.59       0.0  T
   2    -81.0839303 -0.240025E-07  0.396E-04    1.59      36.9  T
   3    -81.0839303 -0.927528E-09  0.214E-04    1.59      68.2  T
   4    -81.0839303 -0.105871E-09  0.588E-05    1.59     247.9  T
   5    -81.0839303 -0.368203E-10  0.153E-05    1.59     953.9  T
     SCC iter.                  ...        0 min,  0.023 sec
     gradient                   ...        0 min,  0.101 sec
 * total energy  :   -80.2286009 Eh     change       -0.1121074E-04 Eh
   gradient norm :     0.0003746 Eh/α   predicted    -0.4025948E-05 ( -64.09%)
   displ. norm   :     0.1051528 α      lambda       -0.7439337E-05
   maximum displ.:     0.0817788 α      in ANC's #1, #3, #5, ...

........................................................................
.............................. CYCLE   35 ..............................
........................................................................
   1    -81.0839367 -0.810839E+02  0.742E-04    1.59       0.0  T
   2    -81.0839367 -0.171966E-07  0.368E-04    1.59      39.6  T
   3    -81.0839368 -0.929461E-09  0.205E-04    1.59      71.2  T
   4    -81.0839368 -0.122370E-09  0.686E-05    1.59     212.5  T
   5    -81.0839368 -0.130598E-09  0.207E-05    1.59     703.9  T
     SCC iter.                  ...        0 min,  0.023 sec
     gradient                   ...        0 min,  0.103 sec
 * total energy  :   -80.2286112 Eh     change       -0.1028475E-04 Eh
   gradient norm :     0.0003242 Eh/α   predicted    -0.3738918E-05 ( -63.65%)
   displ. norm   :     0.0935622 α      lambda       -0.6152128E-05
   maximum displ.:     0.0733548 α      in ANC's #1, #3, #5, ...

........................................................................
.............................. CYCLE   36 ..............................
........................................................................
   1    -81.0839409 -0.810839E+02  0.620E-04    1.59       0.0  T
   2    -81.0839409 -0.117548E-07  0.284E-04    1.59      51.3  T
   3    -81.0839409 -0.175004E-08  0.156E-04    1.59      93.3  T
   4    -81.0839409 -0.249116E-09  0.563E-05    1.59     259.3  T
     SCC iter.                  ...        0 min,  0.018 sec
     gradient                   ...        0 min,  0.100 sec
 * total energy  :   -80.2286198 Eh     change       -0.8581066E-05 Eh
   gradient norm :     0.0002951 Eh/α   predicted    -0.3090253E-05 ( -63.99%)
   displ. norm   :     0.0862101 α      lambda       -0.5419097E-05
   maximum displ.:     0.0678984 α      in ANC's #1, #3, #6, ...

........................................................................
.............................. CYCLE   37 ..............................
........................................................................
   1    -81.0839359 -0.810839E+02  0.581E-04    1.59       0.0  T
   2    -81.0839359 -0.986080E-08  0.265E-04    1.59      55.0  T
   3    -81.0839359 -0.270461E-08  0.120E-04    1.59     121.1  T
   4    -81.0839359 -0.210349E-09  0.403E-05    1.59     362.2  T
     SCC iter.                  ...        0 min,  0.019 sec
     gradient                   ...        0 min,  0.098 sec
 * total energy  :   -80.2286275 Eh     change       -0.7734175E-05 Eh
   gradient norm :     0.0002866 Eh/α   predicted    -0.2720114E-05 ( -64.83%)
   displ. norm   :     0.0837640 α      lambda       -0.5194358E-05
   maximum displ.:     0.0661377 α      in ANC's #1, #3, #6, ...

........................................................................
.............................. CYCLE   38 ..............................
........................................................................
   1    -81.0839487 -0.810839E+02  0.632E-04    1.59       0.0  T
   2    -81.0839487 -0.138486E-07  0.282E-04    1.59      51.7  T
   3    -81.0839487 -0.368786E-08  0.115E-04    1.59     126.6  T
   4    -81.0839487 -0.190553E-09  0.471E-05    1.59     309.7  T
     SCC iter.                  ...        0 min,  0.019 sec
     gradient                   ...        0 min,  0.099 sec
 * total energy  :   -80.2286351 Eh     change       -0.7574261E-05 Eh
   gradient norm :     0.0002748 Eh/α   predicted    -0.2606327E-05 ( -65.59%)
   displ. norm   :     0.0925319 α      lambda       -0.5783661E-05
   maximum displ.:     0.0725871 α      in ANC's #1, #3, #6, ...

........................................................................
.............................. CYCLE   39 ..............................
........................................................................
   1    -81.0839119 -0.810839E+02  0.738E-04    1.59       0.0  T
   2    -81.0839119 -0.203871E-07  0.341E-04    1.59      42.8  T
   3    -81.0839119 -0.503279E-08  0.143E-04    1.59     102.0  T
   4    -81.0839119 -0.213959E-09  0.655E-05    1.59     222.6  T
     SCC iter.                  ...        0 min,  0.018 sec
     gradient                   ...        0 min,  0.074 sec
 * total energy  :   -80.2286437 Eh     change       -0.8589041E-05 Eh
   gradient norm :     0.0002681 Eh/α   predicted    -0.2903590E-05 ( -66.19%)
   displ. norm   :     0.1128498 α      lambda       -0.7183889E-05
   maximum displ.:     0.0875744 α      in ANC's #1, #3, #6, ...

........................................................................
.............................. CYCLE   40 ..............................
........................................................................
   1    -81.0838644 -0.810839E+02  0.905E-04    1.59       0.0  T
   2    -81.0838644 -0.309868E-07  0.398E-04    1.59      36.7  T
   3    -81.0838644 -0.613110E-08  0.184E-04    1.59      79.2  T
   4    -81.0838644 -0.333614E-09  0.863E-05    1.59     168.9  T
     SCC iter.                  ...        0 min,  0.013 sec
     gradient                   ...        0 min,  0.059 sec
 * total energy  :   -80.2286544 Eh     change       -0.1070798E-04 Eh
   gradient norm :     0.0002973 Eh/α   predicted    -0.3614278E-05 ( -66.25%)
   displ. norm   :     0.1497423 α      lambda       -0.9646236E-05
   maximum displ.:     0.1150129 α      in ANC's #1, #3, #6, ...

........................................................................
.............................. CYCLE   41 ..............................
........................................................................
   1    -81.0837528 -0.810838E+02  0.119E-03    1.59       0.0  T
   2    -81.0837529 -0.522002E-07  0.496E-04    1.59      29.4  T
   3    -81.0837529 -0.865346E-08  0.246E-04    1.59      59.3  T
   4    -81.0837529 -0.602512E-09  0.114E-04    1.59     128.2  T
   5    -81.0837529 -0.103043E-09  0.220E-05    1.59     662.0  T
     SCC iter.                  ...        0 min,  0.016 sec
     gradient                   ...        0 min,  0.059 sec
 * total energy  :   -80.2286689 Eh     change       -0.1446970E-04 Eh
   gradient norm :     0.0003947 Eh/α   predicted    -0.4872041E-05 ( -66.33%)
   displ. norm   :     0.1504185 α      lambda       -0.9828166E-05
   maximum displ.:     0.1153708 α      in ANC's #1, #3, #6, ...

........................................................................
.............................. CYCLE   42 ..............................
........................................................................
   1    -81.0835117 -0.810835E+02  0.114E-03    1.59       0.0  T
   2    -81.0835118 -0.452033E-07  0.473E-04    1.59      30.9  T
   3    -81.0835118 -0.745726E-08  0.241E-04    1.59      60.5  T
   4    -81.0835118 -0.594213E-09  0.106E-04    1.59     137.3  T
   5    -81.0835118 -0.108670E-09  0.218E-05    1.59     668.6  T
     SCC iter.                  ...        0 min,  0.017 sec
     gradient                   ...        0 min,  0.058 sec
 * total energy  :   -80.2286838 Eh     change       -0.1493100E-04 Eh
   gradient norm :     0.0006191 Eh/α   predicted    -0.4963776E-05 ( -66.76%)
   displ. norm   :     0.1509643 α      lambda       -0.1035119E-04
   maximum displ.:     0.1158440 α      in ANC's #1, #3, #6, ...
 * RMSD in coord.:     0.2829714 α      energy gain  -0.2529370E-03 Eh

generating ANC from model Hessian ...
Using Lindh-Hessian (1995)
 Shifting diagonal of input Hessian by   9.791040764827270E-003
 Lowest  eigenvalues of input Hessian
    0.000000    0.000000    0.000000    0.000000    0.000000    0.000000
    0.010000    0.010046    0.010586    0.010701    0.010975    0.012054
    0.012664    0.013376    0.014317    0.015207    0.016895    0.017958
 Highest eigenvalues
    1.883665    2.017648    2.082972    2.092449    2.220633    2.244282
 

........................................................................
.............................. CYCLE   43 ..............................
........................................................................
   1    -81.0832843 -0.810833E+02  0.111E-03    1.59       0.0  T
   2    -81.0832844 -0.413605E-07  0.452E-04    1.59      32.3  T
   3    -81.0832844 -0.689359E-08  0.233E-04    1.59      62.6  T
   4    -81.0832844 -0.589708E-09  0.100E-04    1.59     145.8  T
   5    -81.0832844 -0.100599E-09  0.210E-05    1.59     695.9  T
     SCC iter.                  ...        0 min,  0.017 sec
     gradient                   ...        0 min,  0.059 sec
 * total energy  :   -80.2286985 Eh     change       -0.1475412E-04 Eh
   gradient norm :     0.0008607 Eh/α   predicted     0.0000000E+00 (-100.00%)
   displ. norm   :     0.0216852 α      lambda       -0.6852006E-06
   maximum displ.:     0.0152142 α      in ANC's #1, #3, #7, ...

........................................................................
.............................. CYCLE   44 ..............................
........................................................................
   1    -81.0840658 -0.810841E+02  0.103E-03    1.59       0.0  T
   2    -81.0840658 -0.253557E-07  0.552E-04    1.59      26.4  T
   3    -81.0840658 -0.360394E-08  0.318E-04    1.59      45.9  T
   4    -81.0840658 -0.392703E-09  0.936E-05    1.59     155.8  T
   5    -81.0840658 -0.250310E-09  0.152E-05    1.59     962.7  T
     SCC iter.                  ...        0 min,  0.017 sec
     gradient                   ...        0 min,  0.058 sec
 * total energy  :   -80.2287035 Eh     change       -0.4936929E-05 Eh
   gradient norm :     0.0003378 Eh/α   predicted    -0.2159018E-05 ( -56.27%)
   displ. norm   :     0.0518727 α      lambda       -0.6145277E-05
   maximum displ.:     0.0346831 α      in ANC's #1, #3, #7, ...

   *** GEOMETRY OPTIMIZATION CONVERGED AFTER 44 ITERATIONS ***

------------------------------------------------------------------------
 total energy gain   :        -0.0135249 Eh       -8.4870 kcal/mol
 total RMSD          :         0.6562028 a0        0.3472 Å
 total power (kW/mol):        -0.8070371 (step)   -4.6656 (real)
------------------------------------------------------------------------

 ANCopt (total)                0 d,  0 h,  0 min,  7.611 sec
 optimizer setup                ...        0 min,  0.012 sec (  0.161%)
 model hessian                  ...        0 min,  0.102 sec (  1.343%)
 ANC generation                 ...        0 min,  0.008 sec (  0.104%)
 coordinate transformation      ...        0 min,  0.003 sec (  0.041%)
 single point calculation       ...        0 min,  7.443 sec ( 97.793%)
 optimization log               ...        0 min,  0.016 sec (  0.210%)
 hessian update                 ...        0 min,  0.002 sec (  0.030%)
 rational function              ...        0 min,  0.019 sec (  0.254%)

================
 final structure:
================
47
 xtb: 6.5.1 (579679a)
C           -3.51502687973243        1.67967969570845       -1.52921503309458
N           -2.38945893417486        0.76720474400556       -1.32104769387427
C           -1.86081553070997        0.24791958732229       -2.45887038528744
O           -2.31820036725878        0.55839752028384       -3.56437666240547
C           -0.72354239468560       -0.78027392325514       -2.34884193677400
C           -1.29919091998519       -2.13165276309282       -2.84170656541377
O            0.30869207379281       -0.37270921208697       -3.25243684043565
C           -0.20307659771728       -0.89191261676488       -0.93305826447741
C            0.95833802496960       -1.64721494572641       -0.69038644843057
O            1.66974327215613       -2.17793212105960       -1.58036573033920
N            1.28099793423803       -1.85083138455752        0.67090684766852
C            2.66752964106426       -2.10108959449511        0.99974683061361
C            3.49749148662633       -0.84355111098333        1.18260954631037
C            3.05117965326139        0.40905188834069        0.76985376535702
C            3.84241311531104        1.53742960681429        0.94077545471756
C            5.08367665261838        1.38751430023756        1.52908597608513
F            5.85827400970454        2.47772149633666        1.69751899194318
C            5.56068867162913        0.16190039673630        1.95659427167915
C            4.75509747587152       -0.95329994264036        1.77717214726556
N           -0.84494377073117       -0.29560959869199        0.10635884307944
C           -1.87021947444615        0.47199480407160       -0.02545549983046
C           -2.52469699527511        0.99706937783039        1.24425947266619
C           -1.64931496465496        0.60477646917636        2.44795872925106
C           -3.92223516193262        0.38721031034597        1.43925832223024
N           -2.65150458843482        2.46144123402577        1.20978078172593
H           -4.43606802689663        1.11139147528888       -1.68055317133582
H           -3.32657129509883        2.28023949210320       -2.42230013714824
H           -3.62923794329980        2.34500203830268       -0.67812434199764
H           -1.69344312906132       -2.01871586138079       -3.85173811217537
H           -0.50843859817078       -2.88021825810496       -2.84795222270864
H           -2.09626112922240       -2.45909017868640       -2.17588280609190
H            1.06814414829686       -0.95936738897910       -3.06629602323644
H            0.82346624725318       -1.19198476677091        1.29236719152548
H            2.71626940889550       -2.69528545394495        1.91941676019773
H            3.10509184907126       -2.70321050919456        0.19205228274691
H            2.07269671199678        0.51519202642583        0.31322762214937
H            3.50527430658483        2.51644408349922        0.62542890988829
H            6.53519052765181        0.08515673503367        2.42005329117394
H            5.11114936239273       -1.92234878453405        2.10853991954237
H           -2.07593654745831        1.01604822719707        3.36162777006396
H           -1.59077130556087       -0.47933068347630        2.54002793220395
H           -0.64046712380625        0.99631361514857        2.32205881948712
H           -3.85542089259152       -0.70055404800959        1.42553641222616
H           -4.33145884468228        0.69829626441416        2.40020547763290
H           -4.60813686878608        0.70594950623779        0.65660465100092
H           -1.73158463431882        2.87734014728686        1.27860372150948
H           -3.17538565468505        2.75949910426496        2.01982413311568
 
 Bond Distances (Angstroems)
 ---------------------------
C1-N2=1.4638         C1-H26=1.0928        C1-H27=1.0926        C1-H28=1.0863        N2-C1=1.4638         N2-C3=1.3579         
N2-C21=1.4266        C3-N2=1.3579         C3-O4=1.2360         C3-C5=1.5371         O4-C3=1.2360         C5-C3=1.5371         
C5-C6=1.5494         C5-O7=1.4311         C5-C8=1.5125         C6-C5=1.5494         C6-H29=1.0901        C6-H30=1.0889        
C6-H31=1.0890        O7-C5=1.4311         O7-H32=0.9775        C8-C5=1.5125         C8-C9=1.4065         C8-N20=1.3594        
C9-C8=1.4065         C9-O10=1.2569        C9-N11=1.4137        O10-C9=1.2569        N11-C9=1.4137        N11-C12=1.4468       
N11-H33=1.0147       C12-N11=1.4468       C12-C13=1.5178       C12-H34=1.0960       C12-H35=1.0984       C13-C12=1.5178       
C13-C14=1.3923       C13-C19=1.3954       C14-C13=1.3923       C14-C15=1.3887       C14-H36=1.0850       C15-C14=1.3887       
C15-C16=1.3818       C15-H37=1.0824       C16-C15=1.3818       C16-F17=1.3479       C16-C18=1.3829       F17-C16=1.3479       
C18-C16=1.3829       C18-C19=1.3874       C18-H38=1.0818       C19-C13=1.3954       C19-C18=1.3874       C19-H39=1.0843       
N20-C8=1.3594        N20-C21=1.2875       C21-N2=1.4266        C21-N20=1.2875       C21-C22=1.5219       C22-C21=1.5219       
C22-C23=1.5392       C22-C24=1.5372       C22-N25=1.4703       C23-C22=1.5392       C23-H40=1.0890       C23-H41=1.0896       
C23-H42=1.0895       C24-C22=1.5372       C24-H43=1.0899       C24-H44=1.0898       C24-H45=1.0884       N25-C22=1.4703       
N25-H46=1.0119       N25-H47=1.0097       H26-C1=1.0928        H27-C1=1.0926        H28-C1=1.0863        H29-C6=1.0901        
H30-C6=1.0889        H31-C6=1.0890        H32-O7=0.9775        H33-N11=1.0147       H34-C12=1.0960       H35-C12=1.0984       
H36-C14=1.0850       H37-C15=1.0824       H38-C18=1.0818       H39-C19=1.0843       H40-C23=1.0890       H41-C23=1.0896       
H42-C23=1.0895       H43-C24=1.0899       H44-C24=1.0898       H45-C24=1.0884       H46-N25=1.0119       H47-N25=1.0097       
 C  H  Rav=1.0891 sigma=0.0041  Rmin=1.0818  Rmax=1.0984    18
 C  C  Rav=1.4607 sigma=0.0708  Rmin=1.3818  Rmax=1.5494    14
 N  H  Rav=1.0121 sigma=0.0021  Rmin=1.0097  Rmax=1.0147     3
 N  C  Rav=1.4033 sigma=0.0593  Rmin=1.2875  Rmax=1.4703     8
 O  H  Rav=0.9775 sigma=0.0000  Rmin=0.9775  Rmax=0.9775     1
 O  C  Rav=1.3080 sigma=0.0875  Rmin=1.2360  Rmax=1.4311     3
 F  C  Rav=1.3479 sigma=0.0000  Rmin=1.3479  Rmax=1.3479     1
 
 selected bond angles (degree)
 --------------------
H26-C1-N2=110.10               H27-C1-N2=109.04               H27-C1-H26=108.54              H28-C1-N2=110.56               
H28-C1-H26=109.78              H28-C1-H27=108.78              C3-N2-C1=114.74                C21-N2-C1=122.55               
C21-N2-C3=122.69               O4-C3-N2=120.62                C5-C3-N2=118.94                C5-C3-O4=120.39                
C6-C5-C3=106.61                O7-C5-C3=107.34                O7-C5-C6=108.39                C8-C5-C3=111.78                
C8-C5-C6=111.18                C8-C5-O7=111.34                H29-C6-C5=109.80               H30-C6-C5=109.37               
H30-C6-H29=109.18              H31-C6-C5=109.86               H31-C6-H29=109.45              H31-C6-H30=109.17              
H32-O7-C5=105.62               C9-C8-C5=119.03                N20-C8-C5=121.39               N20-C8-C9=119.57               
O10-C9-C8=124.89               N11-C9-C8=115.59               N11-C9-O10=119.46              
 
 selected dihedral angles (degree)
 ---------------------------------
C3-N2-C1-H26= 81.19           C3-N2-C1-H27=322.21           C3-N2-C1-H28=202.66           C21-N2-C1-H26=259.81          
C21-N2-C1-H27=140.83          C21-N2-C1-H28= 21.28          O4-C3-N2-C1=  0.61            O4-C3-N2-C21=181.99           
C5-C3-N2-C1=183.25            C5-C3-N2-C21=  4.63           C6-C5-C3-N2=112.22            C6-C5-C3-O4=294.86            
O7-C5-C3-N2=228.20            O7-C5-C3-O4= 50.83            C8-C5-C3-N2=350.55            C8-C5-C3-O4=173.18            
H29-C6-C5-C3= 56.32           H29-C6-C5-O7=301.05           H29-C6-C5-C8=178.37           H30-C6-C5-C3=176.10           
H30-C6-C5-O7= 60.83           H30-C6-C5-C8=298.15           H31-C6-C5-C3=295.90           H31-C6-C5-O7=180.64           
H31-C6-C5-C8= 57.95           H32-O7-C5-C3=171.69           H32-O7-C5-C6=286.48           H32-O7-C5-C8= 49.06           
C9-C8-C5-C3=188.76            C9-C8-C5-C6= 69.76            C9-C8-C5-O7=308.80            N20-C8-C5-C3=  9.76           
N20-C8-C5-C6=250.76           N20-C8-C5-O7=129.79           O10-C9-C8-C5=  5.09           O10-C9-C8-N20=184.11          
N11-C9-C8-C5=188.03           N11-C9-C8-N20=  7.05          
           -------------------------------------------------
          |                Final Singlepoint                |
           -------------------------------------------------

          ...................................................
          :                      SETUP                      :
          :.................................................:
          :  # basis functions                 144          :
          :  # atomic orbitals                 144          :
          :  # shells                           94          :
          :  # electrons                       136          :
          :  # halogen bonds                     0          :
          :  max. iterations                   250          :
          :  Hamiltonian                  GFN1-xTB          :
          :  restarted?                      false          :
          :  GBSA solvation                   true          :
          :  PC potential                    false          :
          :  electronic temp.          300.0000000     K    :
          :  accuracy                    1.0000000          :
          :  -> integral cutoff          0.2500000E+02      :
          :  -> integral neglect         0.1000000E-07      :
          :  -> SCF convergence          0.1000000E-05 Eh   :
          :  -> wf. convergence          0.2000000E-04 e    :
          :  Broyden damping             0.4000000          :
          ...................................................

 iter      E             dE          RMSdq      gap      omega  full diag
   1    -81.0840658 -0.810841E+02  0.429E-06    1.59       0.0  T
   2    -81.0840658 -0.525802E-12  0.191E-06    1.59    7652.5  T
   3    -81.0840658  0.284217E-13  0.952E-07    1.59   15322.0  T

   *** convergence criteria satisfied after 3 iterations ***

         #    Occupation            Energy/Eh            Energy/eV
      -------------------------------------------------------------
         1        2.0000           -0.8526306             -23.2013
       ...           ...                  ...                  ...
        62        2.0000           -0.4139887             -11.2652
        63        2.0000           -0.4091472             -11.1335
        64        2.0000           -0.3992267             -10.8635
        65        2.0000           -0.3922615             -10.6740
        66        2.0000           -0.3851849             -10.4814
        67        2.0000           -0.3713854             -10.1059
        68        2.0000           -0.3186372              -8.6706 (HOMO)
        69                         -0.2602665              -7.0822 (LUMO)
        70                         -0.2499352              -6.8011
        71                         -0.2368362              -6.4446
        72                         -0.1935300              -5.2662
        73                         -0.1377926              -3.7495
       ...                                ...                  ...
       144                          0.6700202              18.2322
      -------------------------------------------------------------
                  HL-Gap            0.0583707 Eh            1.5883 eV
             Fermi-level           -0.2894519 Eh           -7.8764 eV

 SCC (total)                   0 d,  0 h,  0 min,  0.098 sec
 SCC setup                      ...        0 min,  0.002 sec (  1.717%)
 Dispersion                     ...        0 min,  0.000 sec (  0.328%)
 classical contributions        ...        0 min,  0.000 sec (  0.123%)
 integral evaluation            ...        0 min,  0.026 sec ( 26.729%)
 iterations                     ...        0 min,  0.011 sec ( 10.887%)
 molecular gradient             ...        0 min,  0.058 sec ( 59.407%)
 printout                       ...        0 min,  0.001 sec (  0.743%)

         :::::::::::::::::::::::::::::::::::::::::::::::::::::
         ::                     SUMMARY                     ::
         :::::::::::::::::::::::::::::::::::::::::::::::::::::
         :: total energy             -80.228703474524 Eh    ::
         :: total w/o Gsasa/hb       -80.205336742053 Eh    ::
         :: gradient norm              0.000338730063 Eh/a0 ::
         :: HOMO-LUMO gap              1.588346237811 eV    ::
         ::.................................................::
         :: SCC energy               -81.084065836269 Eh    ::
         :: -> electrostatic           0.349875565004 Eh    ::
         :: -> Gsolv                  -0.105245909480 Eh    ::
         ::    -> Gelec               -0.081879177008 Eh    ::
         ::    -> Gsasa               -0.023997566022 Eh    ::
         ::    -> Ghb                 -0.006993445454 Eh    ::
         ::    -> Gshift               0.007624279005 Eh    ::
         :: repulsion energy           0.886907745579 Eh    ::
         :: dispersion energy         -0.031545383834 Eh    ::
         :: halogen bond corr.         0.000000000000 Eh    ::
         :: add. restraining           0.000000000000 Eh    ::
         :: total charge              -1.000000000000 e     ::
         :::::::::::::::::::::::::::::::::::::::::::::::::::::

           -------------------------------------------------
          |                Property Printout                |
           -------------------------------------------------

    * Orbital Energies and Occupations

         #    Occupation            Energy/Eh            Energy/eV
      -------------------------------------------------------------
         1        2.0000           -0.8526306             -23.2013
       ...           ...                  ...                  ...
        56        2.0000           -0.4602602             -12.5243
        57        2.0000           -0.4591527             -12.4942
        58        2.0000           -0.4553693             -12.3912
        59        2.0000           -0.4381486             -11.9226
        60        2.0000           -0.4338251             -11.8050
        61        2.0000           -0.4200781             -11.4309
        62        2.0000           -0.4139887             -11.2652
        63        2.0000           -0.4091472             -11.1335
        64        2.0000           -0.3992267             -10.8635
        65        2.0000           -0.3922615             -10.6740
        66        2.0000           -0.3851849             -10.4814
        67        2.0000           -0.3713854             -10.1059
        68        2.0000           -0.3186372              -8.6706 (HOMO)
        69                         -0.2602665              -7.0822 (LUMO)
        70                         -0.2499352              -6.8011
        71                         -0.2368362              -6.4446
        72                         -0.1935300              -5.2662
        73                         -0.1377926              -3.7495
        74                         -0.1301341              -3.5411
        75                         -0.1176725              -3.2020
        76                         -0.1080998              -2.9415
        77                         -0.1047674              -2.8509
        78                         -0.1013313              -2.7574
        79                         -0.0913342              -2.4853
       ...                                ...                  ...
       144                          0.6700202              18.2322
      -------------------------------------------------------------
                  HL-Gap            0.0583707 Eh            1.5883 eV
             Fermi-level           -0.2894519 Eh           -7.8764 eV

  Mulliken/CM5 charges         n(s)   n(p)   n(d)
     1C     0.05537 -0.03138   0.984  2.961  0.000
     2N    -0.25127 -0.49412   1.451  3.801  0.000
     3C     0.43420  0.53948   1.006  2.559  0.000
     4O    -0.63071 -0.67584   1.740  4.891  0.000
     5C     0.22247  0.23891   1.045  2.732  0.000
     6C    -0.10286 -0.24410   1.018  3.084  0.000
     7O    -0.61137 -0.80382   1.716  4.895  0.000
     8C    -0.06856  0.00909   1.021  3.047  0.000
     9C     0.40979  0.50139   0.994  2.596  0.000
    10O    -0.69060 -0.74593   1.746  4.945  0.000
    11N    -0.40095 -0.74931   1.449  3.952  0.000
    12C     0.09979  0.05837   1.000  2.900  0.000
    13C    -0.00500 -0.01568   1.093  2.912  0.000
    14C    -0.02101 -0.07226   1.059  2.962  0.000
    15C    -0.06956 -0.12048   1.058  3.012  0.000
    16C     0.23692  0.24788   1.045  2.718  0.000
    17F    -0.28505 -0.30892   1.833  5.452  0.000
    18C    -0.07027 -0.12132   1.057  3.013  0.000
    19C    -0.03913 -0.09246   1.061  2.978  0.000
    20N    -0.38907 -0.58789   1.529  3.860  0.000
    21C     0.18062  0.32481   0.998  2.821  0.000
    22C     0.14668  0.17942   1.066  2.788  0.000
    23C    -0.09844 -0.23821   1.018  3.080  0.000
    24C    -0.10357 -0.24508   1.017  3.086  0.000
    25N    -0.51554 -0.97628   1.475  4.041  0.000
    26H     0.02822  0.09097   0.972  0.000  0.000
    27H     0.04227  0.11045   0.958  0.000  0.000
    28H     0.03389  0.10911   0.966  0.000  0.000
    29H     0.02714  0.08453   0.973  0.000  0.000
    30H     0.03363  0.09189   0.966  0.000  0.000
    31H     0.01110  0.06626   0.989  0.000  0.000
    32H     0.34882  0.53196   0.651  0.000  0.000
    33H     0.19946  0.40299   0.801  0.000  0.000
    34H     0.02024  0.08541   0.980  0.000  0.000
    35H     0.04645  0.11788   0.954  0.000  0.000
    36H     0.04360  0.10796   0.956  0.000  0.000
    37H     0.05037  0.10750   0.950  0.000  0.000
    38H     0.05133  0.10847   0.949  0.000  0.000
    39H     0.03850  0.09542   0.961  0.000  0.000
    40H     0.02580  0.08138   0.974  0.000  0.000
    41H     0.02730  0.08499   0.973  0.000  0.000
    42H     0.02722  0.08628   0.973  0.000  0.000
    43H     0.02758  0.08200   0.972  0.000  0.000
    44H     0.03289  0.08797   0.967  0.000  0.000
    45H     0.02998  0.08748   0.970  0.000  0.000
    46H     0.21018  0.40070   0.790  0.000  0.000
    47H     0.21112  0.40213   0.789  0.000  0.000

Wiberg/Mayer (AO) data.
largest (>0.10) Wiberg bond orders for each atom

 ---------------------------------------------------------------------------
     #   Z sym  total        # sym  WBO       # sym  WBO       # sym  WBO
 ---------------------------------------------------------------------------
     1   6 C    3.949 --    26 H    0.982    27 H    0.980    28 H    0.972
                             2 N    0.946
     2   7 N    3.435 --     3 C    1.247    21 C    0.984     1 C    0.946
                             4 O    0.147
     3   6 C    3.891 --     4 O    1.550     2 N    1.247     5 C    0.939
     4   8 O    1.849 --     3 C    1.550     2 N    0.147
     5   6 C    3.914 --     8 C    0.973     6 C    0.964     3 C    0.939
                             7 O    0.936
     6   6 C    3.995 --    31 H    0.988    29 H    0.986    30 H    0.984
                             5 C    0.964
     7   8 O    1.877 --     5 C    0.936    32 H    0.843
     8   6 C    3.865 --     9 C    1.299    20 N    1.215     5 C    0.973
                            21 C    0.114    10 O    0.101
     9   6 C    3.911 --    10 O    1.420     8 C    1.299    11 N    1.050
    10   8 O    1.792 --     9 C    1.420     8 C    0.101
    11   7 N    3.160 --     9 C    1.050    12 C    0.981    33 H    0.924
    12   6 C    3.971 --    13 C    0.994    11 N    0.981    34 H    0.972
                            35 H    0.957
    13   6 C    3.986 --    14 C    1.419    19 C    1.409    12 C    0.994
    14   6 C    3.994 --    15 C    1.438    13 C    1.419    36 H    0.968
                            18 C    0.109
    15   6 C    3.992 --    14 C    1.438    16 C    1.406    37 H    0.971
                            19 C    0.111
    16   6 C    3.857 --    15 C    1.406    18 C    1.398    17 F    0.914
    17   9 F    1.039 --    16 C    0.914
    18   6 C    3.992 --    19 C    1.448    16 C    1.398    38 H    0.970
                            14 C    0.109
    19   6 C    3.994 --    18 C    1.448    13 C    1.409    39 H    0.973
                            15 C    0.111
    20   7 N    3.081 --    21 C    1.595     8 C    1.215
    21   6 C    3.897 --    20 N    1.595     2 N    0.984    22 C    0.982
                             8 C    0.114
    22   6 C    3.964 --    23 C    0.992    24 C    0.989    21 C    0.982
                            25 N    0.970
    23   6 C    3.996 --    22 C    0.992    40 H    0.986    42 H    0.984
                            41 H    0.984
    24   6 C    3.992 --    22 C    0.989    43 H    0.986    44 H    0.985
                            45 H    0.982
    25   7 N    2.992 --    22 C    0.970    47 H    0.948    46 H    0.946
    26   1 H    1.010 --     1 C    0.982
    27   1 H    1.017 --     1 C    0.980
    28   1 H    1.034 --     1 C    0.972
    29   1 H    1.014 --     6 C    0.986
    30   1 H    1.017 --     6 C    0.984
    31   1 H    1.012 --     6 C    0.988
    32   1 H    0.908 --     7 O    0.843
    33   1 H    0.986 --    11 N    0.924
    34   1 H    1.014 --    12 C    0.972
    35   1 H    1.024 --    12 C    0.957
    36   1 H    1.008 --    14 C    0.968
    37   1 H    1.000 --    15 C    0.971
    38   1 H    0.999 --    18 C    0.970
    39   1 H    1.001 --    19 C    0.973
    40   1 H    1.006 --    23 C    0.986
    41   1 H    1.017 --    23 C    0.984
    42   1 H    1.017 --    23 C    0.984
    43   1 H    1.008 --    24 C    0.986
    44   1 H    1.002 --    24 C    0.985
    45   1 H    1.007 --    24 C    0.982
    46   1 H    0.965 --    25 N    0.946
    47   1 H    0.962 --    25 N    0.948
 ---------------------------------------------------------------------------

Topologies differ in total number of bonds
Writing topology from bond orders to xtbtopo.mol

 dipole moment from electron density (au)
     X       Y       Z   
  -0.7558   1.1015   5.8307  total (Debye):   15.204

           -------------------------------------------------
          |                Geometry Summary                 |
           -------------------------------------------------

      molecular mass/u    :      349.3806376
   center of mass at/Å    :        0.4888815       0.0362442      -0.1230729
  moments of inertia/u·Å² :        0.1580473E+04   0.3966999E+04   0.4565929E+04
rotational constants/cm⁻¹ :        0.1066619E-01   0.4249467E-02   0.3692048E-02

 * 41 selected distances

     #   Z          #   Z                                           value/Å
     1   6 C        2   7 N                                       1.4638469
     2   7 N        3   6 C                                       1.3578519
     3   6 C        4   8 O                                       1.2360185
     5   6 C        7   8 O                                       1.4311188
     8   6 C        9   6 C                                       1.4065047
     9   6 C       11   7 N                                       1.4137499
    11   7 N       12   6 C                                       1.4468018
    13   6 C       14   6 C                                       1.3923276
    14   6 C       15   6 C                                       1.3887049
    15   6 C       16   6 C                                       1.3817812
    16   6 C       18   6 C                                       1.3829077
    13   6 C       19   6 C                                       1.3953934
    18   6 C       19   6 C                                       1.3873866
     8   6 C       20   7 N                                       1.3593966
     2   7 N       21   6 C                                       1.4266457
    20   7 N       21   6 C                                       1.2875489
    22   6 C       23   6 C                                       1.5391815 (max)
    22   6 C       24   6 C                                       1.5372267
    22   6 C       25   7 N                                       1.4702565
     1   6 C       26   1 H                                       1.0927817
     1   6 C       27   1 H                                       1.0926064
     1   6 C       28   1 H                                       1.0863027
     6   6 C       29   1 H                                       1.0901163
     6   6 C       30   1 H                                       1.0888888
     6   6 C       31   1 H                                       1.0889709
     7   8 O       32   1 H                                       0.9775397 (min)
    11   7 N       33   1 H                                       1.0147055
    12   6 C       34   1 H                                       1.0960097
    12   6 C       35   1 H                                       1.0983538
    14   6 C       36   1 H                                       1.0849895
    15   6 C       37   1 H                                       1.0823935
    18   6 C       38   1 H                                       1.0818216
    19   6 C       39   1 H                                       1.0842663
    23   6 C       40   1 H                                       1.0890095
    23   6 C       41   1 H                                       1.0895837
    23   6 C       42   1 H                                       1.0894615
    24   6 C       43   1 H                                       1.0899009
    24   6 C       44   1 H                                       1.0897973
    24   6 C       45   1 H                                       1.0883946
    25   7 N       46   1 H                                       1.0119098
    25   7 N       47   1 H                                       1.0096833

 * 6 distinct bonds (by element types)

   Z      Z             #   av. dist./Å        max./Å        min./Å
   1 H    6 C          18     1.0890916     1.0983538     1.0818216
   6 C    6 C           9     1.4234905     1.5391815     1.3817812
   1 H    7 N           3     1.0120995     1.0147055     1.0096833
   6 C    7 N           8     1.4032623     1.4702565     1.2875489
   1 H    8 O           1     0.9775397     0.9775397     0.9775397
   6 C    8 O           2     1.3335687     1.4311188     1.2360185


optimized geometry written to: xtbopt.xyz


           -------------------------------------------------
          | TOTAL ENERGY              -80.228703474524 Eh   |
          | GRADIENT NORM               0.000338730063 Eh/α |
          | HOMO-LUMO GAP               1.588346237811 eV   |
           -------------------------------------------------

------------------------------------------------------------------------
 * finished run on 2023/06/20 at 15:10:43.132     
------------------------------------------------------------------------
 total:
 * wall-time:     0 d,  0 h,  0 min,  8.025 sec
 *  cpu-time:     0 d,  0 h,  0 min,  7.584 sec
 * ratio c/w:     0.945 speedup
 SCF:
 * wall-time:     0 d,  0 h,  0 min,  0.208 sec
 *  cpu-time:     0 d,  0 h,  0 min,  0.208 sec
 * ratio c/w:     0.997 speedup
 ANC optimizer:
 * wall-time:     0 d,  0 h,  0 min,  7.721 sec
 *  cpu-time:     0 d,  0 h,  0 min,  7.334 sec
 * ratio c/w:     0.950 speedup

