42
 energy: -82.956088657460 gnorm: 0.000272374315 xtb: 6.5.1 (579679a)
C           -5.80844124496247       -0.11903782231647       -0.92291627022406
O           -4.73555856741183        0.57495830243831       -0.25720146384914
C           -3.55327995993545        0.01951830096435       -0.28136326813204
O           -3.25095482135852       -1.00622484423942       -0.81165466142679
C           -2.50446213615656        0.91913264046821        0.51418539649584
C           -3.21402150945331        1.65404211867440        1.65591709836633
N           -1.53029135739726        0.00856823702155        1.01120188638848
C           -0.41746420237689       -0.15095424219357        0.36711327371016
C            0.50531044925748       -1.25024069844145        0.86933671178171
C            0.08841207099741       -2.54895891643579        0.15865674106614
C            0.40426230601345       -1.39235759188925        2.39044293691172
N            1.86756916881290       -0.88572555691563        0.48529611003030
C            2.94550028346343       -1.64401255016005        0.73514668363741
O            2.94194697911524       -2.71738187887339        1.32109253325603
C            4.20614367246432       -1.03548181522247        0.22935879541091
N            5.40131538456340       -1.53705255028157        0.27420146176612
N            6.23526396977638       -0.61979903869114       -0.29543454920545
C            5.49717126982796        0.38463537489514       -0.65135151489268
C            5.92657202941807        1.63891080527311       -1.30757756176883
O            4.20351982365402        0.18493952214477       -0.34981340747383
N            0.02101117715851        0.50678998762510       -0.73459392826355
C           -0.71365957889284        1.49479304485311       -1.24539769485487
O           -0.44812364128449        2.23047622371231       -2.19954069684523
C           -2.01020311438894        1.77275889091298       -0.56158750528278
O           -2.68226032318453        2.75816650912309       -1.03518503563266
H           -5.51347636782082       -0.35625949038011       -1.94605499878069
H           -6.04060850226216       -1.03638892885992       -0.38015077001448
H           -6.65788207048248        0.55918320702895       -0.91110002576540
H           -2.46845534703485        2.19023762465468        2.23913842992736
H           -3.93654246810028        2.35981081800469        1.25415775288469
H           -3.71769932041969        0.93328405143106        2.29521168686899
H           -0.96281603373521       -2.74660853369964        0.36328638331630
H            0.68789010860787       -3.38448393986639        0.51629087837954
H            0.22643931636439       -2.44091674408481       -0.91642660254775
H           -0.63165070605978       -1.58415165888284        2.66478715186201
H            0.73082497381094       -0.47100698606799        2.87020867710038
H            1.02437771056219       -2.21696777636277        2.73750617738996
H            1.96269311462647       -0.04179199642068       -0.06532140529212
H            7.00723966931357        1.63888464550410       -1.42674181869645
H            5.62394058028820        2.49520556928267       -0.70563307266331
H            5.45183053908179        1.73023652129870       -2.28439694451289
H           -2.16138032446325        3.13127016497224       -1.79996057043224
