      -----------------------------------------------------------      
     |                   =====================                   |     
     |                           x T B                           |     
     |                   =====================                   |     
     |                         S. Grimme                         |     
     |          Mulliken Center for Theoretical Chemistry        |     
     |                    University of Bonn                     |     
      -----------------------------------------------------------      

   * xtb version 6.5.1 (579679a) compiled by 'ehlert@majestix' on 2022-07-11

   xtb is free software: you can redistribute it and/or modify it under
   the terms of the GNU Lesser General Public License as published by
   the Free Software Foundation, either version 3 of the License, or
   (at your option) any later version.
   
   xtb is distributed in the hope that it will be useful,
   but WITHOUT ANY WARRANTY; without even the implied warranty of
   MERCHANTABILITY or FITNESS FOR A PARTICULAR PURPOSE.  See the
   GNU Lesser General Public License for more details.
   
   Cite this work as:
   * C. Bannwarth, E. Caldeweyher, S. Ehlert, A. Hansen, P. Pracht,
     J. Seibert, S. Spicher, S. Grimme, WIREs Comput. Mol. Sci., 2020, 11,
     e01493. DOI: 10.1002/wcms.1493
   
   for GFN2-xTB:
   * C. Bannwarth, S. Ehlert and S. Grimme., J. Chem. Theory Comput., 2019,
     15, 1652-1671. DOI: 10.1021/acs.jctc.8b01176
   for GFN1-xTB:
   * S. Grimme, C. Bannwarth, P. Shushkov, J. Chem. Theory Comput., 2017,
     13, 1989-2009. DOI: 10.1021/acs.jctc.7b00118
   for GFN0-xTB:
   * P. Pracht, E. Caldeweyher, S. Ehlert, S. Grimme, ChemRxiv, 2019, preprint.
     DOI: 10.26434/chemrxiv.8326202.v1
   for GFN-FF:
   * S. Spicher and S. Grimme, Angew. Chem. Int. Ed., 2020, 59, 15665-15673.
     DOI: 10.1002/anie.202004239
   
   for ALPB and GBSA implicit solvation:
   * S. Ehlert, M. Stahn, S. Spicher, S. Grimme, J. Chem. Theory Comput.,
     2021, 17, 4250-4261. DOI: 10.1021/acs.jctc.1c00471
   
   for DFT-D4:
   * E. Caldeweyher, C. Bannwarth and S. Grimme, J. Chem. Phys., 2017,
     147, 034112. DOI: 10.1063/1.4993215
   * E. Caldeweyher, S. Ehlert, A. Hansen, H. Neugebauer, S. Spicher,
     C. Bannwarth and S. Grimme, J. Chem. Phys., 2019, 150, 154122.
     DOI: 10.1063/1.5090222
   * E. Caldeweyher, J.-M. Mewes, S. Ehlert and S. Grimme, Phys. Chem. Chem. Phys.
     2020, 22, 8499-8512. DOI: 10.1039/D0CP00502A
   
   for sTDA-xTB:
   * S. Grimme and C. Bannwarth, J. Chem. Phys., 2016, 145, 054103.
     DOI: 10.1063/1.4959605
   
   in the mass-spec context:
   * V. Asgeirsson, C. Bauer and S. Grimme, Chem. Sci., 2017, 8, 4879.
     DOI: 10.1039/c7sc00601b
   * J. Koopman and S. Grimme, ACS Omega 2019, 4, 12, 15120-15133.
     DOI: 10.1021/acsomega.9b02011
   
   for metadynamics refer to:
   * S. Grimme, J. Chem. Theory Comput., 2019, 155, 2847-2862
     DOI: 10.1021/acs.jctc.9b00143
   
   for SPH calculations refer to:
   * S. Spicher and S. Grimme, J. Chem. Theory Comput., 2021, 17, 1701-1714
     DOI: 10.1021/acs.jctc.0c01306
   
   with help from (in alphabetical order)
   P. Atkinson, C. Bannwarth, F. Bohle, G. Brandenburg, E. Caldeweyher
   M. Checinski, S. Dohm, S. Ehlert, S. Ehrlich, I. Gerasimov, C. Hölzer
   A. Katbashev, J. Koopman, C. Lavigne, S. Lehtola, F. März, M. Müller,
   F. Musil, H. Neugebauer, J. Pisarek, C. Plett, P. Pracht, F. Pultar,
   J. Seibert, P. Shushkov, S. Spicher, M. Stahn, M. Steiner, T. Strunk,
   J. Stückrath, T. Rose, and J. Unsleber
   
 * started run on 2023/06/20 at 18:26:56.409     

           -------------------------------------------------
          |                Calculation Setup                |
           -------------------------------------------------

          program call               : /lustre/hpc/kemi/ree/PhD/git/ReactivityQM/dep/xtb-6.5.1/bin/xtb --gfn 1 /lustre/hpc/kemi/ree/PhD/git/ReactivityQM/calculations/R02deprot/reac01prodN16/conf06/R02deprot_reac01prodN16_conf06_gfn1.xyz --opt --vfukui --chrg 0 --uhf 0 --alpb DMSO
          hostname                   : node308
          coordinate file            : /lustre/hpc/kemi/ree/PhD/git/ReactivityQM/calculations/R02deprot/reac01prodN16/conf06/R02deprot_reac01prodN16_conf06_gfn1.xyz
          omp threads                :                     1

   ID    Z sym.   atoms
    1    6 C      1, 3, 5, 7-10, 12, 14, 17, 18, 21, 23, 24
    2    8 O      2, 4, 13, 19, 22, 25
    3    7 N      6, 11, 15, 16, 20
    4    1 H      26-42

           -------------------------------------------------
          |                 G F N 1 - x T B                 |
           -------------------------------------------------

        Reference                      10.1021/acs.jctc.7b00118
      * Hamiltonian:
        H0-scaling (s, p, d)           1.850000    2.250000    2.000000
        zeta-weighting                 0.000000
      * Dispersion:
        s8                             2.400000
        a1                             0.630000
        a2                             5.000000
        s9                             0.000000
      * Repulsion:
        kExp                           1.500000
        rExp                           1.000000
      * Coulomb:
        alpha                          2.000000
        third order                    atomic
        anisotropic                    false
      * Halogen bond correction:
        rad-scale                      1.300000
        damping                        0.440000

      * Solvation model:               ALPB
        Solvent                        DMSO
        Parameter file                 internal GFN1-xTB/ALPB
        Dielectric constant                4.6680E+01
        Reference state                gsolv [1 M gas/solution]
        Free energy shift                  7.6243E-03 Eh       4.7843E+00 kcal/mol
        Temperature                        2.9815E+02 K
        Density                            1.1000E+00 kg/L
        Solvent mass                       7.8130E+01 g/mol
        Interaction kernel             P16
        Born radius scaling (c1)           1.7672E+00
        Born radii integrator          GBOBC
        Born offset                        0.0000E+00 a0       0.0000E+00 AA
        H-bond correction              true
        Ion screening                  false
        Surface tension                    1.0000E-05 Eh       1.5569E+01 dyn/cm
        Grid points                               230 per atom

          ...................................................
          :                      SETUP                      :
          :.................................................:
          :  # basis functions                 134          :
          :  # atomic orbitals                 134          :
          :  # shells                           84          :
          :  # electrons                       134          :
          :  # halogen bonds                     0          :
          :  max. iterations                   250          :
          :  Hamiltonian                  GFN1-xTB          :
          :  restarted?                      false          :
          :  GBSA solvation                   true          :
          :  PC potential                    false          :
          :  electronic temp.          300.0000000     K    :
          :  accuracy                    1.0000000          :
          :  -> integral cutoff          0.2500000E+02      :
          :  -> integral neglect         0.1000000E-07      :
          :  -> SCF convergence          0.1000000E-05 Eh   :
          :  -> wf. convergence          0.2000000E-04 e    :
          :  Broyden damping             0.4000000          :
          ...................................................

 iter      E             dE          RMSdq      gap      omega  full diag
   1    -83.3994452 -0.833994E+02  0.836E+00    1.73       0.0  T
   2    -83.6874643 -0.288019E+00  0.503E+00    1.35       1.0  T
   3    -83.6758547  0.116096E-01  0.168E+00    1.53       1.0  T
   4    -83.7046407 -0.287860E-01  0.147E-01    1.35       1.0  T
   5    -83.7052400 -0.599311E-03  0.497E-02    1.41       1.0  T
   6    -83.7052917 -0.516593E-04  0.149E-02    1.40       1.0  T
   7    -83.7052957 -0.399730E-05  0.389E-03    1.40       4.0  T
   8    -83.7052959 -0.252884E-06  0.638E-04    1.40      24.2  T
   9    -83.7052959 -0.834908E-08  0.281E-04    1.40      54.9  T
  10    -83.7052959 -0.106455E-08  0.103E-04    1.40     150.3  T
  11    -83.7052959 -0.966480E-10  0.216E-05    1.40     715.8  T

   *** convergence criteria satisfied after 11 iterations ***

         #    Occupation            Energy/Eh            Energy/eV
      -------------------------------------------------------------
         1        2.0000           -0.8642785             -23.5182
       ...           ...                  ...                  ...
        61        2.0000           -0.4884592             -13.2917
        62        2.0000           -0.4676778             -12.7262
        63        2.0000           -0.4639352             -12.6243
        64        2.0000           -0.4575390             -12.4503
        65        2.0000           -0.4468949             -12.1606
        66        2.0000           -0.4448325             -12.1045
        67        2.0000           -0.4409968             -12.0001 (HOMO)
        68                         -0.3894340             -10.5970 (LUMO)
        69                         -0.3191964              -8.6858
        70                         -0.3180826              -8.6555
        71                         -0.2614326              -7.1139
        72                         -0.2558381              -6.9617
       ...                                ...                  ...
       134                          0.7072204              19.2444
      -------------------------------------------------------------
                  HL-Gap            0.0515629 Eh            1.4031 eV
             Fermi-level           -0.4152072 Eh          -11.2984 eV

 SCC (total)                   0 d,  0 h,  0 min,  0.160 sec
 SCC setup                      ...        0 min,  0.002 sec (  1.323%)
 Dispersion                     ...        0 min,  0.000 sec (  0.258%)
 classical contributions        ...        0 min,  0.000 sec (  0.081%)
 integral evaluation            ...        0 min,  0.035 sec ( 21.703%)
 iterations                     ...        0 min,  0.041 sec ( 25.728%)
 molecular gradient             ...        0 min,  0.080 sec ( 50.242%)
 printout                       ...        0 min,  0.001 sec (  0.630%)

         :::::::::::::::::::::::::::::::::::::::::::::::::::::
         ::                     SUMMARY                     ::
         :::::::::::::::::::::::::::::::::::::::::::::::::::::
         :: total energy             -82.945590864467 Eh    ::
         :: total w/o Gsasa/hb       -82.922274039070 Eh    ::
         :: gradient norm              0.116574586909 Eh/a0 ::
         :: HOMO-LUMO gap              1.403096877357 eV    ::
         ::.................................................::
         :: SCC energy               -83.705295919668 Eh    ::
         :: -> electrostatic           0.343986829005 Eh    ::
         :: -> Gsolv                  -0.047254643019 Eh    ::
         ::    -> Gelec               -0.023937817623 Eh    ::
         ::    -> Gsasa               -0.024317579866 Eh    ::
         ::    -> Ghb                 -0.006623524535 Eh    ::
         ::    -> Gshift               0.007624279005 Eh    ::
         :: repulsion energy           0.785341590524 Eh    ::
         :: dispersion energy         -0.025636535322 Eh    ::
         :: halogen bond corr.         0.000000000000 Eh    ::
         :: add. restraining           0.000000000000 Eh    ::
         :: total charge               0.000000000000 e     ::
         :::::::::::::::::::::::::::::::::::::::::::::::::::::

      ----------------------------------------------------------- 
     |                   =====================                   |
     |                        A N C O P T                        |
     |                   =====================                   |
     |               Approximate Normal Coordinate               |
     |                Rational Function Optimizer                |
      ----------------------------------------------------------- 

          ...................................................
          :                      SETUP                      :
          :.................................................:
          :   optimization level            normal          :
          :   max. optcycles                   200          :
          :   ANC micro-cycles                  20          :
          :   degrees of freedom               120          :
          :.................................................:
          :   RF solver                   davidson          :
          :   write xtbopt.log                true          :
          :   linear?                        false          :
          :   energy convergence         0.5000000E-05 Eh   :
          :   grad. convergence          0.1000000E-02 Eh/α :
          :   maximium RF displ.         1.0000000          :
          :   Hlow (freq-cutoff)         0.1000000E-01      :
          :   Hmax (freq-cutoff)         5.0000000          :
          :   S6 in model hess.         20.0000000          :
          ...................................................

generating ANC from model Hessian ...
Using Lindh-Hessian (1995)
 Shifting diagonal of input Hessian by   9.851391183403283E-003
 Lowest  eigenvalues of input Hessian
    0.000000    0.000000    0.000000    0.000000    0.000000    0.000000
    0.010000    0.010182    0.010736    0.011134    0.011780    0.012064
    0.012421    0.013920    0.014551    0.014927    0.015791    0.017901
 Highest eigenvalues
    2.035120    2.103409    2.152294    2.296229    2.338770    2.357016
 

........................................................................
.............................. CYCLE    1 ..............................
........................................................................
   1    -83.7052959 -0.837053E+02  0.851E-06    1.40       0.0  T
   2    -83.7052959 -0.980549E-12  0.378E-06    1.40    4082.5  T
   3    -83.7052959 -0.127898E-12  0.225E-06    1.40    6859.4  T
     SCC iter.                  ...        0 min,  0.012 sec
     gradient                   ...        0 min,  0.081 sec
 * total energy  :   -82.9455909 Eh     change       -0.1629985E-10 Eh
   gradient norm :     0.1165745 Eh/α   predicted     0.0000000E+00 (-100.00%)
   displ. norm   :     0.3415155 α      lambda       -0.1727732E-01
   maximum displ.:     0.1248957 α      in ANC's #24, #26, #27, ...

........................................................................
.............................. CYCLE    2 ..............................
........................................................................
   1    -83.7199106 -0.837199E+02  0.788E-02    1.48       0.0  T
   2    -83.7201629 -0.252308E-03  0.362E-02    1.48       1.0  T
   3    -83.7201965 -0.336196E-04  0.157E-02    1.49       1.0  T
   4    -83.7201967 -0.167569E-06  0.497E-03    1.49       3.1  T
   5    -83.7201969 -0.200019E-06  0.140E-03    1.49      11.1  T
   6    -83.7201969 -0.322561E-07  0.326E-04    1.49      47.3  T
   7    -83.7201969 -0.153511E-08  0.107E-04    1.49     144.1  T
   8    -83.7201969 -0.119030E-09  0.266E-05    1.49     579.6  T
     SCC iter.                  ...        0 min,  0.030 sec
     gradient                   ...        0 min,  0.081 sec
 * total energy  :   -82.9582845 Eh     change       -0.1269362E-01 Eh
   gradient norm :     0.0608092 Eh/α   predicted    -0.9658738E-02 ( -23.91%)
   displ. norm   :     0.3709583 α      lambda       -0.8455111E-02
   maximum displ.:     0.1616112 α      in ANC's #24, #26, #27, ...

........................................................................
.............................. CYCLE    3 ..............................
........................................................................
   1    -83.7320369 -0.837320E+02  0.732E-02    1.53       0.0  T
   2    -83.7322597 -0.222760E-03  0.330E-02    1.54       1.0  T
   3    -83.7322860 -0.263015E-04  0.139E-02    1.55       1.1  T
   4    -83.7322862 -0.219332E-06  0.483E-03    1.55       3.2  T
   5    -83.7322863 -0.136378E-06  0.129E-03    1.55      11.9  T
   6    -83.7322864 -0.254240E-07  0.322E-04    1.55      47.9  T
   7    -83.7322864 -0.177869E-08  0.978E-05    1.55     157.7  T
   8    -83.7322864 -0.104180E-09  0.276E-05    1.55     559.6  T
     SCC iter.                  ...        0 min,  0.030 sec
     gradient                   ...        0 min,  0.081 sec
 * total energy  :   -82.9634295 Eh     change       -0.5145014E-02 Eh
   gradient norm :     0.0187580 Eh/α   predicted    -0.4811064E-02 (  -6.49%)
   displ. norm   :     0.2347420 α      lambda       -0.1438561E-02
   maximum displ.:     0.0828489 α      in ANC's #24, #26, #19, ...

........................................................................
.............................. CYCLE    4 ..............................
........................................................................
   1    -83.7352425 -0.837352E+02  0.206E-02    1.57       0.0  T
   2    -83.7352582 -0.157421E-04  0.101E-02    1.57       1.5  T
   3    -83.7352599 -0.164395E-05  0.484E-03    1.57       3.2  T
   4    -83.7352599 -0.270161E-07  0.151E-03    1.57      10.2  T
   5    -83.7352599 -0.144786E-07  0.337E-04    1.57      45.8  T
   6    -83.7352599 -0.150723E-08  0.970E-05    1.57     159.1  T
   7    -83.7352599 -0.198170E-09  0.279E-05    1.57     552.4  T
     SCC iter.                  ...        0 min,  0.028 sec
     gradient                   ...        0 min,  0.081 sec
 * total energy  :   -82.9644350 Eh     change       -0.1005512E-02 Eh
   gradient norm :     0.0099711 Eh/α   predicted    -0.7589303E-03 ( -24.52%)
   displ. norm   :     0.2530520 α      lambda       -0.7732834E-03
   maximum displ.:     0.0939981 α      in ANC's #11, #9, #2, ...

........................................................................
.............................. CYCLE    5 ..............................
........................................................................
   1    -83.7375521 -0.837376E+02  0.129E-02    1.59       0.0  T
   2    -83.7375565 -0.440674E-05  0.622E-03    1.59       2.5  T
   3    -83.7375568 -0.325644E-06  0.331E-03    1.59       4.7  T
   4    -83.7375569 -0.200068E-07  0.101E-03    1.59      15.2  T
   5    -83.7375569 -0.799615E-08  0.155E-04    1.59      99.5  T
   6    -83.7375569 -0.350468E-09  0.506E-05    1.59     304.8  T
     SCC iter.                  ...        0 min,  0.026 sec
     gradient                   ...        0 min,  0.081 sec
 * total energy  :   -82.9649624 Eh     change       -0.5274176E-03 Eh
   gradient norm :     0.0077967 Eh/α   predicted    -0.4114047E-03 ( -22.00%)
   displ. norm   :     0.2460728 α      lambda       -0.4081180E-03
   maximum displ.:     0.0972755 α      in ANC's #11, #2, #9, ...

........................................................................
.............................. CYCLE    6 ..............................
........................................................................
   1    -83.7390398 -0.837390E+02  0.795E-03    1.60       0.0  T
   2    -83.7390417 -0.186033E-05  0.390E-03    1.60       4.0  T
   3    -83.7390418 -0.133242E-06  0.204E-03    1.60       7.6  T
   4    -83.7390418 -0.964009E-08  0.744E-04    1.60      20.7  T
   5    -83.7390418 -0.350316E-08  0.102E-04    1.60     150.7  T
   6    -83.7390418 -0.187910E-09  0.338E-05    1.60     455.9  T
     SCC iter.                  ...        0 min,  0.026 sec
     gradient                   ...        0 min,  0.081 sec
 * total energy  :   -82.9652725 Eh     change       -0.3101180E-03 Eh
   gradient norm :     0.0078026 Eh/α   predicted    -0.2164613E-03 ( -30.20%)
   displ. norm   :     0.3594104 α      lambda       -0.4567194E-03
   maximum displ.:     0.1538059 α      in ANC's #7, #11, #2, ...

........................................................................
.............................. CYCLE    7 ..............................
........................................................................
   1    -83.7398641 -0.837399E+02  0.903E-03    1.61       0.0  T
   2    -83.7398675 -0.340283E-05  0.485E-03    1.61       3.2  T
   3    -83.7398679 -0.335248E-06  0.227E-03    1.61       6.8  T
   4    -83.7398679 -0.713550E-08  0.947E-04    1.61      16.3  T
   5    -83.7398679 -0.437778E-08  0.150E-04    1.61     103.1  T
   6    -83.7398679 -0.379515E-09  0.424E-05    1.61     363.8  T
     SCC iter.                  ...        0 min,  0.023 sec
     gradient                   ...        0 min,  0.081 sec
 * total energy  :   -82.9656301 Eh     change       -0.3575134E-03 Eh
   gradient norm :     0.0077784 Eh/α   predicted    -0.2578605E-03 ( -27.87%)
   displ. norm   :     0.4640066 α      lambda       -0.5082426E-03
   maximum displ.:     0.2212130 α      in ANC's #7, #2, #11, ...

........................................................................
.............................. CYCLE    8 ..............................
........................................................................
   1    -83.7395315 -0.837395E+02  0.993E-03    1.62       0.0  T
   2    -83.7395360 -0.450998E-05  0.548E-03    1.62       2.8  T
   3    -83.7395365 -0.516280E-06  0.239E-03    1.62       6.4  T
   4    -83.7395366 -0.679515E-08  0.979E-04    1.62      15.8  T
   5    -83.7395366 -0.505959E-08  0.196E-04    1.62      78.7  T
   6    -83.7395366 -0.524253E-09  0.484E-05    1.62     318.5  T
     SCC iter.                  ...        0 min,  0.027 sec
     gradient                   ...        0 min,  0.081 sec
 * total energy  :   -82.9660353 Eh     change       -0.4052849E-03 Eh
   gradient norm :     0.0092979 Eh/α   predicted    -0.3088353E-03 ( -23.80%)
   displ. norm   :     0.5103107 α      lambda       -0.5457155E-03
   maximum displ.:     0.2530350 α      in ANC's #7, #2, #3, ...

........................................................................
.............................. CYCLE    9 ..............................
........................................................................
   1    -83.7390933 -0.837391E+02  0.974E-03    1.63       0.0  T
   2    -83.7390970 -0.369690E-05  0.489E-03    1.63       3.2  T
   3    -83.7390974 -0.400057E-06  0.220E-03    1.63       7.0  T
   4    -83.7390974 -0.839815E-08  0.878E-04    1.63      17.6  T
   5    -83.7390974 -0.457486E-08  0.177E-04    1.63      87.1  T
   6    -83.7390974 -0.474984E-09  0.467E-05    1.63     330.2  T
     SCC iter.                  ...        0 min,  0.023 sec
     gradient                   ...        0 min,  0.081 sec
 * total energy  :   -82.9664764 Eh     change       -0.4410244E-03 Eh
   gradient norm :     0.0109083 Eh/α   predicted    -0.3439160E-03 ( -22.02%)
   displ. norm   :     0.5075340 α      lambda       -0.5929462E-03
   maximum displ.:     0.2432483 α      in ANC's #7, #2, #3, ...

........................................................................
.............................. CYCLE   10 ..............................
........................................................................
   1    -83.7393789 -0.837394E+02  0.924E-03    1.64       0.0  T
   2    -83.7393815 -0.261856E-05  0.445E-03    1.64       3.5  T
   3    -83.7393817 -0.215082E-06  0.229E-03    1.64       6.7  T
   4    -83.7393817 -0.122827E-07  0.829E-04    1.64      18.6  T
   5    -83.7393818 -0.535005E-08  0.141E-04    1.64     109.5  T
   6    -83.7393818 -0.394252E-09  0.456E-05    1.64     338.5  T
     SCC iter.                  ...        0 min,  0.023 sec
     gradient                   ...        0 min,  0.081 sec
 * total energy  :   -82.9669389 Eh     change       -0.4625500E-03 Eh
   gradient norm :     0.0110118 Eh/α   predicted    -0.3728424E-03 ( -19.39%)
   displ. norm   :     0.4659717 α      lambda       -0.5163189E-03
   maximum displ.:     0.2048462 α      in ANC's #3, #2, #7, ...

........................................................................
.............................. CYCLE   11 ..............................
........................................................................
   1    -83.7398011 -0.837398E+02  0.764E-03    1.65       0.0  T
   2    -83.7398033 -0.221540E-05  0.418E-03    1.65       3.7  T
   3    -83.7398034 -0.138453E-06  0.208E-03    1.65       7.4  T
   4    -83.7398035 -0.608161E-08  0.845E-04    1.65      18.3  T
   5    -83.7398035 -0.314640E-08  0.863E-05    1.65     178.8  T
   6    -83.7398035 -0.198455E-09  0.406E-05    1.65     380.1  T
     SCC iter.                  ...        0 min,  0.027 sec
     gradient                   ...        0 min,  0.081 sec
 * total energy  :   -82.9673462 Eh     change       -0.4072765E-03 Eh
   gradient norm :     0.0087138 Eh/α   predicted    -0.3142140E-03 ( -22.85%)
   displ. norm   :     0.5307258 α      lambda       -0.5216681E-03
   maximum displ.:     0.2391358 α      in ANC's #2, #3, #4, ...

........................................................................
.............................. CYCLE   12 ..............................
........................................................................
   1    -83.7386313 -0.837386E+02  0.871E-03    1.68       0.0  T
   2    -83.7386341 -0.286692E-05  0.568E-03    1.68       2.7  T
   3    -83.7386345 -0.336396E-06  0.299E-03    1.68       5.2  T
   4    -83.7386345 -0.964720E-08  0.756E-04    1.68      20.4  T
   5    -83.7386345 -0.268759E-08  0.133E-04    1.68     115.6  T
   6    -83.7386345 -0.418240E-09  0.470E-05    1.68     328.6  T
     SCC iter.                  ...        0 min,  0.038 sec
     gradient                   ...        0 min,  0.081 sec
 * total energy  :   -82.9677604 Eh     change       -0.4142122E-03 Eh
   gradient norm :     0.0111637 Eh/α   predicted    -0.3343037E-03 ( -19.29%)
   displ. norm   :     0.5389206 α      lambda       -0.8113995E-03
   maximum displ.:     0.2862936 α      in ANC's #4, #2, #3, ...

........................................................................
.............................. CYCLE   13 ..............................
........................................................................
   1    -83.7463402 -0.837463E+02  0.279E-02    1.72       0.0  T
   2    -83.7463696 -0.294170E-04  0.144E-02    1.72       1.1  T
   3    -83.7463723 -0.267299E-05  0.749E-03    1.72       2.1  T
   4    -83.7463723 -0.385578E-07  0.206E-03    1.72       7.5  T
   5    -83.7463723 -0.143144E-07  0.277E-04    1.72      55.7  T
   6    -83.7463723 -0.335187E-08  0.105E-04    1.72     146.7  T
   7    -83.7463723 -0.342723E-09  0.395E-05    1.72     390.6  T
     SCC iter.                  ...        0 min,  0.027 sec
     gradient                   ...        0 min,  0.081 sec
 * total energy  :   -82.9679935 Eh     change       -0.2330779E-03 Eh
   gradient norm :     0.0221021 Eh/α   predicted    -0.5235305E-03 ( 124.62%)
   displ. norm   :     0.4529924 α      lambda       -0.8148194E-03
   maximum displ.:     0.2182249 α      in ANC's #2, #4, #3, ...

........................................................................
.............................. CYCLE   14 ..............................
........................................................................
   1    -83.7383270 -0.837383E+02  0.209E-02    1.74       0.0  T
   2    -83.7383396 -0.126326E-04  0.103E-02    1.74       1.5  T
   3    -83.7383404 -0.745783E-06  0.608E-03    1.74       2.5  T
   4    -83.7383404 -0.548762E-07  0.116E-03    1.74      13.4  T
   5    -83.7383405 -0.188162E-07  0.242E-04    1.74      63.7  T
   6    -83.7383405 -0.174339E-08  0.692E-05    1.74     223.0  T
   7    -83.7383405 -0.144425E-09  0.201E-05    1.74     768.8  T
     SCC iter.                  ...        0 min,  0.026 sec
     gradient                   ...        0 min,  0.081 sec
 * total energy  :   -82.9684134 Eh     change       -0.4199213E-03 Eh
   gradient norm :     0.0150506 Eh/α   predicted    -0.4910114E-03 (  16.93%)
   displ. norm   :     0.1137166 α      lambda       -0.3463001E-03
   maximum displ.:     0.0577848 α      in ANC's #7, #14, #26, ...

........................................................................
.............................. CYCLE   15 ..............................
........................................................................
   1    -83.7422835 -0.837423E+02  0.125E-02    1.74       0.0  T
   2    -83.7422892 -0.570120E-05  0.693E-03    1.74       2.2  T
   3    -83.7422898 -0.564208E-06  0.370E-03    1.74       4.2  T
   4    -83.7422898 -0.791799E-08  0.992E-04    1.74      15.6  T
   5    -83.7422898 -0.686971E-08  0.146E-04    1.74     105.9  T
   6    -83.7422898 -0.385469E-09  0.487E-05    1.74     316.5  T
     SCC iter.                  ...        0 min,  0.023 sec
     gradient                   ...        0 min,  0.081 sec
 * total energy  :   -82.9686491 Eh     change       -0.2356795E-03 Eh
   gradient norm :     0.0115552 Eh/α   predicted    -0.1753895E-03 ( -25.58%)
   displ. norm   :     0.4667716 α      lambda       -0.5540203E-03
   maximum displ.:     0.2670412 α      in ANC's #4, #2, #3, ...

........................................................................
.............................. CYCLE   16 ..............................
........................................................................
   1    -83.7430555 -0.837431E+02  0.155E-02    1.76       0.0  T
   2    -83.7430644 -0.895047E-05  0.728E-03    1.76       2.1  T
   3    -83.7430650 -0.617286E-06  0.406E-03    1.76       3.8  T
   4    -83.7430651 -0.456148E-07  0.125E-03    1.76      12.3  T
   5    -83.7430651 -0.751847E-08  0.295E-04    1.76      52.2  T
   6    -83.7430651 -0.158077E-08  0.791E-05    1.76     195.1  T
   7    -83.7430651 -0.137973E-09  0.241E-05    1.76     641.4  T
     SCC iter.                  ...        0 min,  0.026 sec
     gradient                   ...        0 min,  0.081 sec
 * total energy  :   -82.9689778 Eh     change       -0.3287558E-03 Eh
   gradient norm :     0.0076461 Eh/α   predicted    -0.3373643E-03 (   2.62%)
   displ. norm   :     0.5286420 α      lambda       -0.4528487E-03
   maximum displ.:     0.3068283 α      in ANC's #4, #2, #3, ...

........................................................................
.............................. CYCLE   17 ..............................
........................................................................
   1    -83.7413551 -0.837414E+02  0.157E-02    1.77       0.0  T
   2    -83.7413610 -0.592161E-05  0.653E-03    1.77       2.4  T
   3    -83.7413614 -0.338181E-06  0.371E-03    1.77       4.2  T
   4    -83.7413614 -0.221749E-07  0.997E-04    1.77      15.5  T
   5    -83.7413614 -0.127878E-07  0.160E-04    1.77      96.2  T
   6    -83.7413614 -0.520473E-09  0.385E-05    1.77     401.2  T
     SCC iter.                  ...        0 min,  0.023 sec
     gradient                   ...        0 min,  0.082 sec
 * total energy  :   -82.9692286 Eh     change       -0.2507408E-03 Eh
   gradient norm :     0.0119009 Eh/α   predicted    -0.2897025E-03 (  15.54%)
   displ. norm   :     0.3267988 α      lambda       -0.2476891E-03
   maximum displ.:     0.1804371 α      in ANC's #4, #2, #1, ...

........................................................................
.............................. CYCLE   18 ..............................
........................................................................
   1    -83.7413257 -0.837413E+02  0.715E-03    1.78       0.0  T
   2    -83.7413269 -0.119134E-05  0.358E-03    1.78       4.3  T
   3    -83.7413270 -0.150402E-06  0.181E-03    1.78       8.5  T
   4    -83.7413270 -0.447032E-08  0.348E-04    1.78      44.3  T
   5    -83.7413270 -0.833538E-09  0.101E-04    1.78     152.9  T
   6    -83.7413270 -0.168768E-09  0.327E-05    1.78     471.6  T
     SCC iter.                  ...        0 min,  0.023 sec
     gradient                   ...        0 min,  0.082 sec
 * total energy  :   -82.9694133 Eh     change       -0.1846910E-03 Eh
   gradient norm :     0.0088132 Eh/α   predicted    -0.1370758E-03 ( -25.78%)
   displ. norm   :     0.3531311 α      lambda       -0.3282575E-03
   maximum displ.:     0.2010947 α      in ANC's #4, #2, #1, ...

........................................................................
.............................. CYCLE   19 ..............................
........................................................................
   1    -83.7462114 -0.837462E+02  0.142E-02    1.78       0.0  T
   2    -83.7462210 -0.960535E-05  0.619E-03    1.79       2.5  T
   3    -83.7462212 -0.159108E-06  0.347E-03    1.79       4.4  T
   4    -83.7462212  0.115471E-07  0.130E-03    1.79      11.9  T
   5    -83.7462212 -0.266405E-07  0.124E-04    1.79     124.0  T
   6    -83.7462212 -0.310493E-09  0.460E-05    1.79     335.5  T
     SCC iter.                  ...        0 min,  0.023 sec
     gradient                   ...        0 min,  0.081 sec
 * total energy  :   -82.9695939 Eh     change       -0.1805803E-03 Eh
   gradient norm :     0.0067922 Eh/α   predicted    -0.1845973E-03 (   2.22%)
   displ. norm   :     0.5706841 α      lambda       -0.2529372E-03
   maximum displ.:     0.3141463 α      in ANC's #4, #2, #1, ...

........................................................................
.............................. CYCLE   20 ..............................
........................................................................
   1    -83.7407633 -0.837408E+02  0.134E-02    1.80       0.0  T
   2    -83.7407681 -0.477686E-05  0.707E-03    1.80       2.2  T
   3    -83.7407685 -0.431539E-06  0.392E-03    1.80       3.9  T
   4    -83.7407685 -0.346282E-07  0.978E-04    1.80      15.8  T
   5    -83.7407685 -0.673252E-08  0.194E-04    1.80      79.4  T
   6    -83.7407685 -0.850065E-09  0.491E-05    1.80     314.1  T
     SCC iter.                  ...        0 min,  0.023 sec
     gradient                   ...        0 min,  0.082 sec
 * total energy  :   -82.9697057 Eh     change       -0.1118162E-03 Eh
   gradient norm :     0.0110011 Eh/α   predicted    -0.1676573E-03 (  49.94%)
   displ. norm   :     0.1315119 α      lambda       -0.1950105E-03
   maximum displ.:     0.0678736 α      in ANC's #1, #4, #5, ...
 * RMSD in coord.:     0.9521692 α      energy gain  -0.2411481E-01 Eh

generating ANC from model Hessian ...
Using Lindh-Hessian (1995)
 Shifting diagonal of input Hessian by   9.845535804875835E-003
 Lowest  eigenvalues of input Hessian
    0.000000    0.000000    0.000000    0.000000    0.000000    0.000000
    0.010000    0.010222    0.010741    0.010957    0.011709    0.012155
    0.012473    0.013723    0.014841    0.015295    0.016336    0.018262
 Highest eigenvalues
    2.062201    2.097874    2.130562    2.325583    2.391913    2.429215
 

........................................................................
.............................. CYCLE   21 ..............................
........................................................................
   1    -83.7440186 -0.837440E+02  0.107E-02    1.80       0.0  T
   2    -83.7440233 -0.471717E-05  0.505E-03    1.80       3.1  T
   3    -83.7440237 -0.397822E-06  0.277E-03    1.80       5.6  T
   4    -83.7440237 -0.664903E-08  0.826E-04    1.80      18.7  T
   5    -83.7440237 -0.619859E-08  0.107E-04    1.80     144.2  T
   6    -83.7440237 -0.218762E-09  0.446E-05    1.80     345.9  T
     SCC iter.                  ...        0 min,  0.023 sec
     gradient                   ...        0 min,  0.081 sec
 * total energy  :   -82.9698361 Eh     change       -0.1304570E-03 Eh
   gradient norm :     0.0083366 Eh/α   predicted     0.0000000E+00 (-100.00%)
   displ. norm   :     0.0609152 α      lambda       -0.1241934E-03
   maximum displ.:     0.0295690 α      in ANC's #4, #1, #6, ...

........................................................................
.............................. CYCLE   22 ..............................
........................................................................
   1    -83.7454552 -0.837455E+02  0.561E-03    1.80       0.0  T
   2    -83.7454570 -0.172562E-05  0.232E-03    1.80       6.7  T
   3    -83.7454570 -0.415608E-07  0.134E-03    1.80      11.5  T
   4    -83.7454570 -0.161519E-08  0.494E-04    1.80      31.2  T
   5    -83.7454570 -0.232967E-08  0.103E-04    1.80     149.6  T
   6    -83.7454570 -0.287940E-09  0.232E-05    1.80     665.7  T
     SCC iter.                  ...        0 min,  0.023 sec
     gradient                   ...        0 min,  0.082 sec
 * total energy  :   -82.9699324 Eh     change       -0.9628799E-04 Eh
   gradient norm :     0.0028742 Eh/α   predicted    -0.6232767E-04 ( -35.27%)
   displ. norm   :     0.1582608 α      lambda       -0.1663645E-03
   maximum displ.:     0.0810722 α      in ANC's #4, #1, #6, ...

........................................................................
.............................. CYCLE   23 ..............................
........................................................................
   1    -83.7463876 -0.837464E+02  0.783E-03    1.80       0.0  T
   2    -83.7463909 -0.329836E-05  0.298E-03    1.80       5.2  T
   3    -83.7463910 -0.117896E-06  0.152E-03    1.80      10.2  T
   4    -83.7463910 -0.650249E-08  0.780E-04    1.80      19.8  T
   5    -83.7463910 -0.332631E-08  0.131E-04    1.80     118.0  T
   6    -83.7463910 -0.348791E-09  0.345E-05    1.80     446.7  T
     SCC iter.                  ...        0 min,  0.023 sec
     gradient                   ...        0 min,  0.082 sec
 * total energy  :   -82.9700514 Eh     change       -0.1190120E-03 Eh
   gradient norm :     0.0045939 Eh/α   predicted    -0.8526780E-04 ( -28.35%)
   displ. norm   :     0.2161633 α      lambda       -0.1408635E-03
   maximum displ.:     0.1143911 α      in ANC's #4, #1, #6, ...

........................................................................
.............................. CYCLE   24 ..............................
........................................................................
   1    -83.7456799 -0.837457E+02  0.679E-03    1.81       0.0  T
   2    -83.7456817 -0.175019E-05  0.267E-03    1.81       5.8  T
   3    -83.7456818 -0.158805E-06  0.101E-03    1.81      15.2  T
   4    -83.7456818 -0.412489E-08  0.489E-04    1.81      31.5  T
   5    -83.7456818 -0.865001E-09  0.879E-05    1.81     175.5  T
   6    -83.7456818 -0.145860E-09  0.298E-05    1.81     517.2  T
     SCC iter.                  ...        0 min,  0.023 sec
     gradient                   ...        0 min,  0.082 sec
 * total energy  :   -82.9701632 Eh     change       -0.1117282E-03 Eh
   gradient norm :     0.0068006 Eh/α   predicted    -0.7373529E-04 ( -34.00%)
   displ. norm   :     0.3084538 α      lambda       -0.1792832E-03
   maximum displ.:     0.1626858 α      in ANC's #4, #1, #6, ...

........................................................................
.............................. CYCLE   25 ..............................
........................................................................
   1    -83.7435073 -0.837435E+02  0.897E-03    1.81       0.0  T
   2    -83.7435093 -0.196749E-05  0.379E-03    1.81       4.1  T
   3    -83.7435096 -0.316674E-06  0.163E-03    1.81       9.5  T
   4    -83.7435096 -0.285287E-08  0.400E-04    1.81      38.6  T
   5    -83.7435096 -0.188435E-08  0.778E-05    1.81     198.3  T
   6    -83.7435096 -0.140673E-09  0.295E-05    1.81     523.0  T
     SCC iter.                  ...        0 min,  0.023 sec
     gradient                   ...        0 min,  0.082 sec
 * total energy  :   -82.9702949 Eh     change       -0.1317502E-03 Eh
   gradient norm :     0.0078022 Eh/α   predicted    -0.9817234E-04 ( -25.49%)
   displ. norm   :     0.2578958 α      lambda       -0.1567859E-03
   maximum displ.:     0.1398511 α      in ANC's #4, #1, #6, ...

........................................................................
.............................. CYCLE   26 ..............................
........................................................................
   1    -83.7425612 -0.837426E+02  0.739E-03    1.82       0.0  T
   2    -83.7425625 -0.122578E-05  0.272E-03    1.82       5.7  T
   3    -83.7425626 -0.147231E-06  0.137E-03    1.82      11.3  T
   4    -83.7425626 -0.498486E-08  0.402E-04    1.82      38.4  T
   5    -83.7425626 -0.141473E-08  0.693E-05    1.82     222.7  T
   6    -83.7425626 -0.763549E-10  0.256E-05    1.82     601.8  T
     SCC iter.                  ...        0 min,  0.023 sec
     gradient                   ...        0 min,  0.082 sec
 * total energy  :   -82.9704121 Eh     change       -0.1171907E-03 Eh
   gradient norm :     0.0074426 Eh/α   predicted    -0.8361086E-04 ( -28.65%)
   displ. norm   :     0.2179564 α      lambda       -0.1796555E-03
   maximum displ.:     0.1266657 α      in ANC's #1, #4, #6, ...

........................................................................
.............................. CYCLE   27 ..............................
........................................................................
   1    -83.7445079 -0.837445E+02  0.849E-03    1.82       0.0  T
   2    -83.7445098 -0.188271E-05  0.343E-03    1.82       4.5  T
   3    -83.7445100 -0.156687E-06  0.197E-03    1.82       7.8  T
   4    -83.7445100 -0.919751E-08  0.483E-04    1.82      32.0  T
   5    -83.7445100 -0.317657E-08  0.900E-05    1.82     171.4  T
   6    -83.7445100 -0.163226E-09  0.298E-05    1.82     518.4  T
     SCC iter.                  ...        0 min,  0.023 sec
     gradient                   ...        0 min,  0.082 sec
 * total energy  :   -82.9705335 Eh     change       -0.1214478E-03 Eh
   gradient norm :     0.0044892 Eh/α   predicted    -0.9409540E-04 ( -22.52%)
   displ. norm   :     0.2580552 α      lambda       -0.1078792E-03
   maximum displ.:     0.1490023 α      in ANC's #4, #1, #6, ...

........................................................................
.............................. CYCLE   28 ..............................
........................................................................
   1    -83.7438892 -0.837439E+02  0.559E-03    1.83       0.0  T
   2    -83.7438898 -0.669746E-06  0.247E-03    1.82       6.2  T
   3    -83.7438899 -0.107359E-06  0.126E-03    1.82      12.2  T
   4    -83.7438900 -0.304787E-08  0.249E-04    1.82      62.1  T
   5    -83.7438900 -0.757595E-09  0.638E-05    1.82     241.7  T
   6    -83.7438900 -0.973586E-10  0.228E-05    1.82     678.0  T
     SCC iter.                  ...        0 min,  0.023 sec
     gradient                   ...        0 min,  0.082 sec
 * total energy  :   -82.9706132 Eh     change       -0.7961105E-04 Eh
   gradient norm :     0.0074548 Eh/α   predicted    -0.5759209E-04 ( -27.66%)
   displ. norm   :     0.2760866 α      lambda       -0.1614629E-03
   maximum displ.:     0.1748691 α      in ANC's #1, #4, #6, ...

........................................................................
.............................. CYCLE   29 ..............................
........................................................................
   1    -83.7463277 -0.837463E+02  0.618E-03    1.83       0.0  T
   2    -83.7463291 -0.135667E-05  0.284E-03    1.83       5.4  T
   3    -83.7463292 -0.846374E-07  0.157E-03    1.83       9.9  T
   4    -83.7463292 -0.128541E-08  0.416E-04    1.83      37.1  T
   5    -83.7463292 -0.207116E-08  0.584E-05    1.83     264.2  T
   6    -83.7463292 -0.839293E-10  0.189E-05    1.83     817.0  T
     SCC iter.                  ...        0 min,  0.023 sec
     gradient                   ...        0 min,  0.082 sec
 * total energy  :   -82.9707266 Eh     change       -0.1134477E-03 Eh
   gradient norm :     0.0051596 Eh/α   predicted    -0.8690217E-04 ( -23.40%)
   displ. norm   :     0.3959404 α      lambda       -0.1533672E-03
   maximum displ.:     0.2426886 α      in ANC's #1, #4, #6, ...

........................................................................
.............................. CYCLE   30 ..............................
........................................................................
   1    -83.7440123 -0.837440E+02  0.735E-03    1.84       0.0  T
   2    -83.7440135 -0.115649E-05  0.367E-03    1.84       4.2  T
   3    -83.7440136 -0.143263E-06  0.198E-03    1.84       7.8  T
   4    -83.7440136 -0.474763E-08  0.359E-04    1.84      43.0  T
   5    -83.7440136 -0.938883E-09  0.689E-05    1.84     223.9  T
   6    -83.7440136 -0.212722E-09  0.223E-05    1.84     690.9  T
     SCC iter.                  ...        0 min,  0.023 sec
     gradient                   ...        0 min,  0.082 sec
 * total energy  :   -82.9708289 Eh     change       -0.1022565E-03 Eh
   gradient norm :     0.0088645 Eh/α   predicted    -0.8870749E-04 ( -13.25%)
   displ. norm   :     0.2659936 α      lambda       -0.1798482E-03
   maximum displ.:     0.1795832 α      in ANC's #1, #4, #7, ...

........................................................................
.............................. CYCLE   31 ..............................
........................................................................
   1    -83.7469463 -0.837469E+02  0.735E-03    1.84       0.0  T
   2    -83.7469474 -0.109664E-05  0.331E-03    1.84       4.7  T
   3    -83.7469475 -0.971625E-07  0.189E-03    1.84       8.2  T
   4    -83.7469475 -0.995405E-08  0.353E-04    1.84      43.7  T
   5    -83.7469475 -0.125976E-08  0.776E-05    1.84     198.8  T
   6    -83.7469475 -0.149456E-09  0.287E-05    1.84     536.9  T
     SCC iter.                  ...        0 min,  0.022 sec
     gradient                   ...        0 min,  0.077 sec
 * total energy  :   -82.9709494 Eh     change       -0.1204993E-03 Eh
   gradient norm :     0.0053015 Eh/α   predicted    -0.9630967E-04 ( -20.07%)
   displ. norm   :     0.3730584 α      lambda       -0.1362717E-03
   maximum displ.:     0.2474346 α      in ANC's #1, #4, #6, ...

........................................................................
.............................. CYCLE   32 ..............................
........................................................................
   1    -83.7444405 -0.837444E+02  0.865E-03    1.85       0.0  T
   2    -83.7444431 -0.258116E-05  0.345E-03    1.85       4.5  T
   3    -83.7444432 -0.108851E-06  0.196E-03    1.85       7.9  T
   4    -83.7444432 -0.103624E-07  0.600E-04    1.85      25.7  T
   5    -83.7444432 -0.287447E-08  0.126E-04    1.85     122.2  T
   6    -83.7444432 -0.318948E-09  0.311E-05    1.85     495.5  T
     SCC iter.                  ...        0 min,  0.021 sec
     gradient                   ...        0 min,  0.078 sec
 * total energy  :   -82.9710251 Eh     change       -0.7575776E-04 Eh
   gradient norm :     0.0066363 Eh/α   predicted    -0.7762369E-04 (   2.46%)
   displ. norm   :     0.1896992 α      lambda       -0.1148520E-03
   maximum displ.:     0.1420267 α      in ANC's #1, #4, #5, ...

........................................................................
.............................. CYCLE   33 ..............................
........................................................................
   1    -83.7468407 -0.837468E+02  0.784E-03    1.86       0.0  T
   2    -83.7468418 -0.114800E-05  0.342E-03    1.86       4.5  T
   3    -83.7468419 -0.122000E-06  0.200E-03    1.86       7.7  T
   4    -83.7468420 -0.120788E-07  0.362E-04    1.86      42.7  T
   5    -83.7468420 -0.111250E-08  0.858E-05    1.86     179.9  T
   6    -83.7468420 -0.184770E-09  0.281E-05    1.86     549.9  T
     SCC iter.                  ...        0 min,  0.021 sec
     gradient                   ...        0 min,  0.079 sec
 * total energy  :   -82.9710975 Eh     change       -0.7242175E-04 Eh
   gradient norm :     0.0038862 Eh/α   predicted    -0.5949260E-04 ( -17.85%)
   displ. norm   :     0.2724314 α      lambda       -0.7226346E-04
   maximum displ.:     0.1992248 α      in ANC's #1, #4, #6, ...

........................................................................
.............................. CYCLE   34 ..............................
........................................................................
   1    -83.7459966 -0.837460E+02  0.546E-03    1.87       0.0  T
   2    -83.7459981 -0.149587E-05  0.205E-03    1.86       7.5  T
   3    -83.7459982 -0.886220E-07  0.101E-03    1.87      15.3  T
   4    -83.7459982 -0.255166E-08  0.507E-04    1.87      30.5  T
   5    -83.7459982 -0.126732E-08  0.679E-05    1.87     227.3  T
   6    -83.7459982 -0.897842E-10  0.230E-05    1.87     671.8  T
     SCC iter.                  ...        0 min,  0.021 sec
     gradient                   ...        0 min,  0.082 sec
 * total energy  :   -82.9711496 Eh     change       -0.5204529E-04 Eh
   gradient norm :     0.0045004 Eh/α   predicted    -0.3882664E-04 ( -25.40%)
   displ. norm   :     0.2475317 α      lambda       -0.9194988E-04
   maximum displ.:     0.1918635 α      in ANC's #1, #4, #10, ...

........................................................................
.............................. CYCLE   35 ..............................
........................................................................
   1    -83.7481042 -0.837481E+02  0.771E-03    1.87       0.0  T
   2    -83.7481061 -0.181730E-05  0.366E-03    1.87       4.2  T
   3    -83.7481062 -0.181150E-06  0.200E-03    1.87       7.7  T
   4    -83.7481062 -0.594916E-08  0.440E-04    1.87      35.0  T
   5    -83.7481062 -0.172554E-08  0.919E-05    1.87     167.8  T
   6    -83.7481062 -0.293355E-09  0.247E-05    1.87     623.6  T
     SCC iter.                  ...        0 min,  0.020 sec
     gradient                   ...        0 min,  0.067 sec
 * total energy  :   -82.9711928 Eh     change       -0.4326265E-04 Eh
   gradient norm :     0.0052496 Eh/α   predicted    -0.4879251E-04 (  12.78%)
   displ. norm   :     0.3051933 α      lambda       -0.8202343E-04
   maximum displ.:     0.2235138 α      in ANC's #1, #4, #8, ...

........................................................................
.............................. CYCLE   36 ..............................
........................................................................
   1    -83.7461766 -0.837462E+02  0.787E-03    1.87       0.0  T
   2    -83.7461778 -0.128161E-05  0.391E-03    1.87       3.9  T
   3    -83.7461780 -0.115432E-06  0.222E-03    1.87       6.9  T
   4    -83.7461780 -0.687956E-08  0.289E-04    1.87      53.3  T
   5    -83.7461780 -0.946173E-09  0.554E-05    1.87     278.5  T
   6    -83.7461780 -0.102276E-09  0.207E-05    1.87     745.9  T
     SCC iter.                  ...        0 min,  0.021 sec
     gradient                   ...        0 min,  0.076 sec
 * total energy  :   -82.9712364 Eh     change       -0.4356930E-04 Eh
   gradient norm :     0.0046193 Eh/α   predicted    -0.4483521E-04 (   2.91%)
   displ. norm   :     0.1033322 α      lambda       -0.4345795E-04
   maximum displ.:     0.0833857 α      in ANC's #1, #4, #10, ...

........................................................................
.............................. CYCLE   37 ..............................
........................................................................
   1    -83.7472605 -0.837473E+02  0.247E-03    1.87       0.0  T
   2    -83.7472607 -0.160344E-06  0.132E-03    1.87      11.7  T
   3    -83.7472607 -0.124720E-07  0.703E-04    1.87      21.9  T
   4    -83.7472607 -0.155033E-08  0.200E-04    1.87      77.2  T
   5    -83.7472607 -0.324547E-09  0.451E-05    1.87     341.9  T
     SCC iter.                  ...        0 min,  0.018 sec
     gradient                   ...        0 min,  0.077 sec
 * total energy  :   -82.9712701 Eh     change       -0.3367594E-04 Eh
   gradient norm :     0.0036271 Eh/α   predicted    -0.2196545E-04 ( -34.77%)
   displ. norm   :     0.3370882 α      lambda       -0.7884875E-04
   maximum displ.:     0.2680496 α      in ANC's #1, #4, #10, ...

........................................................................
.............................. CYCLE   38 ..............................
........................................................................
   1    -83.7473890 -0.837474E+02  0.410E-03    1.87       0.0  T
   2    -83.7473896 -0.624985E-06  0.210E-03    1.87       7.3  T
   3    -83.7473897 -0.462162E-07  0.106E-03    1.87      14.6  T
   4    -83.7473897 -0.198796E-08  0.408E-04    1.87      37.8  T
   5    -83.7473897 -0.116995E-08  0.613E-05    1.87     251.7  T
   6    -83.7473897 -0.677147E-10  0.185E-05    1.87     832.5  T
     SCC iter.                  ...        0 min,  0.021 sec
     gradient                   ...        0 min,  0.078 sec
 * total energy  :   -82.9713251 Eh     change       -0.5497984E-04 Eh
   gradient norm :     0.0028431 Eh/α   predicted    -0.4390628E-04 ( -20.14%)
   displ. norm   :     0.3866919 α      lambda       -0.5598873E-04
   maximum displ.:     0.3100466 α      in ANC's #1, #4, #8, ...

........................................................................
.............................. CYCLE   39 ..............................
........................................................................
   1    -83.7467825 -0.837468E+02  0.422E-03    1.87       0.0  T
   2    -83.7467830 -0.566501E-06  0.157E-03    1.87       9.8  T
   3    -83.7467831 -0.355033E-07  0.773E-04    1.87      20.0  T
   4    -83.7467831 -0.188714E-08  0.308E-04    1.87      50.1  T
   5    -83.7467831 -0.442895E-09  0.506E-05    1.87     304.8  T
   6    -83.7467831 -0.532907E-10  0.182E-05    1.87     845.8  T
     SCC iter.                  ...        0 min,  0.019 sec
     gradient                   ...        0 min,  0.075 sec
 * total energy  :   -82.9713661 Eh     change       -0.4103316E-04 Eh
   gradient norm :     0.0033840 Eh/α   predicted    -0.3218159E-04 ( -21.57%)
   displ. norm   :     0.2019155 α      lambda       -0.4313519E-04
   maximum displ.:     0.1694440 α      in ANC's #1, #4, #7, ...

........................................................................
.............................. CYCLE   40 ..............................
........................................................................
   1    -83.7487366 -0.837487E+02  0.409E-03    1.88       0.0  T
   2    -83.7487369 -0.322026E-06  0.192E-03    1.88       8.1  T
   3    -83.7487369 -0.300900E-07  0.113E-03    1.88      13.7  T
   4    -83.7487369 -0.402247E-08  0.189E-04    1.88      81.7  T
   5    -83.7487369 -0.353680E-09  0.474E-05    1.88     325.4  T
     SCC iter.                  ...        0 min,  0.018 sec
     gradient                   ...        0 min,  0.077 sec
 * total energy  :   -82.9713982 Eh     change       -0.3207446E-04 Eh
   gradient norm :     0.0032749 Eh/α   predicted    -0.2244852E-04 ( -30.01%)
   displ. norm   :     0.2988094 α      lambda       -0.5119301E-04
   maximum displ.:     0.2488540 α      in ANC's #1, #4, #17, ...

........................................................................
.............................. CYCLE   41 ..............................
........................................................................
   1    -83.7483673 -0.837484E+02  0.336E-03    1.88       0.0  T
   2    -83.7483677 -0.451226E-06  0.127E-03    1.88      12.1  T
   3    -83.7483677 -0.229904E-07  0.685E-04    1.88      22.5  T
   4    -83.7483677 -0.840970E-09  0.242E-04    1.88      63.7  T
   5    -83.7483677 -0.482004E-09  0.543E-05    1.88     284.3  T
   6    -83.7483677 -0.417089E-10  0.138E-05    1.88    1118.7  T
     SCC iter.                  ...        0 min,  0.021 sec
     gradient                   ...        0 min,  0.077 sec
 * total energy  :   -82.9714397 Eh     change       -0.4150663E-04 Eh
   gradient norm :     0.0021333 Eh/α   predicted    -0.2788621E-04 ( -32.82%)
   displ. norm   :     0.1923660 α      lambda       -0.4154971E-04
   maximum displ.:     0.1638719 α      in ANC's #1, #4, #2, ...

........................................................................
.............................. CYCLE   42 ..............................
........................................................................
   1    -83.7493880 -0.837494E+02  0.313E-03    1.88       0.0  T
   2    -83.7493881 -0.107009E-06  0.163E-03    1.88       9.5  T
   3    -83.7493882 -0.572842E-08  0.713E-04    1.88      21.6  T
   4    -83.7493882 -0.346874E-08  0.174E-04    1.88      88.6  T
   5    -83.7493882 -0.262077E-09  0.401E-05    1.88     385.0  T
     SCC iter.                  ...        0 min,  0.017 sec
     gradient                   ...        0 min,  0.077 sec
 * total energy  :   -82.9714676 Eh     change       -0.2788670E-04 Eh
   gradient norm :     0.0028482 Eh/α   predicted    -0.2154724E-04 ( -22.73%)
   displ. norm   :     0.2074684 α      lambda       -0.4078149E-04
   maximum displ.:     0.1750765 α      in ANC's #1, #4, #2, ...
 * RMSD in coord.:     0.7911430 α      energy gain  -0.1761902E-02 Eh

generating ANC from model Hessian ...
Using Lindh-Hessian (1995)
 Shifting diagonal of input Hessian by   9.842342937951054E-003
 Lowest  eigenvalues of input Hessian
    0.000000    0.000000    0.000000    0.000000    0.000000    0.000000
    0.010000    0.010240    0.010813    0.010920    0.011356    0.012158
    0.012546    0.013819    0.015265    0.015490    0.016389    0.018431
 Highest eigenvalues
    2.062569    2.094283    2.134959    2.329809    2.404550    2.437618
 

........................................................................
.............................. CYCLE   43 ..............................
........................................................................
   1    -83.7488388 -0.837488E+02  0.291E-03    1.88       0.0  T
   2    -83.7488389 -0.132374E-06  0.129E-03    1.88      11.9  T
   3    -83.7488390 -0.750782E-08  0.676E-04    1.88      22.8  T
   4    -83.7488390 -0.157050E-08  0.170E-04    1.88      90.7  T
   5    -83.7488390 -0.254360E-09  0.284E-05    1.88     544.0  T
     SCC iter.                  ...        0 min,  0.017 sec
     gradient                   ...        0 min,  0.077 sec
 * total energy  :   -82.9714988 Eh     change       -0.3122798E-04 Eh
   gradient norm :     0.0023549 Eh/α   predicted     0.0000000E+00 (-100.00%)
   displ. norm   :     0.0243200 α      lambda       -0.1313492E-04
   maximum displ.:     0.0121512 α      in ANC's #1, #3, #4, ...

........................................................................
.............................. CYCLE   44 ..............................
........................................................................
   1    -83.7484750 -0.837485E+02  0.139E-03    1.88       0.0  T
   2    -83.7484750 -0.423683E-07  0.646E-04    1.88      23.9  T
   3    -83.7484750 -0.330256E-08  0.364E-04    1.88      42.4  T
   4    -83.7484750 -0.342396E-09  0.708E-05    1.88     217.8  T
   5    -83.7484750 -0.640625E-10  0.211E-05    1.88     730.2  T
     SCC iter.                  ...        0 min,  0.017 sec
     gradient                   ...        0 min,  0.077 sec
 * total energy  :   -82.9715109 Eh     change       -0.1213822E-04 Eh
   gradient norm :     0.0011148 Eh/α   predicted    -0.7322137E-05 ( -39.68%)
   displ. norm   :     0.1209646 α      lambda       -0.3017875E-04
   maximum displ.:     0.0605028 α      in ANC's #1, #4, #3, ...

........................................................................
.............................. CYCLE   45 ..............................
........................................................................
   1    -83.7474278 -0.837474E+02  0.417E-03    1.88       0.0  T
   2    -83.7474282 -0.405352E-06  0.184E-03    1.88       8.4  T
   3    -83.7474282 -0.381479E-07  0.105E-03    1.88      14.7  T
   4    -83.7474282 -0.390369E-08  0.232E-04    1.88      66.4  T
   5    -83.7474282 -0.445681E-09  0.717E-05    1.88     215.2  T
   6    -83.7474282 -0.710259E-10  0.154E-05    1.88    1004.3  T
     SCC iter.                  ...        0 min,  0.021 sec
     gradient                   ...        0 min,  0.077 sec
 * total energy  :   -82.9715345 Eh     change       -0.2360116E-04 Eh
   gradient norm :     0.0030038 Eh/α   predicted    -0.1518787E-04 ( -35.65%)
   displ. norm   :     0.0430364 α      lambda       -0.1269843E-04
   maximum displ.:     0.0237236 α      in ANC's #1, #4, #3, ...

........................................................................
.............................. CYCLE   46 ..............................
........................................................................
   1    -83.7475431 -0.837475E+02  0.735E-04    1.88       0.0  T
   2    -83.7475431 -0.129278E-07  0.357E-04    1.88      43.3  T
   3    -83.7475431 -0.134371E-08  0.202E-04    1.88      76.3  T
   4    -83.7475431 -0.103412E-09  0.357E-05    1.88     432.5  T
   5    -83.7475431 -0.167688E-10  0.102E-05    1.88    1508.7  T
     SCC iter.                  ...        0 min,  0.018 sec
     gradient                   ...        0 min,  0.077 sec
 * total energy  :   -82.9715468 Eh     change       -0.1228651E-04 Eh
   gradient norm :     0.0026287 Eh/α   predicted    -0.6526533E-05 ( -46.88%)
   displ. norm   :     0.2196189 α      lambda       -0.6564967E-04
   maximum displ.:     0.1195942 α      in ANC's #1, #4, #3, ...

........................................................................
.............................. CYCLE   47 ..............................
........................................................................
   1    -83.7478296 -0.837478E+02  0.321E-03    1.87       0.0  T
   2    -83.7478299 -0.234861E-06  0.157E-03    1.87       9.8  T
   3    -83.7478299 -0.214647E-07  0.857E-04    1.87      18.0  T
   4    -83.7478299 -0.263115E-08  0.182E-04    1.87      84.6  T
   5    -83.7478299 -0.291905E-09  0.483E-05    1.87     319.6  T
     SCC iter.                  ...        0 min,  0.024 sec
     gradient                   ...        0 min,  0.078 sec
 * total energy  :   -82.9715960 Eh     change       -0.4914662E-04 Eh
   gradient norm :     0.0016890 Eh/α   predicted    -0.3440829E-04 ( -29.99%)
   displ. norm   :     0.3511951 α      lambda       -0.4094298E-04
   maximum displ.:     0.1963898 α      in ANC's #1, #4, #3, ...

........................................................................
.............................. CYCLE   48 ..............................
........................................................................
   1    -83.7469517 -0.837470E+02  0.458E-03    1.86       0.0  T
   2    -83.7469522 -0.504296E-06  0.206E-03    1.86       7.5  T
   3    -83.7469523 -0.594328E-07  0.112E-03    1.86      13.8  T
   4    -83.7469523 -0.453666E-08  0.243E-04    1.86      63.5  T
   5    -83.7469523 -0.390443E-09  0.666E-05    1.86     231.7  T
   6    -83.7469523 -0.684963E-10  0.242E-05    1.86     636.9  T
     SCC iter.                  ...        0 min,  0.021 sec
     gradient                   ...        0 min,  0.076 sec
 * total energy  :   -82.9716245 Eh     change       -0.2849297E-04 Eh
   gradient norm :     0.0038996 Eh/α   predicted    -0.2159435E-04 ( -24.21%)
   displ. norm   :     0.0261027 α      lambda       -0.2101046E-04
   maximum displ.:     0.0165668 α      in ANC's #1, #4, #14, ...

........................................................................
.............................. CYCLE   49 ..............................
........................................................................
   1    -83.7480094 -0.837480E+02  0.301E-03    1.86       0.0  T
   2    -83.7480096 -0.183707E-06  0.133E-03    1.86      11.6  T
   3    -83.7480096 -0.222661E-07  0.780E-04    1.86      19.8  T
   4    -83.7480096 -0.121116E-08  0.766E-05    1.86     201.5  T
   5    -83.7480096 -0.984244E-10  0.194E-05    1.86     793.4  T
     SCC iter.                  ...        0 min,  0.017 sec
     gradient                   ...        0 min,  0.077 sec
 * total energy  :   -82.9716412 Eh     change       -0.1672746E-04 Eh
   gradient norm :     0.0022539 Eh/α   predicted    -0.1051390E-04 ( -37.15%)
   displ. norm   :     0.1031954 α      lambda       -0.3327124E-04
   maximum displ.:     0.0679735 α      in ANC's #1, #4, #14, ...

........................................................................
.............................. CYCLE   50 ..............................
........................................................................
   1    -83.7489780 -0.837490E+02  0.378E-03    1.86       0.0  T
   2    -83.7489784 -0.437308E-06  0.160E-03    1.86       9.7  T
   3    -83.7489785 -0.337785E-07  0.868E-04    1.86      17.8  T
   4    -83.7489785 -0.927869E-09  0.211E-04    1.86      73.0  T
   5    -83.7489785 -0.443151E-09  0.386E-05    1.86     399.7  T
   6    -83.7489785 -0.254659E-10  0.144E-05    1.86    1068.5  T
     SCC iter.                  ...        0 min,  0.021 sec
     gradient                   ...        0 min,  0.077 sec
 * total energy  :   -82.9716644 Eh     change       -0.2324208E-04 Eh
   gradient norm :     0.0017002 Eh/α   predicted    -0.1681392E-04 ( -27.66%)
   displ. norm   :     0.1912421 α      lambda       -0.2128558E-04
   maximum displ.:     0.1253115 α      in ANC's #1, #4, #17, ...

........................................................................
.............................. CYCLE   51 ..............................
........................................................................
   1    -83.7486604 -0.837487E+02  0.340E-03    1.85       0.0  T
   2    -83.7486609 -0.491283E-06  0.130E-03    1.85      11.8  T
   3    -83.7486609 -0.287798E-07  0.572E-04    1.85      27.0  T
   4    -83.7486609 -0.115899E-08  0.279E-04    1.85      55.2  T
   5    -83.7486609 -0.658815E-09  0.572E-05    1.85     269.8  T
   6    -83.7486609 -0.286917E-10  0.184E-05    1.85     840.3  T
     SCC iter.                  ...        0 min,  0.021 sec
     gradient                   ...        0 min,  0.077 sec
 * total energy  :   -82.9716859 Eh     change       -0.2146348E-04 Eh
   gradient norm :     0.0023381 Eh/α   predicted    -0.1081619E-04 ( -49.61%)
   displ. norm   :     0.0851038 α      lambda       -0.1360709E-04
   maximum displ.:     0.0570418 α      in ANC's #1, #4, #17, ...

........................................................................
.............................. CYCLE   52 ..............................
........................................................................
   1    -83.7483058 -0.837483E+02  0.168E-03    1.85       0.0  T
   2    -83.7483058 -0.674181E-07  0.751E-04    1.85      20.6  T
   3    -83.7483059 -0.991673E-08  0.396E-04    1.85      39.0  T
   4    -83.7483059 -0.561712E-09  0.103E-04    1.85     149.5  T
   5    -83.7483059 -0.562039E-10  0.202E-05    1.85     764.5  T
     SCC iter.                  ...        0 min,  0.017 sec
     gradient                   ...        0 min,  0.077 sec
 * total energy  :   -82.9716972 Eh     change       -0.1132786E-04 Eh
   gradient norm :     0.0016650 Eh/α   predicted    -0.6855171E-05 ( -39.48%)
   displ. norm   :     0.1773357 α      lambda       -0.2019279E-04
   maximum displ.:     0.1169108 α      in ANC's #1, #17, #23, ...

........................................................................
.............................. CYCLE   53 ..............................
........................................................................
   1    -83.7476281 -0.837476E+02  0.384E-03    1.84       0.0  T
   2    -83.7476285 -0.448931E-06  0.174E-03    1.84       8.8  T
   3    -83.7476286 -0.692098E-07  0.864E-04    1.84      17.9  T
   4    -83.7476286 -0.182229E-08  0.245E-04    1.84      62.9  T
   5    -83.7476286 -0.314188E-09  0.514E-05    1.84     299.9  T
   6    -83.7476286 -0.680558E-10  0.164E-05    1.84     942.7  T
     SCC iter.                  ...        0 min,  0.021 sec
     gradient                   ...        0 min,  0.077 sec
 * total energy  :   -82.9717141 Eh     change       -0.1686626E-04 Eh
   gradient norm :     0.0014284 Eh/α   predicted    -0.1024312E-04 ( -39.27%)
   displ. norm   :     0.0406749 α      lambda       -0.6106341E-05
   maximum displ.:     0.0268498 α      in ANC's #3, #4, #1, ...

........................................................................
.............................. CYCLE   54 ..............................
........................................................................
   1    -83.7481839 -0.837482E+02  0.123E-03    1.84       0.0  T
   2    -83.7481840 -0.272239E-07  0.603E-04    1.84      25.6  T
   3    -83.7481840 -0.249227E-08  0.337E-04    1.84      45.8  T
   4    -83.7481840 -0.363315E-09  0.643E-05    1.84     239.9  T
   5    -83.7481840 -0.359535E-10  0.165E-05    1.84     937.6  T
     SCC iter.                  ...        0 min,  0.017 sec
     gradient                   ...        0 min,  0.077 sec
 * total energy  :   -82.9717208 Eh     change       -0.6712267E-05 Eh
   gradient norm :     0.0010647 Eh/α   predicted    -0.3056898E-05 ( -54.46%)
   displ. norm   :     0.0796312 α      lambda       -0.8378008E-05
   maximum displ.:     0.0424103 α      in ANC's #1, #3, #7, ...

........................................................................
.............................. CYCLE   55 ..............................
........................................................................
   1    -83.7482545 -0.837483E+02  0.224E-03    1.84       0.0  T
   2    -83.7482547 -0.145124E-06  0.975E-04    1.84      15.8  T
   3    -83.7482547 -0.173308E-07  0.483E-04    1.84      31.9  T
   4    -83.7482547 -0.371344E-09  0.142E-04    1.84     108.7  T
   5    -83.7482547 -0.133582E-09  0.250E-05    1.84     617.4  T
     SCC iter.                  ...        0 min,  0.017 sec
     gradient                   ...        0 min,  0.077 sec
 * total energy  :   -82.9717286 Eh     change       -0.7778943E-05 Eh
   gradient norm :     0.0009396 Eh/α   predicted    -0.4204081E-05 ( -45.96%)
   displ. norm   :     0.0542372 α      lambda       -0.4554759E-05
   maximum displ.:     0.0304155 α      in ANC's #1, #3, #7, ...

........................................................................
.............................. CYCLE   56 ..............................
........................................................................
   1    -83.7482779 -0.837483E+02  0.141E-03    1.84       0.0  T
   2    -83.7482779 -0.552864E-07  0.588E-04    1.84      26.2  T
   3    -83.7482779 -0.698785E-08  0.252E-04    1.84      61.1  T
   4    -83.7482779 -0.109750E-09  0.787E-05    1.84     196.2  T
   5    -83.7482779 -0.375593E-10  0.154E-05    1.84    1003.4  T
     SCC iter.                  ...        0 min,  0.017 sec
     gradient                   ...        0 min,  0.077 sec
 * total energy  :   -82.9717333 Eh     change       -0.4668700E-05 Eh
   gradient norm :     0.0010368 Eh/α   predicted    -0.2283188E-05 ( -51.10%)
   displ. norm   :     0.0693495 α      lambda       -0.4896438E-05
   maximum displ.:     0.0405128 α      in ANC's #1, #7, #3, ...

........................................................................
.............................. CYCLE   57 ..............................
........................................................................
   1    -83.7482252 -0.837482E+02  0.179E-03    1.84       0.0  T
   2    -83.7482253 -0.139257E-06  0.557E-04    1.84      27.7  T
   3    -83.7482253 -0.412837E-08  0.248E-04    1.84      62.1  T
   4    -83.7482253 -0.111996E-09  0.125E-04    1.84     123.6  T
   5    -83.7482253 -0.904521E-10  0.176E-05    1.84     875.9  T
     SCC iter.                  ...        0 min,  0.017 sec
     gradient                   ...        0 min,  0.077 sec
 * total energy  :   -82.9717382 Eh     change       -0.4987670E-05 Eh
   gradient norm :     0.0009333 Eh/α   predicted    -0.2455442E-05 ( -50.77%)
   displ. norm   :     0.0787456 α      lambda       -0.4754140E-05
   maximum displ.:     0.0509316 α      in ANC's #1, #7, #8, ...

   *** GEOMETRY OPTIMIZATION CONVERGED AFTER 57 ITERATIONS ***

------------------------------------------------------------------------
 total energy gain   :        -0.0261474 Eh      -16.4077 kcal/mol
 total RMSD          :         1.5859223 a0        0.8392 Å
 total power (kW/mol):        -1.2043846 (step)   -8.5231 (real)
------------------------------------------------------------------------

 ANCopt (total)                0 d,  0 h,  0 min,  8.055 sec
 optimizer setup                ...        0 min,  0.001 sec (  0.009%)
 model hessian                  ...        0 min,  0.085 sec (  1.050%)
 ANC generation                 ...        0 min,  0.007 sec (  0.089%)
 coordinate transformation      ...        0 min,  0.002 sec (  0.022%)
 single point calculation       ...        0 min,  7.926 sec ( 98.409%)
 optimization log               ...        0 min,  0.018 sec (  0.228%)
 hessian update                 ...        0 min,  0.002 sec (  0.019%)
 rational function              ...        0 min,  0.008 sec (  0.105%)

================
 final structure:
================
42
 xtb: 6.5.1 (579679a)
C           -6.07598738172491        1.20641515880440        1.44741365520847
O           -4.87837918985236        0.88547106463307        0.72623033725340
C           -4.07090483760181       -0.01030498759864        1.26260004752058
O           -4.26256643932974       -0.58148779756210        2.30458026142020
C           -2.83542567500028       -0.23135396015818        0.41382723718651
N           -1.71995622926264       -0.35798564648448        1.02091977427368
C           -0.56633630555925       -0.50476377168798        0.23394535392438
C            0.71589804673810       -0.23487060134726        0.97073668155054
C            0.86590058899689       -1.28136308723511        2.08700288150909
C            0.66225981840896        1.18613871137008        1.55270078342231
N            1.80895107352755       -0.35039825266007        0.01531852294341
C            3.10247906710770       -0.15553704889939        0.33779376622564
O            3.52250735481137        0.09746108152266        1.45356670200058
C            3.97342256000937       -0.29176401787703       -0.85810079426697
N            3.58207723871402       -0.56853184354270       -2.06563086324519
N            4.69815609154625       -0.58574976122872       -2.84609148115299
C            5.70041775527973       -0.31705985692512       -2.06436605121610
C            7.12959400590350       -0.22046336468495       -2.43337149533661
O            5.30720324231509       -0.12305372833718       -0.79755923126298
N           -0.56726733508243       -0.88110419975813       -0.98792012358820
C           -1.79295766880840       -1.10147860379608       -1.62727442938279
O           -1.93786676127343       -1.87756688014480       -2.53455496767559
C           -2.93257364984701       -0.23590436492751       -1.09840772316165
C           -2.73104177450997        1.21882462702876       -1.58767917970851
O           -4.16185842816208       -0.73892864238005       -1.53164255934621
H           -5.82544825916505        1.80223568654398        2.32748436520059
H           -6.58258899383082        0.28980281616623        1.75693512319237
H           -6.70154042575438        1.78053178418198        0.76759522729218
H            0.95895926993440       -2.27587626476909        1.65330358299030
H            1.75363599158976       -1.06205750889430        2.67687187169676
H           -0.01091847088495       -1.24926639759214        2.73142138698940
H            1.55813623539700        1.37934388705065        2.13943469579401
H            0.59809784276856        1.91418424388763        0.74598411537771
H           -0.21409176180453        1.28140785887796        2.19139614266135
H            1.56078190292211       -0.54584626776533       -0.94719843958892
H            7.51819916957514        0.76209114525604       -2.16780463720455
H            7.24148116348977       -0.38049108853091       -3.50256566787142
H            7.70618503645894       -0.96897409462589       -1.89008318452494
H           -3.53352979902305        1.83724412054688       -1.19247187161421
H           -1.77026638578188        1.60241348886598       -1.25298566677112
H           -2.77378024829317        1.22751179167932       -2.67461609393804
H           -4.01905543493238       -1.33889542702719       -2.28178105478652
 
 Bond Distances (Angstroems)
 ---------------------------
C1-O2=1.4344         C1-H26=1.0919        C1-H27=1.0921        C1-H28=1.0877        O2-C1=1.4344         O2-C3=1.3199         
C3-O2=1.3199         C3-O4=1.2036         C3-C5=1.5152         O4-C3=1.2036         C5-C3=1.5152         C5-N6=1.2763         
C5-C23=1.5154        N6-C5=1.2763         N6-C7=1.4042         C7-N6=1.4042         C7-C8=1.5033         C7-N20=1.2785        
C8-C7=1.5033         C8-C9=1.5374         C8-C10=1.5365        C8-N11=1.4563        C9-C8=1.5374         C9-H29=1.0889        
C9-H30=1.0882        C9-H31=1.0886        C10-C8=1.5365        C10-H32=1.0882       C10-H33=1.0886       C10-H34=1.0886       
N11-C8=1.4563        N11-C12=1.3473       N11-H35=1.0130       C12-N11=1.3473       C12-O13=1.2188       C12-C14=1.4857       
O13-C12=1.2188       C14-C12=1.4857       C14-N15=1.2992       C14-O19=1.3458       N15-C14=1.2992       N15-N16=1.3620       
N16-N15=1.3620       N16-C17=1.2992       C17-N16=1.2992       C17-C18=1.4792       C17-O19=1.3405       C18-C17=1.4792       
C18-H36=1.0895       C18-H37=1.0869       C18-H38=1.0899       O19-C14=1.3458       O19-C17=1.3405       N20-C7=1.2785        
N20-C21=1.3999       C21-N20=1.3999       C21-O22=1.2027       C21-C23=1.5257       O22-C21=1.2027       C23-C5=1.5154        
C23-C21=1.5257       C23-C24=1.5480       C23-O25=1.3971       C24-C23=1.5480       C24-H39=1.0875       C24-H40=1.0873       
C24-H41=1.0878       O25-C23=1.3971       O25-H42=0.9711       H26-C1=1.0919        H27-C1=1.0921        H28-C1=1.0877        
H29-C9=1.0889        H30-C9=1.0882        H31-C9=1.0886        H32-C10=1.0882       H33-C10=1.0886       H34-C10=1.0886       
H35-N11=1.0130       H36-C18=1.0895       H37-C18=1.0869       H38-C18=1.0899       H39-C24=1.0875       H40-C24=1.0873       
H41-C24=1.0878       H42-O25=0.9711       
 C  H  Rav=1.0888 sigma=0.0015  Rmin=1.0869  Rmax=1.0921    15
 C  C  Rav=1.5162 sigma=0.0222  Rmin=1.4792  Rmax=1.5480     9
 N  H  Rav=1.0130 sigma=0.0000  Rmin=1.0130  Rmax=1.0130     1
 N  C  Rav=1.3451 sigma=0.0635  Rmin=1.2763  Rmax=1.4563     8
 N  N  Rav=1.3620 sigma=0.0000  Rmin=1.3620  Rmax=1.3620     1
 O  H  Rav=0.9711 sigma=0.0000  Rmin=0.9711  Rmax=0.9711     1
 O  C  Rav=1.3078 sigma=0.0840  Rmin=1.2027  Rmax=1.4344     8
 
 selected bond angles (degree)
 --------------------
H26-C1-O2=109.62               H27-C1-O2=110.00               H27-C1-H26=109.63              H28-C1-O2=106.50               
H28-C1-H26=110.35              H28-C1-H27=110.69              C3-O2-C1=117.28                O4-C3-O2=125.20                
C5-C3-O2=111.73                C5-C3-O4=123.06                N6-C5-C3=117.43                C23-C5-C3=120.48               
C23-C5-N6=122.03               C7-N6-C5=117.51                C8-C7-N6=114.04                N20-C7-N6=124.46               
N20-C7-C8=121.46               C9-C8-C7=108.47                C10-C8-C7=108.78               C10-C8-C9=110.97               
N11-C8-C7=107.72               N11-C8-C9=110.43               N11-C8-C10=110.37              H29-C9-C8=109.93               
H30-C9-C8=109.63               H30-C9-H29=109.28              H31-C9-C8=109.34               H31-C9-H29=109.36              
H31-C9-H30=109.28              H32-C10-C8=109.86              H33-C10-C8=109.87              H33-C10-H32=109.23             
H34-C10-C8=109.35              H34-C10-H32=109.32             H34-C10-H33=109.20             
 
 selected dihedral angles (degree)
 ---------------------------------
C3-O2-C1-H26= 72.52           C3-O2-C1-H27=311.90           C3-O2-C1-H28=191.90           O4-C3-O2-C1=  0.30            
C5-C3-O2-C1=181.20            N6-C5-C3-O2=139.27            N6-C5-C3-O4=320.15            C23-C5-C3-O2=321.96           
C23-C5-C3-O4=142.83           C7-N6-C5-C3=182.70            C7-N6-C5-C23=359.97           C8-C7-N6-C5=162.53            
N20-C7-N6-C5=340.02           C9-C8-C7-N6= 63.64            C9-C8-C7-N20=246.07           C10-C8-C7-N6=302.83           
C10-C8-C7-N20=125.26          N11-C8-C7-N6=183.18           N11-C8-C7-N20=  5.61          H29-C9-C8-C7= 63.76           
H29-C9-C8-C10=183.20          H29-C9-C8-N11=305.92          H30-C9-C8-C7=183.91           H30-C9-C8-C10=303.35          
H30-C9-C8-N11= 66.07          H31-C9-C8-C7=303.70           H31-C9-C8-C10= 63.14          H31-C9-C8-N11=185.86          
H32-C10-C8-C7=176.71          H32-C10-C8-C9= 57.45          H32-C10-C8-N11=294.69         H33-C10-C8-C7=296.90          
H33-C10-C8-C9=177.64          H33-C10-C8-N11= 54.88         H34-C10-C8-C7= 56.73          H34-C10-C8-C9=297.47          
H34-C10-C8-N11=174.71         
           -------------------------------------------------
          |                Final Singlepoint                |
           -------------------------------------------------

          ...................................................
          :                      SETUP                      :
          :.................................................:
          :  # basis functions                 134          :
          :  # atomic orbitals                 134          :
          :  # shells                           84          :
          :  # electrons                       134          :
          :  # halogen bonds                     0          :
          :  max. iterations                   250          :
          :  Hamiltonian                  GFN1-xTB          :
          :  restarted?                      false          :
          :  GBSA solvation                   true          :
          :  PC potential                    false          :
          :  electronic temp.          300.0000000     K    :
          :  accuracy                    1.0000000          :
          :  -> integral cutoff          0.2500000E+02      :
          :  -> integral neglect         0.1000000E-07      :
          :  -> SCF convergence          0.1000000E-05 Eh   :
          :  -> wf. convergence          0.2000000E-04 e    :
          :  Broyden damping             0.4000000          :
          ...................................................

 iter      E             dE          RMSdq      gap      omega  full diag
   1    -83.7482253 -0.837482E+02  0.543E-06    1.84       0.0  T
   2    -83.7482253 -0.454747E-12  0.280E-06    1.84    5508.9  T
   3    -83.7482253 -0.426326E-13  0.134E-06    1.84   11491.7  T

   *** convergence criteria satisfied after 3 iterations ***

         #    Occupation            Energy/Eh            Energy/eV
      -------------------------------------------------------------
         1        2.0000           -0.8648490             -23.5337
       ...           ...                  ...                  ...
        61        2.0000           -0.4838542             -13.1663
        62        2.0000           -0.4672845             -12.7155
        63        2.0000           -0.4626029             -12.5881
        64        2.0000           -0.4621914             -12.5769
        65        2.0000           -0.4535473             -12.3417
        66        2.0000           -0.4491162             -12.2211
        67        2.0000           -0.4391310             -11.9494 (HOMO)
        68                         -0.3714450             -10.1075 (LUMO)
        69                         -0.3117980              -8.4845
        70                         -0.3095101              -8.4222
        71                         -0.2579909              -7.0203
        72                         -0.2560628              -6.9678
       ...                                ...                  ...
       134                          0.7241815              19.7060
      -------------------------------------------------------------
                  HL-Gap            0.0676860 Eh            1.8418 eV
             Fermi-level           -0.4052880 Eh          -11.0284 eV

 SCC (total)                   0 d,  0 h,  0 min,  0.125 sec
 SCC setup                      ...        0 min,  0.002 sec (  1.420%)
 Dispersion                     ...        0 min,  0.000 sec (  0.256%)
 classical contributions        ...        0 min,  0.000 sec (  0.085%)
 integral evaluation            ...        0 min,  0.032 sec ( 25.746%)
 iterations                     ...        0 min,  0.011 sec (  8.621%)
 molecular gradient             ...        0 min,  0.079 sec ( 63.152%)
 printout                       ...        0 min,  0.001 sec (  0.691%)

         :::::::::::::::::::::::::::::::::::::::::::::::::::::
         ::                     SUMMARY                     ::
         :::::::::::::::::::::::::::::::::::::::::::::::::::::
         :: total energy             -82.971738239761 Eh    ::
         :: total w/o Gsasa/hb       -82.948622957218 Eh    ::
         :: gradient norm              0.000933746600 Eh/a0 ::
         :: HOMO-LUMO gap              1.841831141218 eV    ::
         ::.................................................::
         :: SCC energy               -83.748225325525 Eh    ::
         :: -> electrostatic           0.348309642632 Eh    ::
         :: -> Gsolv                  -0.048835859290 Eh    ::
         ::    -> Gelec               -0.025720576747 Eh    ::
         ::    -> Gsasa               -0.024200366325 Eh    ::
         ::    -> Ghb                 -0.006539195223 Eh    ::
         ::    -> Gshift               0.007624279005 Eh    ::
         :: repulsion energy           0.802516683017 Eh    ::
         :: dispersion energy         -0.026029597253 Eh    ::
         :: halogen bond corr.         0.000000000000 Eh    ::
         :: add. restraining           0.000000000000 Eh    ::
         :: total charge               0.000000000000 e     ::
         :::::::::::::::::::::::::::::::::::::::::::::::::::::

           -------------------------------------------------
          |                Property Printout                |
           -------------------------------------------------

    * Orbital Energies and Occupations

         #    Occupation            Energy/Eh            Energy/eV
      -------------------------------------------------------------
         1        2.0000           -0.8648490             -23.5337
       ...           ...                  ...                  ...
        55        2.0000           -0.5093108             -13.8591
        56        2.0000           -0.5073935             -13.8069
        57        2.0000           -0.5069348             -13.7944
        58        2.0000           -0.5013130             -13.6414
        59        2.0000           -0.4978702             -13.5477
        60        2.0000           -0.4899210             -13.3314
        61        2.0000           -0.4838542             -13.1663
        62        2.0000           -0.4672845             -12.7155
        63        2.0000           -0.4626029             -12.5881
        64        2.0000           -0.4621914             -12.5769
        65        2.0000           -0.4535473             -12.3417
        66        2.0000           -0.4491162             -12.2211
        67        2.0000           -0.4391310             -11.9494 (HOMO)
        68                         -0.3714450             -10.1075 (LUMO)
        69                         -0.3117980              -8.4845
        70                         -0.3095101              -8.4222
        71                         -0.2579909              -7.0203
        72                         -0.2560628              -6.9678
        73                         -0.2420898              -6.5876
        74                         -0.1996072              -5.4316
        75                         -0.1444445              -3.9305
        76                         -0.1430632              -3.8929
        77                         -0.1352199              -3.6795
        78                         -0.1259895              -3.4283
       ...                                ...                  ...
       134                          0.7241815              19.7060
      -------------------------------------------------------------
                  HL-Gap            0.0676860 Eh            1.8418 eV
             Fermi-level           -0.4052880 Eh          -11.0284 eV

  Mulliken/CM5 charges         n(s)   n(p)   n(d)
     1C     0.16087  0.03962   0.984  2.855  0.000
     2O    -0.39548 -0.48387   1.683  4.713  0.000
     3C     0.59159  0.66000   0.963  2.445  0.000
     4O    -0.53433 -0.57887   1.721  4.813  0.000
     5C     0.18732  0.28087   1.096  2.717  0.000
     6N    -0.33042 -0.51634   1.546  3.784  0.000
     7C     0.32342  0.47392   1.050  2.627  0.000
     8C     0.15877  0.20151   1.060  2.782  0.000
     9C    -0.09790 -0.23670   1.020  3.078  0.000
    10C    -0.10163 -0.24042   1.021  3.081  0.000
    11N    -0.34170 -0.69067   1.428  3.913  0.000
    12C     0.46964  0.57899   0.974  2.556  0.000
    13O    -0.57153 -0.61707   1.725  4.846  0.000
    14C     0.33273  0.45851   1.007  2.660  0.000
    15N    -0.24193 -0.35220   1.568  3.674  0.000
    16N    -0.26423 -0.37166   1.564  3.700  0.000
    17C     0.38884  0.49724   1.008  2.604  0.000
    18C    -0.11135 -0.24882   1.012  3.100  0.000
    19O    -0.33827 -0.38980   1.691  4.647  0.000
    20N    -0.37536 -0.55990   1.536  3.839  0.000
    21C     0.48797  0.58985   1.023  2.489  0.000
    22O    -0.50490 -0.55055   1.726  4.779  0.000
    23C     0.20939  0.22882   1.037  2.753  0.000
    24C    -0.09846 -0.23915   1.026  3.072  0.000
    25O    -0.57940 -0.77639   1.698  4.882  0.000
    26H     0.05987  0.12046   0.940  0.000  0.000
    27H     0.06204  0.12474   0.938  0.000  0.000
    28H     0.06388  0.12423   0.936  0.000  0.000
    29H     0.04919  0.10611   0.951  0.000  0.000
    30H     0.06612  0.12599   0.934  0.000  0.000
    31H     0.04972  0.10751   0.950  0.000  0.000
    32H     0.06752  0.12742   0.932  0.000  0.000
    33H     0.04764  0.10466   0.952  0.000  0.000
    34H     0.04981  0.10827   0.950  0.000  0.000
    35H     0.25215  0.46632   0.748  0.000  0.000
    36H     0.07913  0.13368   0.921  0.000  0.000
    37H     0.06955  0.12545   0.930  0.000  0.000
    38H     0.07925  0.13370   0.921  0.000  0.000
    39H     0.06783  0.12707   0.932  0.000  0.000
    40H     0.04985  0.10824   0.950  0.000  0.000
    41H     0.07045  0.12658   0.930  0.000  0.000
    42H     0.39237  0.57266   0.608  0.000  0.000

Wiberg/Mayer (AO) data.
largest (>0.10) Wiberg bond orders for each atom

 ---------------------------------------------------------------------------
     #   Z sym  total        # sym  WBO       # sym  WBO       # sym  WBO
 ---------------------------------------------------------------------------
     1   6 C    3.856 --    28 H    0.984    27 H    0.979    26 H    0.978
                             2 O    0.881
     2   8 O    2.234 --     3 C    1.147     1 C    0.881     4 O    0.148
     3   6 C    3.852 --     4 O    1.690     2 O    1.147     5 C    0.940
     4   8 O    1.954 --     3 C    1.690     2 O    0.148
     5   6 C    3.933 --     6 N    1.771    23 C    0.959     3 C    0.940
     6   7 N    3.050 --     5 C    1.771     7 C    1.059
     7   6 C    3.923 --    20 N    1.693     6 N    1.059     8 C    0.998
     8   6 C    3.940 --     7 C    0.998    10 C    0.968     9 C    0.964
                            11 N    0.937
     9   6 C    3.985 --    29 H    0.985    31 H    0.984    30 H    0.978
                             8 C    0.964
    10   6 C    3.985 --    33 H    0.985    34 H    0.983    32 H    0.978
                             8 C    0.968
    11   7 N    3.349 --    12 C    1.255     8 C    0.937    35 H    0.881
                            13 O    0.177
    12   6 C    3.917 --    13 O    1.591    11 N    1.255    14 C    0.989
    13   8 O    1.908 --    12 C    1.591    11 N    0.177
    14   6 C    3.875 --    15 N    1.611    19 O    1.063    12 C    0.989
    15   7 N    3.015 --    14 C    1.611    16 N    1.201
    16   7 N    2.980 --    17 C    1.604    15 N    1.201
    17   6 C    3.871 --    16 N    1.604    19 O    1.084    18 C    1.031
    18   6 C    3.986 --    17 C    1.031    37 H    0.983    36 H    0.964
                            38 H    0.962
    19   8 O    2.330 --    17 C    1.084    14 C    1.063
    20   7 N    3.089 --     7 C    1.693    21 C    1.063
    21   6 C    3.865 --    22 O    1.742    20 N    1.063    23 C    0.935
    22   8 O    1.994 --    21 C    1.742
    23   6 C    3.932 --    25 O    0.982     5 C    0.959    21 C    0.935
                            24 C    0.921
    24   6 C    3.983 --    40 H    0.986    39 H    0.980    41 H    0.979
                            23 C    0.921
    25   8 O    1.900 --    23 C    0.982    42 H    0.827
    26   1 H    1.003 --     1 C    0.978
    27   1 H    1.005 --     1 C    0.979
    28   1 H    1.008 --     1 C    0.984
    29   1 H    1.001 --     9 C    0.985
    30   1 H    1.008 --     9 C    0.978
    31   1 H    1.006 --     9 C    0.984
    32   1 H    1.007 --    10 C    0.978
    33   1 H    1.001 --    10 C    0.985
    34   1 H    1.006 --    10 C    0.983
    35   1 H    0.963 --    11 N    0.881
    36   1 H    0.996 --    18 C    0.964
    37   1 H    0.998 --    18 C    0.983
    38   1 H    0.997 --    18 C    0.962
    39   1 H    1.008 --    24 C    0.980
    40   1 H    1.000 --    24 C    0.986
    41   1 H    0.999 --    24 C    0.979
    42   1 H    0.859 --    25 O    0.827
 ---------------------------------------------------------------------------

Topologies differ in total number of bonds
Writing topology from bond orders to xtbtopo.mol

 dipole moment from electron density (au)
     X       Y       Z   
  -0.2588   1.9790  -0.6957  total (Debye):    5.372

           -------------------------------------------------
          |                Geometry Summary                 |
           -------------------------------------------------

      molecular mass/u    :      351.3152409
   center of mass at/Å    :        0.0509558      -0.2317813      -0.2546812
  moments of inertia/u·Å² :        0.9438237E+03   0.5220032E+04   0.5786690E+04
rotational constants/cm⁻¹ :        0.1786100E-01   0.3229411E-02   0.2913174E-02

 * 34 selected distances

     #   Z          #   Z                                           value/Å
     1   6 C        2   8 O                                       1.4343557
     2   8 O        3   6 C                                       1.3198948
     3   6 C        4   8 O                                       1.2036225
     5   6 C        6   7 N                                       1.2762716
     8   6 C        9   6 C                                       1.5374323 (max)
     8   6 C       10   6 C                                       1.5364984
     8   6 C       11   7 N                                       1.4563433
    11   7 N       12   6 C                                       1.3472847
    12   6 C       13   8 O                                       1.2187622
    14   6 C       15   7 N                                       1.2991847
    16   7 N       17   6 C                                       1.2991604
    17   6 C       18   6 C                                       1.4792028
    14   6 C       19   8 O                                       1.3457710
    17   6 C       19   8 O                                       1.3405431
     7   6 C       20   7 N                                       1.2785103
    21   6 C       22   8 O                                       1.2026928
    23   6 C       25   8 O                                       1.3970924
     1   6 C       26   1 H                                       1.0919234
     1   6 C       27   1 H                                       1.0920747
     1   6 C       28   1 H                                       1.0876947
     9   6 C       29   1 H                                       1.0889498
     9   6 C       30   1 H                                       1.0881704
     9   6 C       31   1 H                                       1.0886309
    10   6 C       32   1 H                                       1.0882002
    10   6 C       33   1 H                                       1.0885582
    10   6 C       34   1 H                                       1.0885772
    11   7 N       35   1 H                                       1.0130286
    18   6 C       36   1 H                                       1.0894739
    18   6 C       37   1 H                                       1.0868781
    18   6 C       38   1 H                                       1.0899027
    24   6 C       39   1 H                                       1.0874828
    24   6 C       40   1 H                                       1.0873131
    24   6 C       41   1 H                                       1.0878116
    25   8 O       42   1 H                                       0.9711132 (min)

 * 6 distinct bonds (by element types)

   Z      Z             #   av. dist./Å        max./Å        min./Å
   1 H    6 C          15     1.0887761     1.0920747     1.0868781
   6 C    6 C           3     1.5177112     1.5374323     1.4792028
   1 H    7 N           1     1.0130286     1.0130286     1.0130286
   6 C    7 N           6     1.3261258     1.4563433     1.2762716
   1 H    8 O           1     0.9711132     0.9711132     0.9711132
   6 C    8 O           8     1.3078418     1.4343557     1.2026928


optimized geometry written to: xtbopt.xyz


           -------------------------------------------------
          | TOTAL ENERGY              -82.971738239761 Eh   |
          | GRADIENT NORM               0.000933746600 Eh/α |
          | HOMO-LUMO GAP               1.841831141218 eV   |
           -------------------------------------------------

------------------------------------------------------------------------
 * finished run on 2023/06/20 at 18:27:04.836     
------------------------------------------------------------------------
 total:
 * wall-time:     0 d,  0 h,  0 min,  8.426 sec
 *  cpu-time:     0 d,  0 h,  0 min,  8.325 sec
 * ratio c/w:     0.988 speedup
 SCF:
 * wall-time:     0 d,  0 h,  0 min,  0.161 sec
 *  cpu-time:     0 d,  0 h,  0 min,  0.160 sec
 * ratio c/w:     0.997 speedup
 ANC optimizer:
 * wall-time:     0 d,  0 h,  0 min,  8.188 sec
 *  cpu-time:     0 d,  0 h,  0 min,  8.128 sec
 * ratio c/w:     0.993 speedup

