      -----------------------------------------------------------      
     |                   =====================                   |     
     |                           x T B                           |     
     |                   =====================                   |     
     |                         S. Grimme                         |     
     |          Mulliken Center for Theoretical Chemistry        |     
     |                    University of Bonn                     |     
      -----------------------------------------------------------      

   * xtb version 6.5.1 (579679a) compiled by 'ehlert@majestix' on 2022-07-11

   xtb is free software: you can redistribute it and/or modify it under
   the terms of the GNU Lesser General Public License as published by
   the Free Software Foundation, either version 3 of the License, or
   (at your option) any later version.
   
   xtb is distributed in the hope that it will be useful,
   but WITHOUT ANY WARRANTY; without even the implied warranty of
   MERCHANTABILITY or FITNESS FOR A PARTICULAR PURPOSE.  See the
   GNU Lesser General Public License for more details.
   
   Cite this work as:
   * C. Bannwarth, E. Caldeweyher, S. Ehlert, A. Hansen, P. Pracht,
     J. Seibert, S. Spicher, S. Grimme, WIREs Comput. Mol. Sci., 2020, 11,
     e01493. DOI: 10.1002/wcms.1493
   
   for GFN2-xTB:
   * C. Bannwarth, S. Ehlert and S. Grimme., J. Chem. Theory Comput., 2019,
     15, 1652-1671. DOI: 10.1021/acs.jctc.8b01176
   for GFN1-xTB:
   * S. Grimme, C. Bannwarth, P. Shushkov, J. Chem. Theory Comput., 2017,
     13, 1989-2009. DOI: 10.1021/acs.jctc.7b00118
   for GFN0-xTB:
   * P. Pracht, E. Caldeweyher, S. Ehlert, S. Grimme, ChemRxiv, 2019, preprint.
     DOI: 10.26434/chemrxiv.8326202.v1
   for GFN-FF:
   * S. Spicher and S. Grimme, Angew. Chem. Int. Ed., 2020, 59, 15665-15673.
     DOI: 10.1002/anie.202004239
   
   for ALPB and GBSA implicit solvation:
   * S. Ehlert, M. Stahn, S. Spicher, S. Grimme, J. Chem. Theory Comput.,
     2021, 17, 4250-4261. DOI: 10.1021/acs.jctc.1c00471
   
   for DFT-D4:
   * E. Caldeweyher, C. Bannwarth and S. Grimme, J. Chem. Phys., 2017,
     147, 034112. DOI: 10.1063/1.4993215
   * E. Caldeweyher, S. Ehlert, A. Hansen, H. Neugebauer, S. Spicher,
     C. Bannwarth and S. Grimme, J. Chem. Phys., 2019, 150, 154122.
     DOI: 10.1063/1.5090222
   * E. Caldeweyher, J.-M. Mewes, S. Ehlert and S. Grimme, Phys. Chem. Chem. Phys.
     2020, 22, 8499-8512. DOI: 10.1039/D0CP00502A
   
   for sTDA-xTB:
   * S. Grimme and C. Bannwarth, J. Chem. Phys., 2016, 145, 054103.
     DOI: 10.1063/1.4959605
   
   in the mass-spec context:
   * V. Asgeirsson, C. Bauer and S. Grimme, Chem. Sci., 2017, 8, 4879.
     DOI: 10.1039/c7sc00601b
   * J. Koopman and S. Grimme, ACS Omega 2019, 4, 12, 15120-15133.
     DOI: 10.1021/acsomega.9b02011
   
   for metadynamics refer to:
   * S. Grimme, J. Chem. Theory Comput., 2019, 155, 2847-2862
     DOI: 10.1021/acs.jctc.9b00143
   
   for SPH calculations refer to:
   * S. Spicher and S. Grimme, J. Chem. Theory Comput., 2021, 17, 1701-1714
     DOI: 10.1021/acs.jctc.0c01306
   
   with help from (in alphabetical order)
   P. Atkinson, C. Bannwarth, F. Bohle, G. Brandenburg, E. Caldeweyher
   M. Checinski, S. Dohm, S. Ehlert, S. Ehrlich, I. Gerasimov, C. Hölzer
   A. Katbashev, J. Koopman, C. Lavigne, S. Lehtola, F. März, M. Müller,
   F. Musil, H. Neugebauer, J. Pisarek, C. Plett, P. Pracht, F. Pultar,
   J. Seibert, P. Shushkov, S. Spicher, M. Stahn, M. Steiner, T. Strunk,
   J. Stückrath, T. Rose, and J. Unsleber
   
 * started run on 2023/06/21 at 17:10:19.109     

           -------------------------------------------------
          |                Calculation Setup                |
           -------------------------------------------------

          program call               : /lustre/hpc/kemi/ree/PhD/git/ReactivityQM/dep/xtb-6.5.1/bin/xtb --gfn 1 /lustre/hpc/kemi/ree/PhD/git/ReactivityQM/calculations/R02methylcation/reac01prodE04/conf05/R02methylcation_reac01prodE04_conf05_gfn1.xyz --opt --vfukui --chrg -2 --uhf 0 --alpb DMSO
          hostname                   : node317
          coordinate file            : /lustre/hpc/kemi/ree/PhD/git/ReactivityQM/calculations/R02methylcation/reac01prodE04/conf05/R02methylcation_reac01prodE04_conf05_gfn1.xyz
          omp threads                :                     1

   ID    Z sym.   atoms
    1    6 C      1, 3, 5, 6, 8-11, 13, 15, 18, 19, 22, 24
    2    8 O      2, 4, 14, 20, 23, 25
    3    7 N      7, 12, 16, 17, 21
    4    1 H      26-42

           -------------------------------------------------
          |                 G F N 1 - x T B                 |
           -------------------------------------------------

        Reference                      10.1021/acs.jctc.7b00118
      * Hamiltonian:
        H0-scaling (s, p, d)           1.850000    2.250000    2.000000
        zeta-weighting                 0.000000
      * Dispersion:
        s8                             2.400000
        a1                             0.630000
        a2                             5.000000
        s9                             0.000000
      * Repulsion:
        kExp                           1.500000
        rExp                           1.000000
      * Coulomb:
        alpha                          2.000000
        third order                    atomic
        anisotropic                    false
      * Halogen bond correction:
        rad-scale                      1.300000
        damping                        0.440000

      * Solvation model:               ALPB
        Solvent                        DMSO
        Parameter file                 internal GFN1-xTB/ALPB
        Dielectric constant                4.6680E+01
        Reference state                gsolv [1 M gas/solution]
        Free energy shift                  7.6243E-03 Eh       4.7843E+00 kcal/mol
        Temperature                        2.9815E+02 K
        Density                            1.1000E+00 kg/L
        Solvent mass                       7.8130E+01 g/mol
        Interaction kernel             P16
        Born radius scaling (c1)           1.7672E+00
        Born radii integrator          GBOBC
        Born offset                        0.0000E+00 a0       0.0000E+00 AA
        H-bond correction              true
        Ion screening                  false
        Surface tension                    1.0000E-05 Eh       1.5569E+01 dyn/cm
        Grid points                               230 per atom

          ...................................................
          :                      SETUP                      :
          :.................................................:
          :  # basis functions                 134          :
          :  # atomic orbitals                 134          :
          :  # shells                           84          :
          :  # electrons                       136          :
          :  # halogen bonds                     0          :
          :  max. iterations                   250          :
          :  Hamiltonian                  GFN1-xTB          :
          :  restarted?                      false          :
          :  GBSA solvation                   true          :
          :  PC potential                    false          :
          :  electronic temp.          300.0000000     K    :
          :  accuracy                    1.0000000          :
          :  -> integral cutoff          0.2500000E+02      :
          :  -> integral neglect         0.1000000E-07      :
          :  -> SCF convergence          0.1000000E-05 Eh   :
          :  -> wf. convergence          0.2000000E-04 e    :
          :  Broyden damping             0.4000000          :
          ...................................................

 iter      E             dE          RMSdq      gap      omega  full diag
   1    -83.9496649 -0.839497E+02  0.870E+00    0.68       0.0  T
   2    -84.0455229 -0.958579E-01  0.544E+00    1.28       1.0  T
   3    -83.9779586  0.675643E-01  0.307E+00    1.17       1.0  T
   4    -84.2178246 -0.239866E+00  0.119E+00    0.68       1.0  T
   5    -84.2505664 -0.327418E-01  0.776E-01    0.20       1.0  T
   6    -84.1191225  0.131444E+00  0.126E+00    0.69       1.0  T
   7    -84.2466434 -0.127521E+00  0.787E-01    0.46       1.0  T
   8    -84.2200350  0.266084E-01  0.832E-01    0.09       1.0  T
   9    -84.2588504 -0.388154E-01  0.688E-01    0.22       1.0  T
  10    -84.3247249 -0.658746E-01  0.494E-02    0.02       1.0  T
  11    -84.3240558  0.669158E-03  0.783E-02    0.02       1.0  T
  12    -84.3197729  0.428289E-02  0.188E-01    0.05       1.0  T
  13    -84.3242197 -0.444681E-02  0.720E-02    0.02       1.0  T
  14    -84.3247762 -0.556551E-03  0.385E-02    0.03       1.0  T
  15    -84.3249439 -0.167632E-03  0.186E-02    0.02       1.0  T
  16    -84.3249955 -0.516695E-04  0.135E-03    0.03      11.4  T
  17    -84.3249947  0.847907E-06  0.271E-03    0.03       5.7  T
  18    -84.3249958 -0.110199E-05  0.216E-05    0.03     714.1  T
  19    -84.3249958  0.392131E-08  0.164E-04    0.03      94.2  T
  20    -84.3249958 -0.393534E-08  0.170E-05    0.03     907.1  T

   *** convergence criteria satisfied after 20 iterations ***

         #    Occupation            Energy/Eh            Energy/eV
      -------------------------------------------------------------
         1        2.0000           -0.8061597             -21.9367
       ...           ...                  ...                  ...
        62        2.0000           -0.3887926             -10.5796
        63        2.0000           -0.3822520             -10.4016
        64        2.0000           -0.3796015             -10.3295
        65        2.0000           -0.3770126             -10.2590
        66        2.0000           -0.3747399             -10.1972
        67        2.0000           -0.3418921              -9.3034
        68        1.2561           -0.2476375              -6.7386 (HOMO)
        69        0.7439           -0.2466422              -6.7115 (LUMO)
        70        0.0000           -0.2356666              -6.4128
        71                         -0.2013892              -5.4801
        72                         -0.1997622              -5.4358
        73                         -0.1290635              -3.5120
       ...                                ...                  ...
       134                          0.8553289              23.2747
      -------------------------------------------------------------
                  HL-Gap            0.0009953 Eh            0.0271 eV
             Fermi-level           -0.2471398 Eh           -6.7250 eV

 SCC (total)                   0 d,  0 h,  0 min,  0.212 sec
 SCC setup                      ...        0 min,  0.002 sec (  0.997%)
 Dispersion                     ...        0 min,  0.000 sec (  0.196%)
 classical contributions        ...        0 min,  0.000 sec (  0.061%)
 integral evaluation            ...        0 min,  0.056 sec ( 26.309%)
 iterations                     ...        0 min,  0.071 sec ( 33.590%)
 molecular gradient             ...        0 min,  0.081 sec ( 38.268%)
 printout                       ...        0 min,  0.001 sec (  0.556%)

         :::::::::::::::::::::::::::::::::::::::::::::::::::::
         ::                     SUMMARY                     ::
         :::::::::::::::::::::::::::::::::::::::::::::::::::::
         :: total energy             -83.580682229809 Eh    ::
         :: total w/o Gsasa/hb       -83.561478165507 Eh    ::
         :: gradient norm              0.213683868435 Eh/a0 ::
         :: HOMO-LUMO gap              0.027083439963 eV    ::
         ::.................................................::
         :: SCC energy               -84.324995794747 Eh    ::
         :: -> electrostatic           0.668576594438 Eh    ::
         :: -> Gsolv                  -0.263643636837 Eh    ::
         ::    -> Gelec               -0.244439572535 Eh    ::
         ::    -> Gsasa               -0.024141587275 Eh    ::
         ::    -> Ghb                 -0.002686756031 Eh    ::
         ::    -> Gshift               0.007624279005 Eh    ::
         :: repulsion energy           0.770412942403 Eh    ::
         :: dispersion energy         -0.026099377465 Eh    ::
         :: halogen bond corr.         0.000000000000 Eh    ::
         :: add. restraining           0.000000000000 Eh    ::
         :: total charge              -2.000000000000 e     ::
         :::::::::::::::::::::::::::::::::::::::::::::::::::::

      ----------------------------------------------------------- 
     |                   =====================                   |
     |                        A N C O P T                        |
     |                   =====================                   |
     |               Approximate Normal Coordinate               |
     |                Rational Function Optimizer                |
      ----------------------------------------------------------- 

          ...................................................
          :                      SETUP                      :
          :.................................................:
          :   optimization level            normal          :
          :   max. optcycles                   200          :
          :   ANC micro-cycles                  20          :
          :   degrees of freedom               120          :
          :.................................................:
          :   RF solver                   davidson          :
          :   write xtbopt.log                true          :
          :   linear?                        false          :
          :   energy convergence         0.5000000E-05 Eh   :
          :   grad. convergence          0.1000000E-02 Eh/α :
          :   maximium RF displ.         1.0000000          :
          :   Hlow (freq-cutoff)         0.1000000E-01      :
          :   Hmax (freq-cutoff)         5.0000000          :
          :   S6 in model hess.         20.0000000          :
          ...................................................

generating ANC from model Hessian ...
Using Lindh-Hessian (1995)
 Shifting diagonal of input Hessian by   9.821456552114768E-003
 Lowest  eigenvalues of input Hessian
    0.000000    0.000000    0.000000    0.000000    0.000000    0.000000
    0.010000    0.010136    0.010439    0.010783    0.011432    0.012576
    0.012905    0.013978    0.014409    0.016093    0.016409    0.016693
 Highest eigenvalues
    2.083693    2.088454    2.210411    2.239519    2.297025    2.364583
 

........................................................................
.............................. CYCLE    1 ..............................
........................................................................
   1    -84.3249958 -0.843250E+02  0.185E-05    0.03       0.0  T
   2    -84.3249958  0.255496E-07  0.414E-04    0.03      37.2  T
   3    -84.3249958 -0.256007E-07  0.181E-06    0.03    8534.3  T
   4    -84.3249958 -0.540012E-12  0.640E-07    0.03   24098.6  T
     SCC iter.                  ...        0 min,  0.014 sec
     gradient                   ...        0 min,  0.082 sec
 * total energy  :   -83.5806822 Eh     change       -0.4192202E-10 Eh
   gradient norm :     0.2136821 Eh/α   predicted     0.0000000E+00 (-100.00%)
   displ. norm   :     0.2624483 α      lambda       -0.2953631E-01
   maximum displ.:     0.1501901 α      in ANC's #26, #117, #22, ...

........................................................................
.............................. CYCLE    2 ..............................
........................................................................
   1    -84.2467914 -0.842468E+02  0.750E-01    0.35       0.0  T
   2    -84.0545290  0.192262E+00  0.156E+00    1.62       1.0  T
   3    -84.1138203 -0.592913E-01  0.122E+00    0.31       1.0  T
   4    -84.3076067 -0.193786E+00  0.292E-01    0.07       1.0  T
   5    -84.2967066  0.109001E-01  0.406E-01    0.02       1.0  T
   6    -84.2738292  0.228774E-01  0.567E-01    0.15       1.0  T
   7    -84.3171287 -0.432995E-01  0.143E-01    0.05       1.0  T
   8    -84.3135989  0.352985E-02  0.212E-01    0.01       1.0  T
   9    -84.3175750 -0.397610E-02  0.134E-01    0.05       1.0  T
  10    -84.3201727 -0.259780E-02  0.789E-03    0.03       2.0  T
  11    -84.3201700  0.279483E-05  0.901E-03    0.03       1.7  T
  12    -84.3201815 -0.115777E-04  0.135E-03    0.03      11.4  T
  13    -84.3201817 -0.201142E-06  0.654E-04    0.03      23.6  T
  14    -84.3201818 -0.467837E-07  0.325E-04    0.03      47.4  T
  15    -84.3201818 -0.131220E-07  0.126E-04    0.03     122.3  T
  16    -84.3201818 -0.212181E-08  0.371E-05    0.03     416.4  T
     SCC iter.                  ...        0 min,  0.055 sec
     gradient                   ...        0 min,  0.083 sec
 * total energy  :   -83.6010436 Eh     change       -0.2036135E-01 Eh
   gradient norm :     0.0882998 Eh/α   predicted    -0.1579157E-01 ( -22.44%)
   displ. norm   :     0.2943635 α      lambda       -0.1115015E-01
   maximum displ.:     0.2046334 α      in ANC's #26, #60, #5, ...

........................................................................
.............................. CYCLE    3 ..............................
........................................................................
   1    -84.2667208 -0.842667E+02  0.679E-01    0.27       0.0  T
   2    -84.0497479  0.216973E+00  0.159E+00    1.63       1.0  T
   3    -84.1064345 -0.566866E-01  0.126E+00    0.30       1.0  T
   4    -84.3219028 -0.215468E+00  0.213E-01    0.06       1.0  T
   5    -84.3180932  0.380969E-02  0.269E-01    0.00       1.0  T
   6    -84.3096991  0.839401E-02  0.361E-01    0.09       1.0  T
   7    -84.3284192 -0.187201E-01  0.777E-03    0.03       2.0  T
   8    -84.3281461  0.273128E-03  0.440E-02    0.03       1.0  T
   9    -84.3282279 -0.818273E-04  0.369E-02    0.04       1.0  T
  10    -84.3284140 -0.186081E-03  0.849E-03    0.03       1.8  T
  11    -84.3284209 -0.695923E-05  0.492E-03    0.03       3.1  T
  12    -84.3284244 -0.348189E-05  0.125E-04    0.03     123.5  T
  13    -84.3284244  0.224394E-07  0.413E-04    0.03      37.3  T
  14    -84.3284244 -0.240718E-07  0.540E-05    0.03     285.6  T
  15    -84.3284244 -0.272394E-09  0.308E-05    0.03     501.0  T
     SCC iter.                  ...        0 min,  0.056 sec
     gradient                   ...        0 min,  0.083 sec
 * total energy  :   -83.6078292 Eh     change       -0.6785644E-02 Eh
   gradient norm :     0.0289749 Eh/α   predicted    -0.6058157E-02 ( -10.72%)
   displ. norm   :     0.2432318 α      lambda       -0.2048283E-02
   maximum displ.:     0.1272286 α      in ANC's #26, #5, #8, ...

........................................................................
.............................. CYCLE    4 ..............................
........................................................................
   1    -84.2977104 -0.842977E+02  0.502E-01    0.14       0.0  T
   2    -84.0606470  0.237063E+00  0.153E+00    1.31       1.0  T
   3    -84.1104364 -0.497894E-01  0.126E+00    0.23       1.0  T
   4    -84.3334036 -0.222967E+00  0.284E-02    0.03       1.0  T
   5    -84.3334428 -0.391855E-04  0.200E-02    0.03       1.0  T
   6    -84.3334482 -0.540634E-05  0.178E-02    0.04       1.0  T
   7    -84.3330262  0.422076E-03  0.571E-02    0.03       1.0  T
   8    -84.3334802 -0.454046E-03  0.999E-03    0.04       1.5  T
   9    -84.3334943 -0.141265E-04  0.127E-03    0.04      12.2  T
  10    -84.3334945 -0.145280E-06  0.758E-04    0.04      20.4  T
  11    -84.3334945 -0.408446E-07  0.547E-04    0.04      28.2  T
  12    -84.3334946 -0.400019E-07  0.136E-04    0.04     113.7  T
  13    -84.3334946 -0.255162E-08  0.201E-05    0.04     768.6  T
     SCC iter.                  ...        0 min,  0.048 sec
     gradient                   ...        0 min,  0.083 sec
 * total energy  :   -83.6093203 Eh     change       -0.1491086E-02 Eh
   gradient norm :     0.0244864 Eh/α   predicted    -0.1084779E-02 ( -27.25%)
   displ. norm   :     0.3464968 α      lambda       -0.1732905E-02
   maximum displ.:     0.1763145 α      in ANC's #5, #8, #26, ...

........................................................................
.............................. CYCLE    5 ..............................
........................................................................
   1    -84.3079533 -0.843080E+02  0.450E-01    0.12       0.0  T
   2    -84.0599240  0.248029E+00  0.153E+00    1.18       1.0  T
   3    -84.1163874 -0.564634E-01  0.125E+00    0.19       1.0  T
   4    -84.3370267 -0.220639E+00  0.134E-02    0.04       1.2  T
   5    -84.3367661  0.260535E-03  0.429E-02    0.04       1.0  T
   6    -84.3370123 -0.246233E-03  0.124E-02    0.04       1.2  T
   7    -84.3369596  0.527759E-04  0.225E-02    0.04       1.0  T
   8    -84.3370203 -0.607186E-04  0.917E-03    0.04       1.7  T
   9    -84.3370303 -0.100252E-04  0.380E-03    0.04       4.1  T
  10    -84.3370324 -0.203839E-05  0.523E-04    0.04      29.5  T
  11    -84.3370324 -0.368976E-07  0.134E-04    0.04     115.0  T
  12    -84.3370324 -0.202530E-08  0.590E-05    0.04     261.7  T
     SCC iter.                  ...        0 min,  0.045 sec
     gradient                   ...        0 min,  0.083 sec
 * total energy  :   -83.6105647 Eh     change       -0.1244403E-02 Eh
   gradient norm :     0.0185945 Eh/α   predicted    -0.9704886E-03 ( -22.01%)
   displ. norm   :     0.3688237 α      lambda       -0.1108199E-02
   maximum displ.:     0.2094430 α      in ANC's #5, #8, #3, ...

........................................................................
.............................. CYCLE    6 ..............................
........................................................................
   1    -84.3309018 -0.843309E+02  0.224E-01    0.07       0.0  T
   2    -84.0793570  0.251545E+00  0.140E+00    0.58       1.0  T
   3    -84.2872088 -0.207852E+00  0.595E-01    0.03       1.0  T
   4    -84.3098252 -0.226164E-01  0.448E-01    0.13       1.0  T
   5    -84.3339731 -0.241479E-01  0.174E-01    0.07       1.0  T
   6    -84.3383094 -0.433631E-02  0.829E-03    0.04       1.9  T
   7    -84.3383146 -0.519126E-05  0.492E-03    0.04       3.1  T
   8    -84.3383133  0.134219E-05  0.564E-03    0.04       2.7  T
   9    -84.3383175 -0.427229E-05  0.141E-03    0.04      11.0  T
  10    -84.3383177 -0.133542E-06  0.103E-03    0.04      15.0  T
  11    -84.3383178 -0.144362E-06  0.217E-04    0.04      71.2  T
  12    -84.3383178 -0.623378E-08  0.609E-05    0.04     253.2  T
  13    -84.3383178 -0.466756E-09  0.215E-05    0.04     718.2  T
     SCC iter.                  ...        0 min,  0.049 sec
     gradient                   ...        0 min,  0.083 sec
 * total energy  :   -83.6113535 Eh     change       -0.7888132E-03 Eh
   gradient norm :     0.0130688 Eh/α   predicted    -0.6294982E-03 ( -20.20%)
   displ. norm   :     0.3488123 α      lambda       -0.6945794E-03
   maximum displ.:     0.2041300 α      in ANC's #5, #8, #3, ...

........................................................................
.............................. CYCLE    7 ..............................
........................................................................
   1    -84.3384071 -0.843384E+02  0.333E-02    0.04       0.0  T
   2    -84.3201125  0.182946E-01  0.357E-01    0.00       1.0  T
   3    -84.3385010 -0.183885E-01  0.126E-02    0.04       1.2  T
   4    -84.3384941  0.692778E-05  0.111E-02    0.04       1.4  T
   5    -84.3385084 -0.143646E-04  0.297E-03    0.04       5.2  T
   6    -84.3385086 -0.170559E-06  0.140E-03    0.04      11.0  T
   7    -84.3385087 -0.855089E-07  0.895E-04    0.04      17.2  T
   8    -84.3385088 -0.112706E-06  0.620E-05    0.04     249.0  T
   9    -84.3385088  0.738581E-09  0.814E-05    0.04     189.6  T
     SCC iter.                  ...        0 min,  0.034 sec
     gradient                   ...        0 min,  0.082 sec
 * total energy  :   -83.6118666 Eh     change       -0.5130393E-03 Eh
   gradient norm :     0.0137460 Eh/α   predicted    -0.3895564E-03 ( -24.07%)
   displ. norm   :     0.3434783 α      lambda       -0.5833131E-03
   maximum displ.:     0.2030942 α      in ANC's #5, #3, #8, ...

........................................................................
.............................. CYCLE    8 ..............................
........................................................................
   1    -84.3352903 -0.843353E+02  0.169E-01    0.02       0.0  T
   2    -84.2814547  0.538355E-01  0.682E-01    0.51       1.0  T
   3    -84.3167800 -0.353253E-01  0.398E-01    0.11       1.0  T
   4    -84.3383393 -0.215593E-01  0.815E-02    0.05       1.0  T
   5    -84.3388653 -0.525976E-03  0.541E-02    0.05       1.0  T
   6    -84.3392723 -0.407076E-03  0.907E-03    0.04       1.7  T
   7    -84.3392823 -0.996244E-05  0.305E-03    0.04       5.1  T
   8    -84.3392832 -0.929007E-06  0.156E-03    0.04       9.9  T
   9    -84.3392835 -0.221157E-06  0.943E-04    0.04      16.4  T
  10    -84.3392834  0.394149E-07  0.108E-03    0.04      14.3  T
  11    -84.3392836 -0.162876E-06  0.188E-04    0.04      82.1  T
  12    -84.3392836 -0.313180E-08  0.117E-04    0.04     131.5  T
     SCC iter.                  ...        0 min,  0.045 sec
     gradient                   ...        0 min,  0.082 sec
 * total energy  :   -83.6123119 Eh     change       -0.4453118E-03 Eh
   gradient norm :     0.0134343 Eh/α   predicted    -0.3260676E-03 ( -26.78%)
   displ. norm   :     0.3680983 α      lambda       -0.5318280E-03
   maximum displ.:     0.2127662 α      in ANC's #5, #3, #8, ...

........................................................................
.............................. CYCLE    9 ..............................
........................................................................
   1    -84.3363485 -0.843363E+02  0.143E-01    0.02       0.0  T
   2    -84.2828612  0.534873E-01  0.665E-01    0.44       1.0  T
   3    -84.3243963 -0.415351E-01  0.322E-01    0.09       1.0  T
   4    -84.3391888 -0.147925E-01  0.228E-02    0.04       1.0  T
   5    -84.3389196  0.269182E-03  0.486E-02    0.05       1.0  T
   6    -84.3392566 -0.337006E-03  0.382E-03    0.04       4.0  T
   7    -84.3392527  0.387746E-05  0.625E-03    0.04       2.5  T
   8    -84.3392574 -0.470332E-05  0.245E-03    0.04       6.3  T
   9    -84.3392582 -0.829942E-06  0.517E-04    0.04      29.8  T
  10    -84.3392583 -0.330475E-07  0.198E-04    0.04      77.8  T
  11    -84.3392583 -0.561201E-08  0.898E-06    0.04    1717.7  T
     SCC iter.                  ...        0 min,  0.042 sec
     gradient                   ...        0 min,  0.083 sec
 * total energy  :   -83.6127154 Eh     change       -0.4035686E-03 Eh
   gradient norm :     0.0117927 Eh/α   predicted    -0.3019463E-03 ( -25.18%)
   displ. norm   :     0.3597412 α      lambda       -0.4554660E-03
   maximum displ.:     0.2023758 α      in ANC's #5, #3, #8, ...

........................................................................
.............................. CYCLE   10 ..............................
........................................................................
   1    -84.3375874 -0.843376E+02  0.145E-01    0.02       0.0  T
   2    -84.2836973  0.538901E-01  0.669E-01    0.45       1.0  T
   3    -84.3227972 -0.390999E-01  0.353E-01    0.10       1.0  T
   4    -84.3388768 -0.160795E-01  0.111E-01    0.06       1.0  T
   5    -84.3406463 -0.176952E-02  0.630E-03    0.04       2.4  T
   6    -84.3405755  0.707538E-04  0.229E-02    0.04       1.0  T
   7    -84.3406458 -0.702986E-04  0.608E-03    0.04       2.5  T
   8    -84.3406511 -0.532768E-05  0.311E-04    0.04      49.5  T
   9    -84.3406511  0.737951E-07  0.780E-04    0.04      19.8  T
  10    -84.3406511 -0.672360E-07  0.374E-04    0.04      41.2  T
  11    -84.3406512 -0.198156E-07  0.600E-05    0.04     257.0  T
  12    -84.3406512 -0.360970E-09  0.329E-05    0.04     468.6  T
     SCC iter.                  ...        0 min,  0.045 sec
     gradient                   ...        0 min,  0.085 sec
 * total energy  :   -83.6130541 Eh     change       -0.3386667E-03 Eh
   gradient norm :     0.0103081 Eh/α   predicted    -0.2572078E-03 ( -24.05%)
   displ. norm   :     0.4347128 α      lambda       -0.4373278E-03
   maximum displ.:     0.2417892 α      in ANC's #5, #3, #7, ...

........................................................................
.............................. CYCLE   11 ..............................
........................................................................
   1    -84.3379305 -0.843379E+02  0.848E-02    0.05       0.0  T
   2    -84.1147295  0.223201E+00  0.125E+00    0.19       1.0  T
   3    -84.3387799 -0.224050E+00  0.373E-02    0.04       1.0  T
   4    -84.3389456 -0.165708E-03  0.109E-02    0.04       1.4  T
   5    -84.3389599 -0.142318E-04  0.314E-03    0.04       4.9  T
   6    -84.3389578  0.206366E-05  0.450E-03    0.04       3.4  T
   7    -84.3389605 -0.268186E-05  0.113E-03    0.04      13.7  T
   8    -84.3389607 -0.169861E-06  0.324E-04    0.04      47.7  T
   9    -84.3389607 -0.148565E-07  0.384E-05    0.04     401.4  T
  10    -84.3389607 -0.837446E-10  0.230E-05    0.04     670.7  T
     SCC iter.                  ...        0 min,  0.037 sec
     gradient                   ...        0 min,  0.083 sec
 * total energy  :   -83.6133523 Eh     change       -0.2981386E-03 Eh
   gradient norm :     0.0122253 Eh/α   predicted    -0.2599881E-03 ( -12.80%)
   displ. norm   :     0.3772351 α      lambda       -0.4656808E-03
   maximum displ.:     0.2056117 α      in ANC's #3, #5, #7, ...

........................................................................
.............................. CYCLE   12 ..............................
........................................................................
   1    -84.3410233 -0.843410E+02  0.680E-02    0.05       0.0  T
   2    -84.1466145  0.194409E+00  0.116E+00    0.13       1.0  T
   3    -84.3415041 -0.194890E+00  0.311E-02    0.05       1.0  T
   4    -84.3416334 -0.129351E-03  0.446E-03    0.04       3.5  T
   5    -84.3416341 -0.682407E-06  0.243E-03    0.04       6.3  T
   6    -84.3416340  0.989185E-07  0.111E-03    0.04      13.9  T
   7    -84.3416341 -0.146872E-06  0.331E-04    0.04      46.6  T
   8    -84.3416341 -0.148895E-07  0.431E-05    0.04     358.3  T
   9    -84.3416341 -0.144468E-09  0.133E-05    0.04    1163.0  T
     SCC iter.                  ...        0 min,  0.034 sec
     gradient                   ...        0 min,  0.083 sec
 * total energy  :   -83.6136364 Eh     change       -0.2841816E-03 Eh
   gradient norm :     0.0112553 Eh/α   predicted    -0.2659783E-03 (  -6.41%)
   displ. norm   :     0.3344615 α      lambda       -0.2787299E-03
   maximum displ.:     0.1878585 α      in ANC's #5, #3, #7, ...

........................................................................
.............................. CYCLE   13 ..............................
........................................................................
   1    -84.3356735 -0.843357E+02  0.170E-01    0.07       0.0  T
   2    -84.0872030  0.248470E+00  0.136E+00    0.43       1.0  T
   3    -84.3275021 -0.240299E+00  0.293E-01    0.01       1.0  T
   4    -84.3300560 -0.255387E-02  0.262E-01    0.08       1.0  T
   5    -84.3399163 -0.986035E-02  0.160E-02    0.04       1.0  T
   6    -84.3399371 -0.207549E-04  0.110E-02    0.04       1.4  T
   7    -84.3399540 -0.169783E-04  0.867E-04    0.04      17.8  T
   8    -84.3399541 -0.640349E-07  0.341E-04    0.04      45.3  T
   9    -84.3399541 -0.149585E-08  0.317E-04    0.04      48.7  T
  10    -84.3399541 -0.145040E-07  0.118E-05    0.04    1304.0  T
  11    -84.3399541  0.851230E-09  0.770E-05    0.04     200.5  T
     SCC iter.                  ...        0 min,  0.041 sec
     gradient                   ...        0 min,  0.084 sec
 * total energy  :   -83.6138254 Eh     change       -0.1889484E-03 Eh
   gradient norm :     0.0098023 Eh/α   predicted    -0.1549559E-03 ( -17.99%)
   displ. norm   :     0.2025893 α      lambda       -0.2447077E-03
   maximum displ.:     0.0978625 α      in ANC's #3, #5, #7, ...

........................................................................
.............................. CYCLE   14 ..............................
........................................................................
   1    -84.3388335 -0.843388E+02  0.147E-01    0.06       0.0  T
   2    -84.0902667  0.248567E+00  0.135E+00    0.36       1.0  T
   3    -84.3380283 -0.247762E+00  0.164E-01    0.02       1.0  T
   4    -84.3389584 -0.930066E-03  0.144E-01    0.06       1.0  T
   5    -84.3417672 -0.280889E-02  0.340E-02    0.04       1.0  T
   6    -84.3419352 -0.167990E-03  0.141E-03    0.04      10.9  T
   7    -84.3419347  0.556956E-06  0.207E-03    0.04       7.5  T
   8    -84.3419351 -0.414778E-06  0.117E-03    0.04      13.2  T
   9    -84.3419353 -0.179430E-06  0.368E-04    0.04      41.9  T
  10    -84.3419353 -0.195560E-07  0.138E-05    0.04    1120.7  T
  11    -84.3419353  0.486907E-09  0.591E-05    0.04     261.1  T
     SCC iter.                  ...        0 min,  0.042 sec
     gradient                   ...        0 min,  0.084 sec
 * total energy  :   -83.6139650 Eh     change       -0.1396396E-03 Eh
   gradient norm :     0.0054377 Eh/α   predicted    -0.1273801E-03 (  -8.78%)
   displ. norm   :     0.1389667 α      lambda       -0.7122591E-04
   maximum displ.:     0.0776401 α      in ANC's #5, #3, #1, ...

........................................................................
.............................. CYCLE   15 ..............................
........................................................................
   1    -84.3412726 -0.843413E+02  0.709E-03    0.04       0.0  T
   2    -84.3412083  0.643439E-04  0.215E-02    0.04       1.0  T
   3    -84.3410179  0.190328E-03  0.427E-02    0.05       1.0  T
   4    -84.3412740 -0.256085E-03  0.446E-03    0.04       3.5  T
   5    -84.3412730  0.988031E-06  0.495E-03    0.04       3.1  T
   6    -84.3412764 -0.331501E-05  0.643E-04    0.04      24.0  T
   7    -84.3412764 -0.465753E-07  0.205E-04    0.04      75.3  T
   8    -84.3412764 -0.517716E-08  0.549E-05    0.04     280.9  T
   9    -84.3412764 -0.386606E-09  0.453E-06    0.04    3409.9  T
     SCC iter.                  ...        0 min,  0.033 sec
     gradient                   ...        0 min,  0.084 sec
 * total energy  :   -83.6140131 Eh     change       -0.4805024E-04 Eh
   gradient norm :     0.0040649 Eh/α   predicted    -0.3630260E-04 ( -24.45%)
   displ. norm   :     0.0991571 α      lambda       -0.5665051E-04
   maximum displ.:     0.0586980 α      in ANC's #1, #5, #3, ...

........................................................................
.............................. CYCLE   16 ..............................
........................................................................
   1    -84.3419647 -0.843420E+02  0.360E-02    0.04       0.0  T
   2    -84.3119735  0.299912E-01  0.461E-01    0.14       1.0  T
   3    -84.3420728 -0.300993E-01  0.237E-02    0.05       1.0  T
   4    -84.3421489 -0.760337E-04  0.436E-03    0.04       3.5  T
   5    -84.3421482  0.719279E-06  0.512E-03    0.04       3.0  T
   6    -84.3421513 -0.311341E-05  0.175E-03    0.04       8.8  T
   7    -84.3421517 -0.436770E-06  0.351E-04    0.04      43.9  T
   8    -84.3421517 -0.163390E-07  0.781E-05    0.04     197.5  T
   9    -84.3421517 -0.612928E-09  0.419E-05    0.04     367.9  T
     SCC iter.                  ...        0 min,  0.034 sec
     gradient                   ...        0 min,  0.083 sec
 * total energy  :   -83.6140524 Eh     change       -0.3929295E-04 Eh
   gradient norm :     0.0031529 Eh/α   predicted    -0.2860599E-04 ( -27.20%)
   displ. norm   :     0.1138484 α      lambda       -0.4240553E-04
   maximum displ.:     0.0687628 α      in ANC's #1, #5, #10, ...

........................................................................
.............................. CYCLE   17 ..............................
........................................................................
   1    -84.3420063 -0.843420E+02  0.133E-02    0.04       0.0  T
   2    -84.3348112  0.719511E-02  0.224E-01    0.08       1.0  T
   3    -84.3420287 -0.721755E-02  0.306E-03    0.04       5.0  T
   4    -84.3420294 -0.746620E-06  0.149E-03    0.04      10.3  T
   5    -84.3420296 -0.144186E-06  0.803E-04    0.04      19.2  T
   6    -84.3420296 -0.488542E-07  0.302E-04    0.04      51.0  T
   7    -84.3420296 -0.127276E-07  0.170E-05    0.04     905.6  T
   8    -84.3420296  0.279101E-10  0.173E-05    0.04     893.1  T
     SCC iter.                  ...        0 min,  0.030 sec
     gradient                   ...        0 min,  0.083 sec
 * total energy  :   -83.6140845 Eh     change       -0.3217776E-04 Eh
   gradient norm :     0.0033987 Eh/α   predicted    -0.2148049E-04 ( -33.24%)
   displ. norm   :     0.1349219 α      lambda       -0.5344887E-04
   maximum displ.:     0.0954945 α      in ANC's #1, #10, #15, ...

........................................................................
.............................. CYCLE   18 ..............................
........................................................................
   1    -84.3424448 -0.843424E+02  0.169E-02    0.04       0.0  T
   2    -84.3313908  0.110541E-01  0.277E-01    0.09       1.0  T
   3    -84.3424820 -0.110912E-01  0.394E-03    0.04       3.9  T
   4    -84.3424818  0.180166E-06  0.368E-03    0.04       4.2  T
   5    -84.3424832 -0.137987E-05  0.169E-03    0.04       9.2  T
   6    -84.3424835 -0.347660E-06  0.234E-04    0.04      65.9  T
   7    -84.3424835 -0.749021E-08  0.255E-05    0.04     605.0  T
   8    -84.3424835  0.556781E-10  0.268E-05    0.04     575.3  T
     SCC iter.                  ...        0 min,  0.030 sec
     gradient                   ...        0 min,  0.083 sec
 * total energy  :   -83.6141262 Eh     change       -0.4166213E-04 Eh
   gradient norm :     0.0042639 Eh/α   predicted    -0.2721615E-04 ( -34.67%)
   displ. norm   :     0.1936914 α      lambda       -0.6851235E-04
   maximum displ.:     0.1364004 α      in ANC's #1, #10, #15, ...

........................................................................
.............................. CYCLE   19 ..............................
........................................................................
   1    -84.3419550 -0.843420E+02  0.102E-02    0.04       0.0  T
   2    -84.3358689  0.608609E-02  0.205E-01    0.02       1.0  T
   3    -84.3419632 -0.609434E-02  0.700E-03    0.04       2.2  T
   4    -84.3419571  0.612811E-05  0.931E-03    0.04       1.7  T
   5    -84.3419644 -0.726002E-05  0.573E-03    0.04       2.7  T
   6    -84.3419688 -0.445511E-05  0.680E-04    0.04      22.7  T
   7    -84.3419689 -0.607899E-07  0.272E-05    0.04     567.8  T
   8    -84.3419689  0.490374E-09  0.612E-05    0.04     252.2  T
     SCC iter.                  ...        0 min,  0.030 sec
     gradient                   ...        0 min,  0.084 sec
 * total energy  :   -83.6141809 Eh     change       -0.5468658E-04 Eh
   gradient norm :     0.0047649 Eh/α   predicted    -0.3554285E-04 ( -35.01%)
   displ. norm   :     0.2608369 α      lambda       -0.8892090E-04
   maximum displ.:     0.1876079 α      in ANC's #1, #9, #15, ...

........................................................................
.............................. CYCLE   20 ..............................
........................................................................
   1    -84.3415774 -0.843416E+02  0.126E-02    0.05       0.0  T
   2    -84.3302020  0.113754E-01  0.280E-01    0.01       1.0  T
   3    -84.3415936 -0.113916E-01  0.732E-03    0.04       2.1  T
   4    -84.3415906  0.291347E-05  0.831E-03    0.04       1.9  T
   5    -84.3415966 -0.593165E-05  0.500E-03    0.04       3.1  T
   6    -84.3415999 -0.334185E-05  0.925E-04    0.04      16.7  T
   7    -84.3416000 -0.109484E-06  0.232E-04    0.04      66.4  T
   8    -84.3416000 -0.623920E-08  0.861E-05    0.04     179.2  T
   9    -84.3416000 -0.988692E-09  0.155E-05    0.04     996.8  T
     SCC iter.                  ...        0 min,  0.034 sec
     gradient                   ...        0 min,  0.084 sec
 * total energy  :   -83.6142484 Eh     change       -0.6751586E-04 Eh
   gradient norm :     0.0045590 Eh/α   predicted    -0.4748693E-04 ( -29.67%)
   displ. norm   :     0.2407878 α      lambda       -0.7148514E-04
   maximum displ.:     0.1789793 α      in ANC's #1, #9, #15, ...
 * RMSD in coord.:     0.6249387 α      energy gain  -0.3356618E-01 Eh

generating ANC from model Hessian ...
Using Lindh-Hessian (1995)
 Shifting diagonal of input Hessian by   9.803481187260002E-003
 Lowest  eigenvalues of input Hessian
    0.000000    0.000000    0.000000    0.000000    0.000000    0.000000
    0.010000    0.010185    0.010542    0.010807    0.011495    0.012454
    0.013620    0.013860    0.014488    0.016216    0.016478    0.017119
 Highest eigenvalues
    2.045491    2.074946    2.128126    2.225869    2.239266    2.276531
 

........................................................................
.............................. CYCLE   21 ..............................
........................................................................
   1    -84.3407786 -0.843408E+02  0.281E-02    0.05       0.0  T
   2    -84.2770257  0.637529E-01  0.662E-01    0.03       1.0  T
   3    -84.3408939 -0.638682E-01  0.306E-03    0.04       5.0  T
   4    -84.3408931  0.826684E-06  0.357E-03    0.04       4.3  T
   5    -84.3408936 -0.509433E-06  0.288E-03    0.04       5.4  T
   6    -84.3408946 -0.105460E-05  0.678E-04    0.04      22.8  T
   7    -84.3408947 -0.614768E-07  0.112E-04    0.04     138.3  T
   8    -84.3408947 -0.157250E-08  0.133E-05    0.04    1162.3  T
     SCC iter.                  ...        0 min,  0.030 sec
     gradient                   ...        0 min,  0.083 sec
 * total energy  :   -83.6143025 Eh     change       -0.5412664E-04 Eh
   gradient norm :     0.0040170 Eh/α   predicted     0.0000000E+00 (-100.00%)
   displ. norm   :     0.0326888 α      lambda       -0.2839647E-04
   maximum displ.:     0.0154901 α      in ANC's #1, #8, #7, ...

........................................................................
.............................. CYCLE   22 ..............................
........................................................................
   1    -84.3420514 -0.843421E+02  0.161E-02    0.04       0.0  T
   2    -84.3312194  0.108320E-01  0.275E-01    0.09       1.0  T
   3    -84.3420778 -0.108584E-01  0.920E-03    0.04       1.7  T
   4    -84.3420863 -0.847422E-05  0.458E-03    0.04       3.4  T
   5    -84.3420887 -0.248560E-05  0.149E-03    0.04      10.3  T
   6    -84.3420890 -0.265392E-06  0.263E-04    0.04      58.7  T
   7    -84.3420890 -0.842273E-08  0.685E-05    0.04     225.4  T
   8    -84.3420890 -0.545086E-09  0.213E-05    0.04     723.5  T
     SCC iter.                  ...        0 min,  0.030 sec
     gradient                   ...        0 min,  0.084 sec
 * total energy  :   -83.6143291 Eh     change       -0.2655379E-04 Eh
   gradient norm :     0.0020200 Eh/α   predicted    -0.1666405E-04 ( -37.24%)
   displ. norm   :     0.0840746 α      lambda       -0.4366678E-04
   maximum displ.:     0.0425347 α      in ANC's #1, #8, #6, ...

........................................................................
.............................. CYCLE   23 ..............................
........................................................................
   1    -84.3431339 -0.843431E+02  0.148E-02    0.04       0.0  T
   2    -84.3342292  0.890475E-02  0.249E-01    0.08       1.0  T
   3    -84.3431505 -0.892136E-02  0.105E-02    0.04       1.5  T
   4    -84.3431544 -0.387210E-05  0.857E-03    0.04       1.8  T
   5    -84.3431637 -0.928703E-05  0.214E-03    0.04       7.2  T
   6    -84.3431643 -0.563392E-06  0.133E-04    0.04     115.7  T
   7    -84.3431643 -0.107562E-09  0.928E-05    0.04     166.3  T
     SCC iter.                  ...        0 min,  0.026 sec
     gradient                   ...        0 min,  0.083 sec
 * total energy  :   -83.6143601 Eh     change       -0.3100969E-04 Eh
   gradient norm :     0.0016147 Eh/α   predicted    -0.2341083E-04 ( -24.50%)
   displ. norm   :     0.1168122 α      lambda       -0.2243530E-04
   maximum displ.:     0.0646510 α      in ANC's #1, #8, #6, ...

........................................................................
.............................. CYCLE   24 ..............................
........................................................................
   1    -84.3430411 -0.843430E+02  0.971E-03    0.04       0.0  T
   2    -84.3376738  0.536736E-02  0.192E-01    0.02       1.0  T
   3    -84.3430427 -0.536894E-02  0.870E-03    0.04       1.8  T
   4    -84.3430486 -0.585276E-05  0.546E-03    0.04       2.8  T
   5    -84.3430517 -0.311484E-05  0.258E-03    0.04       6.0  T
   6    -84.3430526 -0.903377E-06  0.121E-04    0.04     127.5  T
   7    -84.3430526  0.392419E-09  0.112E-04    0.04     138.0  T
     SCC iter.                  ...        0 min,  0.026 sec
     gradient                   ...        0 min,  0.083 sec
 * total energy  :   -83.6143837 Eh     change       -0.2363609E-04 Eh
   gradient norm :     0.0027793 Eh/α   predicted    -0.1134496E-04 ( -52.00%)
   displ. norm   :     0.0867449 α      lambda       -0.2343779E-04
   maximum displ.:     0.0507141 α      in ANC's #1, #6, #11, ...

........................................................................
.............................. CYCLE   25 ..............................
........................................................................
   1    -84.3425179 -0.843425E+02  0.130E-02    0.05       0.0  T
   2    -84.3294766  0.130413E-01  0.300E-01    0.01       1.0  T
   3    -84.3425422 -0.130656E-01  0.899E-04    0.04      17.2  T
   4    -84.3425421  0.172264E-06  0.130E-03    0.04      11.9  T
   5    -84.3425421 -0.712502E-07  0.102E-03    0.04      15.1  T
   6    -84.3425423 -0.128628E-06  0.240E-04    0.04      64.2  T
   7    -84.3425423 -0.765384E-08  0.567E-05    0.04     272.3  T
   8    -84.3425423 -0.411589E-09  0.156E-05    0.04     989.8  T
     SCC iter.                  ...        0 min,  0.028 sec
     gradient                   ...        0 min,  0.084 sec
 * total energy  :   -83.6144042 Eh     change       -0.2045892E-04 Eh
   gradient norm :     0.0024439 Eh/α   predicted    -0.1180728E-04 ( -42.29%)
   displ. norm   :     0.1932165 α      lambda       -0.4806268E-04
   maximum displ.:     0.1135795 α      in ANC's #1, #11, #6, ...

........................................................................
.............................. CYCLE   26 ..............................
........................................................................
   1    -84.3412182 -0.843412E+02  0.284E-02    0.05       0.0  T
   2    -84.2749756  0.662426E-01  0.676E-01    0.04       1.0  T
   3    -84.3413361 -0.663605E-01  0.360E-03    0.04       4.3  T
   4    -84.3413319  0.418354E-05  0.631E-03    0.04       2.4  T
   5    -84.3413349 -0.294498E-05  0.422E-03    0.04       3.7  T
   6    -84.3413372 -0.235829E-05  0.685E-04    0.04      22.5  T
   7    -84.3413373 -0.615785E-07  0.171E-04    0.04      90.0  T
   8    -84.3413373 -0.392949E-08  0.328E-05    0.04     470.5  T
     SCC iter.                  ...        0 min,  0.028 sec
     gradient                   ...        0 min,  0.084 sec
 * total energy  :   -83.6144383 Eh     change       -0.3407371E-04 Eh
   gradient norm :     0.0026840 Eh/α   predicted    -0.2493232E-04 ( -26.83%)
   displ. norm   :     0.1317719 α      lambda       -0.2640197E-04
   maximum displ.:     0.0834355 α      in ANC's #1, #11, #3, ...

........................................................................
.............................. CYCLE   27 ..............................
........................................................................
   1    -84.3409512 -0.843410E+02  0.127E-02    0.05       0.0  T
   2    -84.3281595  0.127918E-01  0.297E-01    0.01       1.0  T
   3    -84.3409717 -0.128122E-01  0.538E-03    0.04       2.9  T
   4    -84.3409710  0.738709E-06  0.566E-03    0.04       2.7  T
   5    -84.3409738 -0.279905E-05  0.339E-03    0.04       4.6  T
   6    -84.3409753 -0.156846E-05  0.225E-04    0.04      68.6  T
   7    -84.3409753 -0.674481E-08  0.331E-05    0.04     466.6  T
   8    -84.3409753 -0.114440E-09  0.112E-05    0.04    1372.8  T
     SCC iter.                  ...        0 min,  0.028 sec
     gradient                   ...        0 min,  0.084 sec
 * total energy  :   -83.6144583 Eh     change       -0.2004041E-04 Eh
   gradient norm :     0.0030626 Eh/α   predicted    -0.1344296E-04 ( -32.92%)
   displ. norm   :     0.1021628 α      lambda       -0.3240637E-04
   maximum displ.:     0.0721459 α      in ANC's #1, #10, #3, ...

........................................................................
.............................. CYCLE   28 ..............................
........................................................................
   1    -84.3417091 -0.843417E+02  0.340E-03    0.04       0.0  T
   2    -84.3417094 -0.329146E-06  0.235E-03    0.04       6.6  T
   3    -84.3416875  0.219063E-04  0.122E-02    0.05       1.3  T
   4    -84.3417022 -0.146972E-04  0.736E-03    0.04       2.1  T
   5    -84.3417094 -0.723954E-05  0.127E-03    0.04      12.1  T
   6    -84.3417096 -0.211266E-06  0.101E-04    0.04     152.2  T
   7    -84.3417096 -0.757908E-09  0.269E-05    0.04     573.3  T
     SCC iter.                  ...        0 min,  0.024 sec
     gradient                   ...        0 min,  0.082 sec
 * total energy  :   -83.6144831 Eh     change       -0.2480402E-04 Eh
   gradient norm :     0.0021918 Eh/α   predicted    -0.1637274E-04 ( -33.99%)
   displ. norm   :     0.1173579 α      lambda       -0.2799660E-04
   maximum displ.:     0.0863119 α      in ANC's #1, #10, #11, ...

........................................................................
.............................. CYCLE   29 ..............................
........................................................................
   1    -84.3424420 -0.843424E+02  0.124E-02    0.04       0.0  T
   2    -84.3358827  0.655926E-02  0.213E-01    0.08       1.0  T
   3    -84.3424592 -0.657647E-02  0.508E-03    0.04       3.0  T
   4    -84.3424622 -0.299344E-05  0.165E-03    0.04       9.4  T
   5    -84.3424624 -0.239520E-06  0.813E-04    0.04      19.0  T
   6    -84.3424625 -0.727277E-07  0.131E-04    0.04     117.7  T
   7    -84.3424625 -0.185003E-08  0.163E-05    0.04     945.1  T
     SCC iter.                  ...        0 min,  0.024 sec
     gradient                   ...        0 min,  0.079 sec
 * total energy  :   -83.6145044 Eh     change       -0.2129502E-04 Eh
   gradient norm :     0.0016920 Eh/α   predicted    -0.1419156E-04 ( -33.36%)
   displ. norm   :     0.1780587 α      lambda       -0.2019807E-04
   maximum displ.:     0.1332767 α      in ANC's #1, #11, #9, ...

........................................................................
.............................. CYCLE   30 ..............................
........................................................................
   1    -84.3426860 -0.843427E+02  0.145E-02    0.04       0.0  T
   2    -84.3337725  0.891358E-02  0.249E-01    0.08       1.0  T
   3    -84.3427154 -0.894296E-02  0.169E-03    0.04       9.1  T
   4    -84.3427153  0.781325E-07  0.147E-03    0.04      10.5  T
   5    -84.3427156 -0.219941E-06  0.621E-04    0.04      24.8  T
   6    -84.3427156 -0.409632E-07  0.554E-05    0.04     278.6  T
   7    -84.3427156  0.107069E-08  0.900E-05    0.04     171.5  T
     SCC iter.                  ...        0 min,  0.024 sec
     gradient                   ...        0 min,  0.084 sec
 * total energy  :   -83.6145269 Eh     change       -0.2250252E-04 Eh
   gradient norm :     0.0017708 Eh/α   predicted    -0.1024668E-04 ( -54.46%)
   displ. norm   :     0.1244407 α      lambda       -0.1404944E-04
   maximum displ.:     0.0979280 α      in ANC's #1, #9, #11, ...

........................................................................
.............................. CYCLE   31 ..............................
........................................................................
   1    -84.3426644 -0.843427E+02  0.676E-03    0.04       0.0  T
   2    -84.3397088  0.295558E-02  0.143E-01    0.03       1.0  T
   3    -84.3426695 -0.296072E-02  0.297E-03    0.04       5.2  T
   4    -84.3426698 -0.268720E-06  0.242E-03    0.04       6.4  T
   5    -84.3426704 -0.579880E-06  0.123E-03    0.04      12.5  T
   6    -84.3426706 -0.201736E-06  0.821E-05    0.04     187.8  T
   7    -84.3426706 -0.646537E-09  0.191E-05    0.04     809.8  T
     SCC iter.                  ...        0 min,  0.025 sec
     gradient                   ...        0 min,  0.077 sec
 * total energy  :   -83.6145444 Eh     change       -0.1753688E-04 Eh
   gradient norm :     0.0013216 Eh/α   predicted    -0.7078483E-05 ( -59.64%)
   displ. norm   :     0.1159763 α      lambda       -0.1368185E-04
   maximum displ.:     0.0919231 α      in ANC's #1, #9, #11, ...

........................................................................
.............................. CYCLE   32 ..............................
........................................................................
   1    -84.3426425 -0.843426E+02  0.684E-03    0.04       0.0  T
   2    -84.3399139  0.272863E-02  0.137E-01    0.03       1.0  T
   3    -84.3426426 -0.272872E-02  0.652E-03    0.04       2.4  T
   4    -84.3426466 -0.398498E-05  0.361E-03    0.04       4.3  T
   5    -84.3426480 -0.145380E-05  0.157E-03    0.04       9.8  T
   6    -84.3426484 -0.328421E-06  0.105E-04    0.04     147.3  T
   7    -84.3426484 -0.126373E-08  0.124E-05    0.04    1245.1  T
     SCC iter.                  ...        0 min,  0.026 sec
     gradient                   ...        0 min,  0.078 sec
 * total energy  :   -83.6145613 Eh     change       -0.1684454E-04 Eh
   gradient norm :     0.0009896 Eh/α   predicted    -0.6882986E-05 ( -59.14%)
   displ. norm   :     0.1155770 α      lambda       -0.1172731E-04
   maximum displ.:     0.0910918 α      in ANC's #1, #5, #9, ...

........................................................................
.............................. CYCLE   33 ..............................
........................................................................
   1    -84.3426232 -0.843426E+02  0.350E-03    0.04       0.0  T
   2    -84.3421023  0.520844E-03  0.599E-02    0.04       1.0  T
   3    -84.3426216 -0.519290E-03  0.453E-03    0.04       3.4  T
   4    -84.3426242 -0.257701E-05  0.143E-03    0.04      10.8  T
   5    -84.3426245 -0.259695E-06  0.359E-04    0.04      43.0  T
   6    -84.3426245 -0.129429E-07  0.655E-05    0.04     235.5  T
   7    -84.3426245 -0.343334E-09  0.307E-05    0.04     503.2  T
     SCC iter.                  ...        0 min,  0.026 sec
     gradient                   ...        0 min,  0.077 sec
 * total energy  :   -83.6145753 Eh     change       -0.1398774E-04 Eh
   gradient norm :     0.0010298 Eh/α   predicted    -0.5914423E-05 ( -57.72%)
   displ. norm   :     0.0983931 α      lambda       -0.8177954E-05
   maximum displ.:     0.0768680 α      in ANC's #1, #5, #11, ...

........................................................................
.............................. CYCLE   34 ..............................
........................................................................
   1    -84.3423620 -0.843424E+02  0.206E-03    0.04       0.0  T
   2    -84.3422155  0.146532E-03  0.318E-02    0.05       1.0  T
   3    -84.3423623 -0.146878E-03  0.884E-04    0.04      17.5  T
   4    -84.3423623  0.212987E-08  0.753E-04    0.04      20.5  T
   5    -84.3423624 -0.399082E-07  0.426E-04    0.04      36.3  T
   6    -84.3423624 -0.237327E-07  0.586E-05    0.04     263.4  T
   7    -84.3423624 -0.401471E-09  0.111E-05    0.04    1383.9  T
     SCC iter.                  ...        0 min,  0.026 sec
     gradient                   ...        0 min,  0.081 sec
 * total energy  :   -83.6145849 Eh     change       -0.9655561E-05 Eh
   gradient norm :     0.0009999 Eh/α   predicted    -0.4108301E-05 ( -57.45%)
   displ. norm   :     0.0879288 α      lambda       -0.8068027E-05
   maximum displ.:     0.0652418 α      in ANC's #1, #5, #3, ...

........................................................................
.............................. CYCLE   35 ..............................
........................................................................
   1    -84.3428345 -0.843428E+02  0.422E-03    0.04       0.0  T
   2    -84.3420538  0.780712E-03  0.734E-02    0.05       1.0  T
   3    -84.3428359 -0.782115E-03  0.237E-03    0.04       6.5  T
   4    -84.3428364 -0.514974E-06  0.116E-03    0.04      13.2  T
   5    -84.3428366 -0.115218E-06  0.527E-04    0.04      29.3  T
   6    -84.3428366 -0.347338E-07  0.455E-05    0.04     339.2  T
   7    -84.3428366 -0.113900E-09  0.126E-05    0.04    1226.1  T
     SCC iter.                  ...        0 min,  0.025 sec
     gradient                   ...        0 min,  0.081 sec
 * total energy  :   -83.6145931 Eh     change       -0.8130867E-05 Eh
   gradient norm :     0.0010769 Eh/α   predicted    -0.4048282E-05 ( -50.21%)
   displ. norm   :     0.0719122 α      lambda       -0.6498288E-05
   maximum displ.:     0.0552960 α      in ANC's #1, #5, #15, ...

........................................................................
.............................. CYCLE   36 ..............................
........................................................................
   1    -84.3425862 -0.843426E+02  0.171E-03    0.04       0.0  T
   2    -84.3425835  0.270322E-05  0.454E-03    0.04       3.4  T
   3    -84.3425747  0.876449E-05  0.890E-03    0.04       1.7  T
   4    -84.3425858 -0.111568E-04  0.183E-03    0.04       8.4  T
   5    -84.3425863 -0.410159E-06  0.537E-04    0.04      28.8  T
   6    -84.3425863 -0.365515E-07  0.617E-05    0.04     250.1  T
   7    -84.3425863 -0.337607E-09  0.107E-05    0.04    1443.0  T
     SCC iter.                  ...        0 min,  0.026 sec
     gradient                   ...        0 min,  0.082 sec
 * total energy  :   -83.6146012 Eh     change       -0.8169700E-05 Eh
   gradient norm :     0.0006803 Eh/α   predicted    -0.3261003E-05 ( -60.08%)
   displ. norm   :     0.0839355 α      lambda       -0.7635019E-05
   maximum displ.:     0.0635509 α      in ANC's #1, #5, #15, ...

........................................................................
.............................. CYCLE   37 ..............................
........................................................................
   1    -84.3425339 -0.843425E+02  0.883E-03    0.04       0.0  T
   2    -84.3367676  0.576634E-02  0.199E-01    0.02       1.0  T
   3    -84.3425436 -0.577602E-02  0.376E-03    0.04       4.1  T
   4    -84.3425449 -0.131958E-05  0.207E-03    0.04       7.5  T
   5    -84.3425453 -0.398083E-06  0.114E-03    0.04      13.5  T
   6    -84.3425455 -0.172029E-06  0.188E-04    0.04      82.1  T
   7    -84.3425455 -0.451291E-08  0.127E-05    0.04    1213.8  T
     SCC iter.                  ...        0 min,  0.025 sec
     gradient                   ...        0 min,  0.084 sec
 * total energy  :   -83.6146107 Eh     change       -0.9450821E-05 Eh
   gradient norm :     0.0007389 Eh/α   predicted    -0.3829969E-05 ( -59.47%)
   displ. norm   :     0.0943116 α      lambda       -0.7795319E-05
   maximum displ.:     0.0707792 α      in ANC's #1, #2, #3, ...

........................................................................
.............................. CYCLE   38 ..............................
........................................................................
   1    -84.3424060 -0.843424E+02  0.178E-02    0.05       0.0  T
   2    -84.3164362  0.259698E-01  0.423E-01    0.01       1.0  T
   3    -84.3424520 -0.260159E-01  0.283E-03    0.04       5.4  T
   4    -84.3424528 -0.806192E-06  0.137E-03    0.04      11.3  T
   5    -84.3424529 -0.635607E-07  0.113E-03    0.04      13.6  T
   6    -84.3424531 -0.160241E-06  0.306E-04    0.04      50.5  T
   7    -84.3424531 -0.126581E-07  0.278E-05    0.04     554.3  T
   8    -84.3424531 -0.396767E-10  0.170E-05    0.04     907.7  T
     SCC iter.                  ...        0 min,  0.028 sec
     gradient                   ...        0 min,  0.079 sec
 * total energy  :   -83.6146202 Eh     change       -0.9486592E-05 Eh
   gradient norm :     0.0007948 Eh/α   predicted    -0.3916597E-05 ( -58.71%)
   displ. norm   :     0.0848742 α      lambda       -0.6291997E-05
   maximum displ.:     0.0648886 α      in ANC's #1, #2, #16, ...

........................................................................
.............................. CYCLE   39 ..............................
........................................................................
   1    -84.3425879 -0.843426E+02  0.198E-02    0.05       0.0  T
   2    -84.3103557  0.322322E-01  0.471E-01    0.01       1.0  T
   3    -84.3426457 -0.322900E-01  0.107E-03    0.04      14.4  T
   4    -84.3426458 -0.808828E-07  0.488E-04    0.04      31.6  T
   5    -84.3426457  0.357070E-07  0.637E-04    0.04      24.2  T
   6    -84.3426458 -0.476988E-07  0.181E-04    0.04      85.3  T
   7    -84.3426458 -0.444408E-08  0.145E-05    0.04    1066.7  T
     SCC iter.                  ...        0 min,  0.026 sec
     gradient                   ...        0 min,  0.079 sec
 * total energy  :   -83.6146279 Eh     change       -0.7742098E-05 Eh
   gradient norm :     0.0006173 Eh/α   predicted    -0.3158910E-05 ( -59.20%)
   displ. norm   :     0.0669165 α      lambda       -0.4636744E-05
   maximum displ.:     0.0529542 α      in ANC's #1, #2, #16, ...

........................................................................
.............................. CYCLE   40 ..............................
........................................................................
   1    -84.3426911 -0.843427E+02  0.138E-02    0.05       0.0  T
   2    -84.3278479  0.148432E-01  0.320E-01    0.01       1.0  T
   3    -84.3427188 -0.148709E-01  0.679E-04    0.04      22.7  T
   4    -84.3427188 -0.171214E-07  0.284E-04    0.04      54.3  T
   5    -84.3427188  0.780844E-09  0.251E-04    0.04      61.4  T
   6    -84.3427188 -0.443478E-08  0.113E-04    0.04     137.0  T
   7    -84.3427188 -0.174130E-08  0.128E-05    0.04    1203.9  T
     SCC iter.                  ...        0 min,  0.026 sec
     gradient                   ...        0 min,  0.080 sec
 * total energy  :   -83.6146339 Eh     change       -0.5949983E-05 Eh
   gradient norm :     0.0005105 Eh/α   predicted    -0.2326306E-05 ( -60.90%)
   displ. norm   :     0.0518223 α      lambda       -0.3967374E-05
   maximum displ.:     0.0419800 α      in ANC's #1, #2, #16, ...

........................................................................
.............................. CYCLE   41 ..............................
........................................................................
   1    -84.3428189 -0.843428E+02  0.631E-03    0.04       0.0  T
   2    -84.3400899  0.272906E-02  0.137E-01    0.03       1.0  T
   3    -84.3428243 -0.273437E-02  0.158E-03    0.04       9.8  T
   4    -84.3428245 -0.231954E-06  0.833E-04    0.04      18.5  T
   5    -84.3428246 -0.788538E-07  0.350E-04    0.04      44.1  T
   6    -84.3428246 -0.155706E-07  0.308E-05    0.04     500.4  T
   7    -84.3428246 -0.941185E-10  0.646E-06    0.04    2387.1  T
     SCC iter.                  ...        0 min,  0.025 sec
     gradient                   ...        0 min,  0.081 sec
 * total energy  :   -83.6146392 Eh     change       -0.5354770E-05 Eh
   gradient norm :     0.0005128 Eh/α   predicted    -0.1990419E-05 ( -62.83%)
   displ. norm   :     0.0557240 α      lambda       -0.4598534E-05
   maximum displ.:     0.0437471 α      in ANC's #1, #2, #6, ...

........................................................................
.............................. CYCLE   42 ..............................
........................................................................
   1    -84.3428576 -0.843429E+02  0.235E-03    0.04       0.0  T
   2    -84.3425651  0.292518E-03  0.449E-02    0.04       1.0  T
   3    -84.3428578 -0.292677E-03  0.193E-03    0.04       8.0  T
   4    -84.3428583 -0.490987E-06  0.482E-04    0.04      32.0  T
   5    -84.3428583 -0.288237E-07  0.113E-04    0.04     136.3  T
   6    -84.3428583 -0.875019E-09  0.248E-05    0.04     623.0  T
     SCC iter.                  ...        0 min,  0.022 sec
     gradient                   ...        0 min,  0.079 sec
 * total energy  :   -83.6146454 Eh     change       -0.6210448E-05 Eh
   gradient norm :     0.0005963 Eh/α   predicted    -0.2304582E-05 ( -62.89%)
   displ. norm   :     0.0689295 α      lambda       -0.5437179E-05
   maximum displ.:     0.0525728 α      in ANC's #1, #2, #6, ...
 * RMSD in coord.:     0.2797585 α      energy gain  -0.3970208E-03 Eh

generating ANC from model Hessian ...
Using Lindh-Hessian (1995)
 Shifting diagonal of input Hessian by   9.805937413475810E-003
 Lowest  eigenvalues of input Hessian
    0.000000    0.000000    0.000000    0.000000    0.000000    0.000000
    0.010000    0.010215    0.010504    0.010813    0.011524    0.012451
    0.013692    0.013851    0.014495    0.016264    0.016502    0.017145
 Highest eigenvalues
    2.045754    2.075333    2.128679    2.225075    2.238053    2.278470
 

........................................................................
.............................. CYCLE   43 ..............................
........................................................................
   1    -84.3428378 -0.843428E+02  0.221E-03    0.04       0.0  T
   2    -84.3425900  0.247787E-03  0.414E-02    0.05       1.0  T
   3    -84.3428380 -0.248030E-03  0.177E-03    0.04       8.7  T
   4    -84.3428384 -0.372934E-06  0.660E-04    0.04      23.4  T
   5    -84.3428385 -0.533220E-07  0.173E-04    0.04      89.3  T
   6    -84.3428385 -0.265993E-08  0.284E-05    0.04     542.7  T
     SCC iter.                  ...        0 min,  0.022 sec
     gradient                   ...        0 min,  0.080 sec
 * total energy  :   -83.6146527 Eh     change       -0.7275232E-05 Eh
   gradient norm :     0.0006692 Eh/α   predicted     0.0000000E+00 (-100.00%)
   displ. norm   :     0.0191087 α      lambda       -0.2426916E-05
   maximum displ.:     0.0162647 α      in ANC's #1, #16, #5, ...

........................................................................
.............................. CYCLE   44 ..............................
........................................................................
   1    -84.3426890 -0.843427E+02  0.142E-03    0.04       0.0  T
   2    -84.3426146  0.744257E-04  0.226E-02    0.05       1.0  T
   3    -84.3426888 -0.742136E-04  0.177E-03    0.04       8.7  T
   4    -84.3426891 -0.283558E-06  0.989E-04    0.04      15.6  T
   5    -84.3426892 -0.119869E-06  0.275E-04    0.04      56.1  T
   6    -84.3426892 -0.978298E-08  0.221E-05    0.04     696.9  T
   7    -84.3426892 -0.446079E-10  0.655E-06    0.04    2356.9  T
     SCC iter.                  ...        0 min,  0.025 sec
     gradient                   ...        0 min,  0.080 sec
 * total energy  :   -83.6146560 Eh     change       -0.3346211E-05 Eh
   gradient norm :     0.0003162 Eh/α   predicted    -0.1268411E-05 ( -62.09%)
   displ. norm   :     0.0455355 α      lambda       -0.4871899E-05
   maximum displ.:     0.0353736 α      in ANC's #1, #16, #5, ...

   *** GEOMETRY OPTIMIZATION CONVERGED AFTER 44 ITERATIONS ***

------------------------------------------------------------------------
 total energy gain   :        -0.0339738 Eh      -21.3189 kcal/mol
 total RMSD          :         0.7868092 a0        0.4164 Å
 total power (kW/mol):        -2.0272329 (step)  -12.9864 (real)
------------------------------------------------------------------------

 ANCopt (total)                0 d,  0 h,  0 min,  6.869 sec
 optimizer setup                ...        0 min,  0.001 sec (  0.011%)
 model hessian                  ...        0 min,  0.090 sec (  1.313%)
 ANC generation                 ...        0 min,  0.008 sec (  0.113%)
 coordinate transformation      ...        0 min,  0.002 sec (  0.024%)
 single point calculation       ...        0 min,  6.743 sec ( 98.172%)
 optimization log               ...        0 min,  0.012 sec (  0.180%)
 hessian update                 ...        0 min,  0.001 sec (  0.021%)
 rational function              ...        0 min,  0.007 sec (  0.098%)

================
 final structure:
================
42
 xtb: 6.5.1 (579679a)
C           -4.37958777044983        1.99125735471931        1.74716319051513
O           -3.61965906113820        1.77674524181635        0.56649536376163
C           -2.66633200849560        0.80747591287223        0.63628874096924
O           -2.47202475712405        0.18190068664752        1.66998197872744
C           -2.02315240445564        0.52820014367984       -0.70923284160482
C           -1.89643038713765        1.78757980488205       -1.56914553032198
N           -0.70747944793860       -0.06025865448180       -0.51737991880232
C           -0.65227079441900       -1.30974294750966       -0.23081132963504
C            0.69449572314362       -1.94368934871756        0.10480966982827
C            0.62165532475840       -2.57946496497750        1.50417894735520
C            1.04077109133877       -3.00340257426231       -0.95520021161759
N            1.68703245534923       -0.88046972436976        0.08457665077163
C            3.01414742238187       -1.05424374150615        0.39560751178757
O            3.52194863017288       -2.17531404529422        0.62693672671907
C            3.77931276929422        0.16217415207727        0.41443207095333
N            5.08151413832299        0.29772368509186        0.66992776368327
N            5.35447136308157        1.63527867182922        0.59634491422674
C            4.24946658372370        2.24300473593555        0.31047010094110
C            4.05465942753311        3.70339055228052        0.13300114381662
O            3.19971401002204        1.39535738705283        0.17539989643697
N           -1.74091364699581       -2.12273303009396       -0.20593282932860
C           -2.93839282424633       -1.80362739140278       -0.94353346223482
O           -3.67868289188209       -2.78710886793951       -1.24678109582256
C           -3.08750885261247       -0.44822009384129       -1.29326656605487
O           -4.03088480453760        0.04269975759982       -2.00763540796577
H           -3.73197859303790        2.31276709945982        2.56909862988139
H           -5.10292944151646        2.77453493287597        1.52487989191262
H           -4.90338691688049        1.07797779580576        2.04863917492144
H           -1.32329811611165        2.55185157884938       -1.04629942761002
H           -1.38458901893080        1.54009563297212       -2.49907301153805
H           -2.88386557078769        2.18213760622414       -1.80657445268038
H           -0.13395295190483       -3.36274672901628        1.52215629021474
H            1.58171492291981       -3.01968755172533        1.76868980779303
H            0.36095796616010       -1.82145480826462        2.24274920490641
H            1.11147627607616       -2.53612937588289       -1.93730776548021
H            0.26911432805477       -3.77100466850972       -0.98432150439186
H            1.99291337960167       -3.47573551085407       -0.71806858001464
H            1.32981855065776        0.05902518963853       -0.05123526858138
H            3.29257518264314        4.07233447282521        0.81989950175081
H            4.99255949200940        4.21775088778868        0.32852393007034
H            3.73021541553677        3.92594193467591       -0.88411018994344
H           -1.60321519217343       -3.11217318895427       -0.07708070831416
 
 Bond Distances (Angstroems)
 ---------------------------
C1-O2=1.4204         C1-H26=1.0947        C1-H27=1.0891        C1-H28=1.0951        O2-C1=1.4204         O2-C3=1.3613         
C3-O2=1.3613         C3-O4=1.2238         C3-C5=1.5173         O4-C3=1.2238         C5-C3=1.5173         C5-C6=1.5302         
C5-N7=1.4540         C5-C24=1.5580        C6-C5=1.5302         C6-H29=1.0890        C6-H30=1.0900        C6-H31=1.0895        
N7-C5=1.4540         N7-C8=1.2831         C8-N7=1.2831         C8-C9=1.5259         C8-N21=1.3589        C9-C8=1.5259         
C9-C10=1.5387        C9-C11=1.5383        C9-N12=1.4546        C10-C9=1.5387        C10-H32=1.0885       C10-H33=1.0888       
C10-H34=1.0900       C11-C9=1.5383        C11-H35=1.0899       C11-H36=1.0888       C11-H37=1.0890       N12-C9=1.4546        
N12-C13=1.3741       N12-H38=1.0142       C13-N12=1.3741       C13-O14=1.2523       C13-C15=1.4372       O14-C13=1.2523       
C15-C13=1.4372       C15-N16=1.3339       C15-O20=1.3834       N16-C15=1.3339       N16-N17=1.3671       N17-N16=1.3671       
N17-C18=1.2931       C18-N17=1.2931       C18-C19=1.4840       C18-O20=1.3560       C19-C18=1.4840       C19-H39=1.0903       
C19-H40=1.0874       C19-H41=1.0906       O20-C15=1.3834       O20-C18=1.3560       N21-C8=1.3589        N21-C22=1.4422       
N21-H42=1.0073       C22-N21=1.4422       C22-O23=1.2678       C22-C24=1.4077       O23-C22=1.2678       C24-C5=1.5580        
C24-C22=1.4077       C24-O25=1.2811       O25-C24=1.2811       H26-C1=1.0947        H27-C1=1.0891        H28-C1=1.0951        
H29-C6=1.0890        H30-C6=1.0900        H31-C6=1.0895        H32-C10=1.0885       H33-C10=1.0888       H34-C10=1.0900       
H35-C11=1.0899       H36-C11=1.0888       H37-C11=1.0890       H38-N12=1.0142       H39-C19=1.0903       H40-C19=1.0874       
H41-C19=1.0906       H42-N21=1.0073       
 C  H  Rav=1.0900 sigma=0.0021  Rmin=1.0874  Rmax=1.0951    15
 C  C  Rav=1.5041 sigma=0.0481  Rmin=1.4077  Rmax=1.5580     9
 N  H  Rav=1.0107 sigma=0.0035  Rmin=1.0073  Rmax=1.0142     2
 N  C  Rav=1.3742 sigma=0.0654  Rmin=1.2831  Rmax=1.4546     8
 N  N  Rav=1.3671 sigma=0.0000  Rmin=1.3671  Rmax=1.3671     1
 O  C  Rav=1.3183 sigma=0.0663  Rmin=1.2238  Rmax=1.4204     8
 
 selected bond angles (degree)
 --------------------
H26-C1-O2=110.61               H27-C1-O2=107.12               H27-C1-H26=109.57              H28-C1-O2=111.03               
H28-C1-H26=108.73              H28-C1-H27=109.77              C3-O2-C1=116.08                O4-C3-O2=121.23                
C5-C3-O2=112.49                C5-C3-O4=125.99                C6-C5-C3=112.46                N7-C5-C3=109.94                
N7-C5-C6=109.41                C24-C5-C3= 99.10               C24-C5-C6=111.21               C24-C5-N7=114.46               
H29-C6-C5=110.57               H30-C6-C5=109.36               H30-C6-H29=108.77              H31-C6-C5=110.21               
H31-C6-H29=109.11              H31-C6-H30=108.78              C8-N7-C5=117.55                C9-C8-N7=119.45                
N21-C8-N7=123.52               N21-C8-C9=117.03               C10-C9-C8=109.26               C11-C9-C8=109.47               
C11-C9-C10=110.65              N12-C9-C8=107.19               N12-C9-C10=110.30              N12-C9-C11=109.90              
H32-C10-C9=110.19              H33-C10-C9=110.26              H33-C10-H32=108.49             H34-C10-C9=109.89              
H34-C10-H32=108.86             H34-C10-H33=109.11             
 
 selected dihedral angles (degree)
 ---------------------------------
C3-O2-C1-H26= 61.71           C3-O2-C1-H27=181.07           C3-O2-C1-H28=300.91           O4-C3-O2-C1=358.80            
C5-C3-O2-C1=172.94            C6-C5-C3-O2= 34.60            C6-C5-C3-O4=208.40            N7-C5-C3-O2=156.77            
N7-C5-C3-O4=330.57            C24-C5-C3-O2=277.05           C24-C5-C3-O4= 90.84           H29-C6-C5-C3= 57.41           
H29-C6-C5-N7=294.94           H29-C6-C5-C24=167.53          H30-C6-C5-C3=177.16           H30-C6-C5-N7= 54.69           
H30-C6-C5-C24=287.28          H31-C6-C5-C3=296.69           H31-C6-C5-N7=174.22           H31-C6-C5-C24= 46.81          
C8-N7-C5-C3= 79.05            C8-N7-C5-C6=203.01            C8-N7-C5-C24=328.57           C9-C8-N7-C5=185.56            
N21-C8-N7-C5=  5.53           C10-C9-C8-N7=122.46           C10-C9-C8-N21=302.49          C11-C9-C8-N7=243.78           
C11-C9-C8-N21= 63.81          N12-C9-C8-N7=  2.94           N12-C9-C8-N21=182.97          H32-C10-C9-C8= 61.41          
H32-C10-C9-C11=300.81         H32-C10-C9-N12=178.99         H33-C10-C9-C8=181.14          H33-C10-C9-C11= 60.54         
H33-C10-C9-N12=298.73         H34-C10-C9-C8=301.46          H34-C10-C9-C11=180.86         H34-C10-C9-N12= 59.04         
           -------------------------------------------------
          |                Final Singlepoint                |
           -------------------------------------------------

          ...................................................
          :                      SETUP                      :
          :.................................................:
          :  # basis functions                 134          :
          :  # atomic orbitals                 134          :
          :  # shells                           84          :
          :  # electrons                       136          :
          :  # halogen bonds                     0          :
          :  max. iterations                   250          :
          :  Hamiltonian                  GFN1-xTB          :
          :  restarted?                      false          :
          :  GBSA solvation                   true          :
          :  PC potential                    false          :
          :  electronic temp.          300.0000000     K    :
          :  accuracy                    1.0000000          :
          :  -> integral cutoff          0.2500000E+02      :
          :  -> integral neglect         0.1000000E-07      :
          :  -> SCF convergence          0.1000000E-05 Eh   :
          :  -> wf. convergence          0.2000000E-04 e    :
          :  Broyden damping             0.4000000          :
          ...................................................

 iter      E             dE          RMSdq      gap      omega  full diag
   1    -84.3426892 -0.843427E+02  0.469E-06    0.04       0.0  T
   2    -84.3426892  0.129920E-08  0.947E-05    0.04     162.9  T
   3    -84.3426892 -0.130245E-08  0.661E-07    0.04   23341.8  T

   *** convergence criteria satisfied after 3 iterations ***

         #    Occupation            Energy/Eh            Energy/eV
      -------------------------------------------------------------
         1        2.0000           -0.8055062             -21.9189
       ...           ...                  ...                  ...
        62        2.0000           -0.4021466             -10.9430
        63        2.0000           -0.3980520             -10.8315
        64        2.0000           -0.3891972             -10.5906
        65        2.0000           -0.3784917             -10.2993
        66        2.0000           -0.3739122             -10.1747
        67        2.0000           -0.3420976              -9.3090
        68        1.4021           -0.2668590              -7.2616 (HOMO)
        69        0.5979           -0.2652394              -7.2175 (LUMO)
        70                         -0.2183326              -5.9411
        71                         -0.2125319              -5.7833
        72                         -0.2009328              -5.4677
        73                         -0.1403966              -3.8204
       ...                                ...                  ...
       134                          0.7162491              19.4901
      -------------------------------------------------------------
                  HL-Gap            0.0016196 Eh            0.0441 eV
             Fermi-level           -0.2660492 Eh           -7.2396 eV

 SCC (total)                   0 d,  0 h,  0 min,  0.129 sec
 SCC setup                      ...        0 min,  0.002 sec (  1.466%)
 Dispersion                     ...        0 min,  0.000 sec (  0.266%)
 classical contributions        ...        0 min,  0.000 sec (  0.089%)
 integral evaluation            ...        0 min,  0.034 sec ( 26.745%)
 iterations                     ...        0 min,  0.011 sec (  8.886%)
 molecular gradient             ...        0 min,  0.079 sec ( 61.823%)
 printout                       ...        0 min,  0.001 sec (  0.688%)

         :::::::::::::::::::::::::::::::::::::::::::::::::::::
         ::                     SUMMARY                     ::
         :::::::::::::::::::::::::::::::::::::::::::::::::::::
         :: total energy             -83.614656047867 Eh    ::
         :: total w/o Gsasa/hb       -83.595807186212 Eh    ::
         :: gradient norm              0.000320625159 Eh/a0 ::
         :: HOMO-LUMO gap              0.044072048303 eV    ::
         ::.................................................::
         :: SCC energy               -84.342689238704 Eh    ::
         :: -> electrostatic           0.702583145378 Eh    ::
         :: -> Gsolv                  -0.270020753442 Eh    ::
         ::    -> Gelec               -0.251171891787 Eh    ::
         ::    -> Gsasa               -0.023967778468 Eh    ::
         ::    -> Ghb                 -0.002505362193 Eh    ::
         ::    -> Gshift               0.007624279005 Eh    ::
         :: repulsion energy           0.754714485269 Eh    ::
         :: dispersion energy         -0.026681294431 Eh    ::
         :: halogen bond corr.         0.000000000000 Eh    ::
         :: add. restraining           0.000000000000 Eh    ::
         :: total charge              -2.000000000000 e     ::
         :::::::::::::::::::::::::::::::::::::::::::::::::::::

           -------------------------------------------------
          |                Property Printout                |
           -------------------------------------------------

    * Orbital Energies and Occupations

         #    Occupation            Energy/Eh            Energy/eV
      -------------------------------------------------------------
         1        2.0000           -0.8055062             -21.9189
       ...           ...                  ...                  ...
        56        2.0000           -0.4431654             -12.0591
        57        2.0000           -0.4386888             -11.9373
        58        2.0000           -0.4304004             -11.7118
        59        2.0000           -0.4211420             -11.4599
        60        2.0000           -0.4093552             -11.1391
        61        2.0000           -0.4053760             -11.0308
        62        2.0000           -0.4021466             -10.9430
        63        2.0000           -0.3980520             -10.8315
        64        2.0000           -0.3891972             -10.5906
        65        2.0000           -0.3784917             -10.2993
        66        2.0000           -0.3739122             -10.1747
        67        2.0000           -0.3420976              -9.3090
        68        1.4021           -0.2668590              -7.2616 (HOMO)
        69        0.5979           -0.2652394              -7.2175 (LUMO)
        70                         -0.2183326              -5.9411
        71                         -0.2125319              -5.7833
        72                         -0.2009328              -5.4677
        73                         -0.1403966              -3.8204
        74                         -0.1252827              -3.4091
        75                         -0.1203548              -3.2750
        76                         -0.1108554              -3.0165
        77                         -0.1033382              -2.8120
        78                         -0.0964524              -2.6246
        79                         -0.0856107              -2.3296
       ...                                ...                  ...
       134                          0.7162491              19.4901
      -------------------------------------------------------------
                  HL-Gap            0.0016196 Eh            0.0441 eV
             Fermi-level           -0.2660492 Eh           -7.2396 eV

  Mulliken/CM5 charges         n(s)   n(p)   n(d)
     1C     0.17495  0.05543   0.970  2.855  0.000
     2O    -0.43802 -0.52593   1.691  4.747  0.000
     3C     0.53021  0.59302   0.993  2.477  0.000
     4O    -0.62009 -0.66430   1.736  4.884  0.000
     5C     0.11062  0.16469   1.068  2.822  0.000
     6C    -0.07546 -0.21233   1.005  3.070  0.000
     7N    -0.47426 -0.66076   1.550  3.924  0.000
     8C     0.28044  0.43404   1.012  2.708  0.000
     9C     0.15706  0.19886   1.059  2.784  0.000
    10C    -0.09577 -0.23519   1.014  3.081  0.000
    11C    -0.09710 -0.23652   1.015  3.082  0.000
    12N    -0.36723 -0.71169   1.425  3.942  0.000
    13C     0.39927  0.50139   0.970  2.631  0.000
    14O    -0.67153 -0.71460   1.743  4.928  0.000
    15C     0.27283  0.38878   1.004  2.723  0.000
    16N    -0.32392 -0.41981   1.582  3.742  0.000
    17N    -0.30909 -0.41684   1.570  3.739  0.000
    18C     0.35842  0.46693   0.994  2.648  0.000
    19C    -0.10942 -0.24664   1.008  3.101  0.000
    20O    -0.40533 -0.45892   1.709  4.696  0.000
    21N    -0.36017 -0.70196   1.442  3.918  0.000
    22C     0.33604  0.42519   0.987  2.677  0.000
    23O    -0.71565 -0.75087   1.756  4.960  0.000
    24C     0.19552  0.23622   1.023  2.782  0.000
    25O    -0.70702 -0.74772   1.762  4.945  0.000
    26H     0.03062  0.09208   0.969  0.000  0.000
    27H     0.03275  0.09299   0.967  0.000  0.000
    28H     0.03382  0.09530   0.966  0.000  0.000
    29H     0.01142  0.06783   0.989  0.000  0.000
    30H     0.01902  0.07549   0.981  0.000  0.000
    31H     0.03007  0.09145   0.970  0.000  0.000
    32H     0.02564  0.08239   0.974  0.000  0.000
    33H     0.04171  0.10205   0.958  0.000  0.000
    34H     0.02933  0.08621   0.971  0.000  0.000
    35H     0.02663  0.08325   0.973  0.000  0.000
    36H     0.02586  0.08228   0.974  0.000  0.000
    37H     0.04258  0.10262   0.957  0.000  0.000
    38H     0.22434  0.43787   0.776  0.000  0.000
    39H     0.05657  0.11090   0.943  0.000  0.000
    40H     0.04816  0.10409   0.952  0.000  0.000
    41H     0.05644  0.11059   0.944  0.000  0.000
    42H     0.21974  0.42211   0.780  0.000  0.000

Wiberg/Mayer (AO) data.
largest (>0.10) Wiberg bond orders for each atom

 ---------------------------------------------------------------------------
     #   Z sym  total        # sym  WBO       # sym  WBO       # sym  WBO
 ---------------------------------------------------------------------------
     1   6 C    3.899 --    27 H    0.987    26 H    0.981    28 H    0.981
                             2 O    0.923
     2   8 O    2.149 --     3 C    1.039     1 C    0.923     4 O    0.106
     3   6 C    3.781 --     4 O    1.592     2 O    1.039     5 C    0.948
     4   8 O    1.849 --     3 C    1.592     2 O    0.106
     5   6 C    3.957 --     6 C    0.993     7 N    0.977     3 C    0.948
                            24 C    0.872
     6   6 C    3.991 --     5 C    0.993    29 H    0.988    30 H    0.987
                            31 H    0.983
     7   7 N    2.966 --     8 C    1.653     5 C    0.977    21 N    0.149
     8   6 C    3.934 --     7 N    1.653    21 N    1.179     9 C    0.970
     9   6 C    3.951 --    11 C    0.982    10 C    0.982     8 C    0.970
                            12 N    0.949
    10   6 C    3.991 --    34 H    0.986    32 H    0.985     9 C    0.982
                            33 H    0.981
    11   6 C    3.991 --    35 H    0.987    36 H    0.985     9 C    0.982
                            37 H    0.981
    12   7 N    3.210 --    13 C    1.153     9 C    0.949    38 H    0.892
                            14 O    0.128
    13   6 C    3.781 --    14 O    1.433    12 N    1.153    15 C    1.127
    14   8 O    1.694 --    13 C    1.433    12 N    0.128
    15   6 C    3.688 --    16 N    1.419    13 C    1.127    20 O    0.973
    16   7 N    2.746 --    15 C    1.419    17 N    1.190
    17   7 N    2.981 --    18 C    1.627    16 N    1.190
    18   6 C    3.815 --    17 N    1.627    20 O    1.043    19 C    1.024
    19   6 C    3.994 --    18 C    1.024    40 H    0.986    39 H    0.972
                            41 H    0.970
    20   8 O    2.184 --    18 C    1.043    15 C    0.973
    21   7 N    3.316 --     8 C    1.179    22 C    0.944    42 H    0.915
                             7 N    0.149
    22   6 C    3.750 --    23 O    1.379    24 C    1.265    21 N    0.944
    23   8 O    1.598 --    22 C    1.379
    24   6 C    3.745 --    25 O    1.357    22 C    1.265     5 C    0.872
    25   8 O    1.571 --    24 C    1.357
    26   1 H    1.014 --     1 C    0.981
    27   1 H    1.016 --     1 C    0.987
    28   1 H    1.013 --     1 C    0.981
    29   1 H    1.010 --     6 C    0.988
    30   1 H    1.013 --     6 C    0.987
    31   1 H    1.028 --     6 C    0.983
    32   1 H    1.005 --    10 C    0.985
    33   1 H    1.018 --    10 C    0.981
    34   1 H    1.008 --    10 C    0.986
    35   1 H    1.008 --    11 C    0.987
    36   1 H    1.006 --    11 C    0.985
    37   1 H    1.019 --    11 C    0.981
    38   1 H    0.982 --    12 N    0.892
    39   1 H    1.000 --    19 C    0.972
    40   1 H    1.004 --    19 C    0.986
    41   1 H    1.000 --    19 C    0.970
    42   1 H    0.970 --    21 N    0.915
 ---------------------------------------------------------------------------

Topologies differ in total number of bonds
Writing topology from bond orders to xtbtopo.mol

 dipole moment from electron density (au)
     X       Y       Z   
   2.0634   4.3530   1.8183  total (Debye):   13.088

           -------------------------------------------------
          |                Geometry Summary                 |
           -------------------------------------------------

      molecular mass/u    :      351.3152409
   center of mass at/Å    :        0.0499363      -0.1374320       0.0077293
  moments of inertia/u·Å² :        0.1454798E+04   0.3866220E+04   0.4692582E+04
rotational constants/cm⁻¹ :        0.1158761E-01   0.4360236E-02   0.3592400E-02

 * 34 selected distances

     #   Z          #   Z                                           value/Å
     1   6 C        2   8 O                                       1.4203816
     2   8 O        3   6 C                                       1.3613181
     3   6 C        4   8 O                                       1.2237735
     5   6 C        6   6 C                                       1.5302111
     7   7 N        8   6 C                                       1.2831137
     9   6 C       10   6 C                                       1.5387499 (max)
     9   6 C       11   6 C                                       1.5383498
     9   6 C       12   7 N                                       1.4546391
    12   7 N       13   6 C                                       1.3741077
    13   6 C       15   6 C                                       1.4371866
    15   6 C       16   7 N                                       1.3339342
    17   7 N       18   6 C                                       1.2930937
    18   6 C       19   6 C                                       1.4839718
    15   6 C       20   8 O                                       1.3834061
    18   6 C       20   8 O                                       1.3559981
     8   6 C       21   7 N                                       1.3589391
    22   6 C       24   6 C                                       1.4077209
     1   6 C       26   1 H                                       1.0946891
     1   6 C       27   1 H                                       1.0891084
     1   6 C       28   1 H                                       1.0951407
     6   6 C       29   1 H                                       1.0890180
     6   6 C       30   1 H                                       1.0899520
     6   6 C       31   1 H                                       1.0895305
    10   6 C       32   1 H                                       1.0884841
    10   6 C       33   1 H                                       1.0887959
    10   6 C       34   1 H                                       1.0899673
    11   6 C       35   1 H                                       1.0898986
    11   6 C       36   1 H                                       1.0888138
    11   6 C       37   1 H                                       1.0889926
    12   7 N       38   1 H                                       1.0142473
    19   6 C       39   1 H                                       1.0902851
    19   6 C       40   1 H                                       1.0874063
    19   6 C       41   1 H                                       1.0905543
    21   7 N       42   1 H                                       1.0072516 (min)

 * 5 distinct bonds (by element types)

   Z      Z             #   av. dist./Å        max./Å        min./Å
   1 H    6 C          15     1.0900424     1.0951407     1.0874063
   6 C    6 C           6     1.4893650     1.5387499     1.4077209
   1 H    7 N           2     1.0107494     1.0142473     1.0072516
   6 C    7 N           6     1.3496379     1.4546391     1.2831137
   6 C    8 O           5     1.3489755     1.4203816     1.2237735


optimized geometry written to: xtbopt.xyz


           -------------------------------------------------
          | TOTAL ENERGY              -83.614656047867 Eh   |
          | GRADIENT NORM               0.000320625159 Eh/α |
          | HOMO-LUMO GAP               0.044072048303 eV   |
           -------------------------------------------------

------------------------------------------------------------------------
 * finished run on 2023/06/21 at 17:10:26.514     
------------------------------------------------------------------------
 total:
 * wall-time:     0 d,  0 h,  0 min,  7.405 sec
 *  cpu-time:     0 d,  0 h,  0 min,  7.210 sec
 * ratio c/w:     0.974 speedup
 SCF:
 * wall-time:     0 d,  0 h,  0 min,  0.213 sec
 *  cpu-time:     0 d,  0 h,  0 min,  0.193 sec
 * ratio c/w:     0.906 speedup
 ANC optimizer:
 * wall-time:     0 d,  0 h,  0 min,  7.003 sec
 *  cpu-time:     0 d,  0 h,  0 min,  6.969 sec
 * ratio c/w:     0.995 speedup

