
                                 *****************
                                 * O   R   C   A *
                                 *****************

                                            #,                                       
                                            ###                                      
                                            ####                                     
                                            #####                                    
                                            ######                                   
                                           ########,                                 
                                     ,,################,,,,,                         
                               ,,#################################,,                 
                          ,,##########################################,,             
                       ,#########################################, ''#####,          
                    ,#############################################,,   '####,        
                  ,##################################################,,,,####,       
                ,###########''''           ''''###############################       
              ,#####''   ,,,,##########,,,,          '''####'''          '####       
            ,##' ,,,,###########################,,,                        '##       
           ' ,,###''''                  '''############,,,                           
         ,,##''                                '''############,,,,        ,,,,,,###''
      ,#''                                            '''#######################'''  
     '                                                          ''''####''''         
             ,#######,   #######,   ,#######,      ##                                
            ,#'     '#,  ##    ##  ,#'     '#,    #''#        ######   ,####,        
            ##       ##  ##   ,#'  ##            #'  '#       #        #'  '#        
            ##       ##  #######   ##           ,######,      #####,   #    #        
            '#,     ,#'  ##    ##  '#,     ,#' ,#      #,         ##   #,  ,#        
             '#######'   ##     ##  '#######'  #'      '#     #####' # '####'        



                  #######################################################
                  #                        -***-                        #
                  #          Department of theory and spectroscopy      #
                  #    Directorship and core code : Frank Neese         #
                  #        Max Planck Institute fuer Kohlenforschung    #
                  #                Kaiser Wilhelm Platz 1               #
                  #                 D-45470 Muelheim/Ruhr               #
                  #                      Germany                        #
                  #                                                     #
                  #                  All rights reserved                #
                  #                        -***-                        #
                  #######################################################


                         Program Version 5.0.1 -  RELEASE  -


 With contributions from (in alphabetic order):
   Daniel Aravena         : Magnetic Suceptibility
   Michael Atanasov       : Ab Initio Ligand Field Theory (pilot matlab implementation)
   Alexander A. Auer      : GIAO ZORA, VPT2 properties, NMR spectrum
   Ute Becker             : Parallelization
   Giovanni Bistoni       : ED, misc. LED, open-shell LED, HFLD
   Martin Brehm           : Molecular dynamics
   Dmytro Bykov           : SCF Hessian
   Vijay G. Chilkuri      : MRCI spin determinant printing, contributions to CSF-ICE
   Dipayan Datta          : RHF DLPNO-CCSD density
   Achintya Kumar Dutta   : EOM-CC, STEOM-CC
   Dmitry Ganyushin       : Spin-Orbit,Spin-Spin,Magnetic field MRCI
   Miquel Garcia          : C-PCM and meta-GGA Hessian, CC/C-PCM, Gaussian charge scheme
   Yang Guo               : DLPNO-NEVPT2, F12-NEVPT2, CIM, IAO-localization
   Andreas Hansen         : Spin unrestricted coupled pair/coupled cluster methods
   Benjamin Helmich-Paris : MC-RPA, TRAH-SCF, COSX integrals
   Lee Huntington         : MR-EOM, pCC
   Robert Izsak           : Overlap fitted RIJCOSX, COSX-SCS-MP3, EOM
   Marcus Kettner         : VPT2
   Christian Kollmar      : KDIIS, OOCD, Brueckner-CCSD(T), CCSD density, CASPT2, CASPT2-K
   Simone Kossmann        : Meta GGA functionals, TD-DFT gradient, OOMP2, MP2 Hessian
   Martin Krupicka        : Initial AUTO-CI
   Lucas Lang             : DCDCAS
   Marvin Lechner         : AUTO-CI (C++ implementation), FIC-MRCC
   Dagmar Lenk            : GEPOL surface, SMD
   Dimitrios Liakos       : Extrapolation schemes; Compound Job, initial MDCI parallelization
   Dimitrios Manganas     : Further ROCIS development; embedding schemes
   Dimitrios Pantazis     : SARC Basis sets
   Anastasios Papadopoulos: AUTO-CI, single reference methods and gradients
   Taras Petrenko         : DFT Hessian,TD-DFT gradient, ASA, ECA, R-Raman, ABS, FL, XAS/XES, NRVS
   Peter Pinski           : DLPNO-MP2, DLPNO-MP2 Gradient
   Christoph Reimann      : Effective Core Potentials
   Marius Retegan         : Local ZFS, SOC
   Christoph Riplinger    : Optimizer, TS searches, QM/MM, DLPNO-CCSD(T), (RO)-DLPNO pert. Triples
   Tobias Risthaus        : Range-separated hybrids, TD-DFT gradient, RPA, STAB
   Michael Roemelt        : Original ROCIS implementation
   Masaaki Saitow         : Open-shell DLPNO-CCSD energy and density
   Barbara Sandhoefer     : DKH picture change effects
   Avijit Sen             : IP-ROCIS
   Kantharuban Sivalingam : CASSCF convergence, NEVPT2, FIC-MRCI
   Bernardo de Souza      : ESD, SOC TD-DFT
   Georgi Stoychev        : AutoAux, RI-MP2 NMR, DLPNO-MP2 response
   Willem Van den Heuvel  : Paramagnetic NMR
   Boris Wezisla          : Elementary symmetry handling
   Frank Wennmohs         : Technical directorship


 We gratefully acknowledge several colleagues who have allowed us to
 interface, adapt or use parts of their codes:
   Stefan Grimme, W. Hujo, H. Kruse, P. Pracht,  : VdW corrections, initial TS optimization,
                  C. Bannwarth, S. Ehlert          DFT functionals, gCP, sTDA/sTD-DF
   Ed Valeev, F. Pavosevic, A. Kumar             : LibInt (2-el integral package), F12 methods
   Garnet Chan, S. Sharma, J. Yang, R. Olivares  : DMRG
   Ulf Ekstrom                                   : XCFun DFT Library
   Mihaly Kallay                                 : mrcc  (arbitrary order and MRCC methods)
   Jiri Pittner, Ondrej Demel                    : Mk-CCSD
   Frank Weinhold                                : gennbo (NPA and NBO analysis)
   Christopher J. Cramer and Donald G. Truhlar   : smd solvation model
   Lars Goerigk                                  : TD-DFT with DH, B97 family of functionals
   V. Asgeirsson, H. Jonsson                     : NEB implementation
   FAccTs GmbH                                   : IRC, NEB, NEB-TS, DLPNO-Multilevel, CI-OPT
                                                   MM, QMMM, 2- and 3-layer-ONIOM, Crystal-QMMM,
                                                   LR-CPCM, SF, NACMEs, symmetry and pop. for TD-DFT,
                                                   nearIR, NL-DFT gradient (VV10), updates on ESD,
                                                   ML-optimized integration grids
   S Lehtola, MJT Oliveira, MAL Marques          : LibXC Library
   Liviu Ungur et al                             : ANISO software


 Your calculation uses the libint2 library for the computation of 2-el integrals
 For citations please refer to: http://libint.valeyev.net

 Your ORCA version has been built with support for libXC version: 5.1.0
 For citations please refer to: https://tddft.org/programs/libxc/

 This ORCA versions uses:
   CBLAS   interface :  Fast vector & matrix operations
   LAPACKE interface :  Fast linear algebra routines
   SCALAPACK package :  Parallel linear algebra routines
   Shared memory     :  Shared parallel matrices
   BLAS/LAPACK       :  OpenBLAS 0.3.15  USE64BITINT DYNAMIC_ARCH NO_AFFINITY Zen SINGLE_THREADED
        Core in use  :  Zen
   Copyright (c) 2011-2014, The OpenBLAS Project


Your calculation utilizes the geometrical counterpoise correction gCP
Please cite in your paper:
H.Kruse, S. Grimme J.Chem.Phys., 136, (2012), 154101 
   

Your calculation utilizes the atom-pairwise dispersion correction
based on tight binding partial charges (D4)
Cite in your paper:
E.Caldeweyher, C.Bannwarth, S.Grimme, J.Chem.Phys., (2017), 147, 034112.
E.Caldeweyher, S.Ehlert, A.Hansen, H.Neugebauer, S.Grimme, J.Chem.Phys., (2018), in progress.
   

Your calculation utilizes the SMD solvation module
Please cite in your paper:
A.V. Marenich, C.J. Cramer, D.G. Truhlar J. Phys. Chem. B, 113, (2009), 6378 

================================================================================

----- Orbital basis set information -----
Your calculation utilizes the basis: def2-mTZVPP
   Stefan Grimme, Andreas Hansen, Sebastian Ehlert, and Jan-Michael Mewes 
   J. Chem. Phys. 154, 000000 (2021). DOI: 10.1063/5.0040021

----- AuxJ basis set information -----
Your calculation utilizes the basis: def2-mTZVPP/J
   Stefan Grimme, Andreas Hansen, Sebastian Ehlert, and Jan-Michael Mewes 
   J. Chem. Phys. 154, 000000 (2021). DOI: 10.1063/5.0040021

================================================================================
                                        WARNINGS
                       Please study these warnings very carefully!
================================================================================

Using LibXC functional ID 497 : Re-regularized SCAN exchange by Furness et al
[ 1]  J. W. Furness, A. D. Kaplan, J. Ning, J. P. Perdew, and J. Sun, J. Phys. Chem. Lett. 11, 8208 (2020)
[ 2]  J. W. Furness, A. D. Kaplan, J. Ning, J. P. Perdew, and J. Sun, J. Phys. Chem. Lett. 11, 9248 (2020)
Using LibXC functional ID 498 : Re-regularized SCAN correlation by Furness et al
[ 1]  J. W. Furness, A. D. Kaplan, J. Ning, J. P. Perdew, and J. Sun, J. Phys. Chem. Lett. 11, 8208 (2020)
[ 2]  J. W. Furness, A. D. Kaplan, J. Ning, J. P. Perdew, and J. Sun, J. Phys. Chem. Lett. 11, 9248 (2020)
Using LibXC functional ID 497 : Re-regularized SCAN exchange by Furness et al
[ 1]  J. W. Furness, A. D. Kaplan, J. Ning, J. P. Perdew, and J. Sun, J. Phys. Chem. Lett. 11, 8208 (2020)
[ 2]  J. W. Furness, A. D. Kaplan, J. Ning, J. P. Perdew, and J. Sun, J. Phys. Chem. Lett. 11, 9248 (2020)
Using LibXC functional ID 498 : Re-regularized SCAN correlation by Furness et al
[ 1]  J. W. Furness, A. D. Kaplan, J. Ning, J. P. Perdew, and J. Sun, J. Phys. Chem. Lett. 11, 8208 (2020)
[ 2]  J. W. Furness, A. D. Kaplan, J. Ning, J. P. Perdew, and J. Sun, J. Phys. Chem. Lett. 11, 9248 (2020)

INFO   : the flag for use of the SHARK integral package has been found!

================================================================================
                                       INPUT FILE
================================================================================
NAME = /lustre/hpc/kemi/ree/PhD/git/ReactivityQM/calculations/R02oxygendeprot/reac01prodN09/conf03/gfn1/orca_calc.inp
|  1> # ORCA input file 
|  2> ! SP r2SCAN-3c CPCM 
|  3> 
|  4> %maxcore 1875.0 
|  5> %pal nprocs 4 end 
|  6> %cpcm smd true SMDsolvent "DMSO" end 
|  7> 
|  8> *xyz 0 1
|  9> C      -5.985268    0.552192   -0.575793
| 10> O      -4.892939    0.266198    0.312329
| 11> C      -3.701335    0.121979   -0.227982
| 12> C      -3.026472    0.299532    2.229543
| 13> O      -3.457056    0.190794   -1.402942
| 14> C      -2.618310   -0.197161    0.842557
| 15> N      -1.420955    0.488138    0.414939
| 16> C      -0.582081   -0.079356   -0.348877
| 17> C       0.607717    0.721108   -0.861545
| 18> C       0.580207    2.118599   -0.240524
| 19> C       0.553814    0.827653   -2.390471
| 20> N       1.860439    0.091221   -0.423045
| 21> C       2.412582   -1.026555   -0.930032
| 22> O       1.907826   -1.754657   -1.774189
| 23> C       3.736682   -1.326715   -0.335424
| 24> N       4.518761   -2.326318   -0.600771
| 25> N       5.620587   -2.183549    0.186736
| 26> C       5.444708   -1.105183    0.885320
| 27> C       6.353940   -0.512373    1.889314
| 28> O       4.271204   -0.515409    0.603372
| 29> N      -0.689392   -1.392281   -0.774361
| 30> C      -1.567489   -2.291777   -0.258286
| 31> O      -1.587468   -3.457462   -0.587534
| 32> C      -2.516749   -1.712198    0.798122
| 33> O      -3.164356   -2.427260    1.517551
| 34> H      -6.876429    0.610576    0.044609
| 35> H      -6.080837   -0.245286   -1.315117
| 36> H      -5.807861    1.502504   -1.082022
| 37> H      -3.897775   -0.249965    2.580576
| 38> H      -3.258364    1.360892    2.186936
| 39> H      -2.200154    0.143365    2.920320
| 40> H       1.432451    2.696124   -0.592383
| 41> H       0.616537    2.049797    0.845321
| 42> H      -0.338436    2.628866   -0.524761
| 43> H       1.424208    1.377523   -2.743334
| 44> H      -0.348175    1.366589   -2.676692
| 45> H       0.542322   -0.152807   -2.861136
| 46> H       2.389558    0.600536    0.265949
| 47> H       6.656921    0.485077    1.570905
| 48> H       7.233377   -1.141225    2.007018
| 49> H       5.839071   -0.416844    2.845035
| 50> H       0.014984   -1.747404   -1.419232
| 51> **                         ****END OF INPUT****
================================================================================

                       ****************************
                       * Single Point Calculation *
                       ****************************

---------------------------------
CARTESIAN COORDINATES (ANGSTROEM)
---------------------------------
  C     -5.985268    0.552192   -0.575793
  O     -4.892939    0.266198    0.312329
  C     -3.701335    0.121979   -0.227982
  C     -3.026472    0.299532    2.229543
  O     -3.457056    0.190794   -1.402942
  C     -2.618310   -0.197161    0.842557
  N     -1.420955    0.488138    0.414939
  C     -0.582081   -0.079356   -0.348877
  C      0.607717    0.721108   -0.861545
  C      0.580207    2.118599   -0.240524
  C      0.553814    0.827653   -2.390471
  N      1.860439    0.091221   -0.423045
  C      2.412582   -1.026555   -0.930032
  O      1.907826   -1.754657   -1.774189
  C      3.736682   -1.326715   -0.335424
  N      4.518761   -2.326318   -0.600771
  N      5.620587   -2.183549    0.186736
  C      5.444708   -1.105183    0.885320
  C      6.353940   -0.512373    1.889314
  O      4.271204   -0.515409    0.603372
  N     -0.689392   -1.392281   -0.774361
  C     -1.567489   -2.291777   -0.258286
  O     -1.587468   -3.457462   -0.587534
  C     -2.516749   -1.712198    0.798122
  O     -3.164356   -2.427260    1.517551
  H     -6.876429    0.610576    0.044609
  H     -6.080837   -0.245286   -1.315117
  H     -5.807861    1.502504   -1.082022
  H     -3.897775   -0.249965    2.580576
  H     -3.258364    1.360892    2.186936
  H     -2.200154    0.143365    2.920320
  H      1.432451    2.696124   -0.592383
  H      0.616537    2.049797    0.845321
  H     -0.338436    2.628866   -0.524761
  H      1.424208    1.377523   -2.743334
  H     -0.348175    1.366589   -2.676692
  H      0.542322   -0.152807   -2.861136
  H      2.389558    0.600536    0.265949
  H      6.656921    0.485077    1.570905
  H      7.233377   -1.141225    2.007018
  H      5.839071   -0.416844    2.845035
  H      0.014984   -1.747404   -1.419232

----------------------------
CARTESIAN COORDINATES (A.U.)
----------------------------
  NO LB      ZA    FRAG     MASS         X           Y           Z
   0 C     6.0000    0    12.011  -11.310517    1.043492   -1.088091
   1 O     8.0000    0    15.999   -9.246315    0.503041    0.590216
   2 C     6.0000    0    12.011   -6.994509    0.230507   -0.430824
   3 C     6.0000    0    12.011   -5.719203    0.566033    4.213226
   4 O     8.0000    0    15.999   -6.532889    0.360548   -2.651176
   5 C     6.0000    0    12.011   -4.947889   -0.372580    1.592202
   6 N     7.0000    0    14.007   -2.685216    0.922447    0.784121
   7 C     6.0000    0    12.011   -1.099974   -0.149961   -0.659282
   8 C     6.0000    0    12.011    1.148419    1.362697   -1.628084
   9 C     6.0000    0    12.011    1.096432    4.003572   -0.454524
  10 C     6.0000    0    12.011    1.046557    1.564038   -4.517336
  11 N     7.0000    0    14.007    3.515720    0.172383   -0.799439
  12 C     6.0000    0    12.011    4.559119   -1.939908   -1.757506
  13 O     8.0000    0    15.999    3.605269   -3.315821   -3.352731
  14 C     6.0000    0    12.011    7.061306   -2.507128   -0.633859
  15 N     7.0000    0    14.007    8.539221   -4.396104   -1.135293
  16 N     7.0000    0    14.007   10.621370   -4.126310    0.352880
  17 C     6.0000    0    12.011   10.289007   -2.088493    1.673012
  18 C     6.0000    0    12.011   12.007206   -0.968245    3.570286
  19 O     8.0000    0    15.999    8.071406   -0.973982    1.140208
  20 N     7.0000    0    14.007   -1.302762   -2.631030   -1.463330
  21 C     6.0000    0    12.011   -2.962125   -4.330831   -0.488090
  22 O     8.0000    0    15.999   -2.999880   -6.533656   -1.110278
  23 C     6.0000    0    12.011   -4.755966   -3.235585    1.508232
  24 O     8.0000    0    15.999   -5.979766   -4.586857    2.867756
  25 H     1.0000    0     1.008  -12.994568    1.153821    0.084299
  26 H     1.0000    0     1.008  -11.491117   -0.463523   -2.485211
  27 H     1.0000    0     1.008  -10.975267    2.839321   -2.044725
  28 H     1.0000    0     1.008   -7.365727   -0.472365    4.876582
  29 H     1.0000    0     1.008   -6.157416    2.571713    4.132710
  30 H     1.0000    0     1.008   -4.157689    0.270921    5.518605
  31 H     1.0000    0     1.008    2.706940    5.094936   -1.119442
  32 H     1.0000    0     1.008    1.165086    3.873555    1.597425
  33 H     1.0000    0     1.008   -0.639551    4.967837   -0.991655
  34 H     1.0000    0     1.008    2.691363    2.603141   -5.184150
  35 H     1.0000    0     1.008   -0.657955    2.582479   -5.058215
  36 H     1.0000    0     1.008    1.024840   -0.288763   -5.406763
  37 H     1.0000    0     1.008    4.515610    1.134849    0.502571
  38 H     1.0000    0     1.008   12.579758    0.916663    2.968580
  39 H     1.0000    0     1.008   13.669102   -2.156603    3.792714
  40 H     1.0000    0     1.008   11.034245   -0.787721    5.376337
  41 H     1.0000    0     1.008    0.028316   -3.302115   -2.681960

--------------------------------
INTERNAL COORDINATES (ANGSTROEM)
--------------------------------
 C      0   0   0     0.000000000000     0.00000000     0.00000000
 O      1   0   0     1.436570882052     0.00000000     0.00000000
 C      2   1   0     1.316303608404   117.15408101     0.00000000
 C      3   2   1     2.554680853297    80.59926041   167.27941153
 O      3   2   1     1.202056045143   125.37439744   358.85884708
 C      4   3   2     1.528734875212    34.42943886   157.40610948
 N      6   4   3     1.444351366306   109.62050961   117.28452865
 C      7   6   4     1.268532187123   120.94501598   149.42468207
 C      8   7   6     1.522888825333   118.96082895   175.16485414
 C      9   8   7     1.529511352564   109.23936670     3.34660915
 C      9   8   7     1.533581456562   110.16205367   242.51357932
 N      9   8   7     1.469133177099   109.89834294   119.98462199
 C     12   9   8     1.345853222604   126.40397138    75.36604446
 O     13  12   9     1.223728802713   125.78852958   354.22871198
 C     13  12   9     1.482192804349   112.55483331   175.18816808
 N     15  13  12     1.296635164670   127.79587290   179.64639743
 N     16  15  13     1.361826272579   106.78881688   179.94945673
 C     17  16  15     1.296852442513   106.79503406     0.00000000
 C     18  17  16     1.478556890336   128.00807722   180.05038242
 O     18  17  16     1.343294339970   111.74615124     0.04872462
 N      8   7   6     1.384313671319   123.92444723   356.38372043
 C     21   8   7     1.358852751791   124.13725786   348.52457596
 O     22  21   8     1.211455704997   122.98242822   184.75257699
 C      6   4   3     1.519087297464   111.61866671   244.76426784
 O     24   6   4     1.203447787124   122.62441950    27.95272864
 H      1   2   3     1.087416783474   106.32682585   178.63220468
 H      1   2   3     1.091652220820   109.86633089    58.77002025
 H      1   2   3     1.091253380950   109.66654486   298.18682396
 H      4   3   2     1.088273880008    93.65219570    36.49926852
 H      4   3   2     1.087232406486    88.49900662   286.99293338
 H      4   3   2     1.088284169113   143.24533023   166.23527309
 H     10   9   8     1.087961266334   109.85315931   179.41780905
 H     10   9   8     1.088628930412   110.28204832    58.92236441
 H     10   9   8     1.088608306466   109.72089321   299.39336750
 H     11   9   8     1.088326710554   109.28288742   181.58195284
 H     11   9   8     1.089017276749   108.99714367    62.43774987
 H     11   9   8     1.087639379523   111.66439374   302.10369387
 H     12   9   8     1.007016095910   115.81089886   249.39988842
 H     19  18  17     1.089994623905   109.84463629   118.78140581
 H     19  18  17     1.087528623296   109.81193779   358.13861859
 H     19  18  17     1.089779109197   109.88410322   237.33217933
 H     21   8   7     1.018880022940   118.13253364   177.48877402

---------------------------
INTERNAL COORDINATES (A.U.)
---------------------------
 C      0   0   0     0.000000000000     0.00000000     0.00000000
 O      1   0   0     2.714725539045     0.00000000     0.00000000
 C      2   1   0     2.487453328976   117.15408101     0.00000000
 C      3   2   1     4.827647172304    80.59926041   167.27941153
 O      3   2   1     2.271556722946   125.37439744   358.85884708
 C      4   3   2     2.888890245525    34.42943886   157.40610948
 N      6   4   3     2.729428523473   109.62050961   117.28452865
 C      7   6   4     2.397178425727   120.94501598   149.42468207
 C      8   7   6     2.877842812288   118.96082895   175.16485414
 C      9   8   7     2.890357575069   109.23936670     3.34660915
 C      9   8   7     2.898048956962   110.16205367   242.51357932
 N      9   8   7     2.776259358975   109.89834294   119.98462199
 C     12   9   8     2.543294007177   126.40397138    75.36604446
 O     13  12   9     2.312512299319   125.78852958   354.22871198
 C     13  12   9     2.800938477888   112.55483331   175.18816808
 N     15  13  12     2.450285356838   127.79587290   179.64639743
 N     16  15  13     2.573478697153   106.78881688   179.94945673
 C     17  16  15     2.450695952457   106.79503406     0.00000000
 C     18  17  16     2.794067596157   128.00807722   180.05038242
 O     18  17  16     2.538458419790   111.74615124     0.04872462
 N      8   7   6     2.615973722237   123.92444723   356.38372043
 C     21   8   7     2.567859557210   124.13725786   348.52457596
 O     22  21   8     2.289319505821   122.98242822   184.75257699
 C      6   4   3     2.870658965725   111.61866671   244.76426784
 O     24   6   4     2.274186734138   122.62441950    27.95272864
 H      1   2   3     2.054919914195   106.32682585   178.63220468
 H      1   2   3     2.062923730837   109.86633089    58.77002025
 H      1   2   3     2.062170032710   109.66654486   298.18682396
 H      4   3   2     2.056539591914    93.65219570    36.49926852
 H      4   3   2     2.054571492182    88.49900662   286.99293338
 H      4   3   2     2.056559035506   143.24533023   166.23527309
 H     10   9   8     2.055948837684   109.85315931   179.41780905
 H     10   9   8     2.057210539941   110.28204832    58.92236441
 H     10   9   8     2.057171566333   109.72089321   299.39336750
 H     11   9   8     2.056639427178   109.28288742   181.58195284
 H     11   9   8     2.057944408165   108.99714367    62.43774987
 H     11   9   8     2.055340559766   111.66439374   302.10369387
 H     12   9   8     1.902984633721   115.81089886   249.39988842
 H     19  18  17     2.059791326627   109.84463629   118.78140581
 H     19  18  17     2.055131260831   109.81193779   358.13861859
 H     19  18  17     2.059384062852   109.88410322   237.33217933
 H     21   8   7     1.925404206680   118.13253364   177.48877402

---------------------
BASIS SET INFORMATION
---------------------
There are 4 groups of distinct atoms

 Group   1 Type C   : 11s6p1d contracted to 5s3p1d pattern {62111/411/1}
 Group   2 Type O   : 11s6p2d contracted to 5s3p2d pattern {62111/411/11}
 Group   3 Type N   : 11s6p2d contracted to 5s3p2d pattern {62111/411/11}
 Group   4 Type H   : 4s1p contracted to 2s1p pattern {31/1}

Atom   0C    basis set group =>   1
Atom   1O    basis set group =>   2
Atom   2C    basis set group =>   1
Atom   3C    basis set group =>   1
Atom   4O    basis set group =>   2
Atom   5C    basis set group =>   1
Atom   6N    basis set group =>   3
Atom   7C    basis set group =>   1
Atom   8C    basis set group =>   1
Atom   9C    basis set group =>   1
Atom  10C    basis set group =>   1
Atom  11N    basis set group =>   3
Atom  12C    basis set group =>   1
Atom  13O    basis set group =>   2
Atom  14C    basis set group =>   1
Atom  15N    basis set group =>   3
Atom  16N    basis set group =>   3
Atom  17C    basis set group =>   1
Atom  18C    basis set group =>   1
Atom  19O    basis set group =>   2
Atom  20N    basis set group =>   3
Atom  21C    basis set group =>   1
Atom  22O    basis set group =>   2
Atom  23C    basis set group =>   1
Atom  24O    basis set group =>   2
Atom  25H    basis set group =>   4
Atom  26H    basis set group =>   4
Atom  27H    basis set group =>   4
Atom  28H    basis set group =>   4
Atom  29H    basis set group =>   4
Atom  30H    basis set group =>   4
Atom  31H    basis set group =>   4
Atom  32H    basis set group =>   4
Atom  33H    basis set group =>   4
Atom  34H    basis set group =>   4
Atom  35H    basis set group =>   4
Atom  36H    basis set group =>   4
Atom  37H    basis set group =>   4
Atom  38H    basis set group =>   4
Atom  39H    basis set group =>   4
Atom  40H    basis set group =>   4
Atom  41H    basis set group =>   4
---------------------------------
AUXILIARY/J BASIS SET INFORMATION
---------------------------------
There are 4 groups of distinct atoms

 Group   1 Type C   : 8s3p3d contracted to 6s3p3d pattern {311111/111/111}
 Group   2 Type O   : 8s3p3d contracted to 6s3p3d pattern {311111/111/111}
 Group   3 Type N   : 8s3p3d contracted to 6s3p3d pattern {311111/111/111}
 Group   4 Type H   : 5s2p1d contracted to 3s1p1d pattern {311/2/1}

Atom   0C    basis set group =>   1
Atom   1O    basis set group =>   2
Atom   2C    basis set group =>   1
Atom   3C    basis set group =>   1
Atom   4O    basis set group =>   2
Atom   5C    basis set group =>   1
Atom   6N    basis set group =>   3
Atom   7C    basis set group =>   1
Atom   8C    basis set group =>   1
Atom   9C    basis set group =>   1
Atom  10C    basis set group =>   1
Atom  11N    basis set group =>   3
Atom  12C    basis set group =>   1
Atom  13O    basis set group =>   2
Atom  14C    basis set group =>   1
Atom  15N    basis set group =>   3
Atom  16N    basis set group =>   3
Atom  17C    basis set group =>   1
Atom  18C    basis set group =>   1
Atom  19O    basis set group =>   2
Atom  20N    basis set group =>   3
Atom  21C    basis set group =>   1
Atom  22O    basis set group =>   2
Atom  23C    basis set group =>   1
Atom  24O    basis set group =>   2
Atom  25H    basis set group =>   4
Atom  26H    basis set group =>   4
Atom  27H    basis set group =>   4
Atom  28H    basis set group =>   4
Atom  29H    basis set group =>   4
Atom  30H    basis set group =>   4
Atom  31H    basis set group =>   4
Atom  32H    basis set group =>   4
Atom  33H    basis set group =>   4
Atom  34H    basis set group =>   4
Atom  35H    basis set group =>   4
Atom  36H    basis set group =>   4
Atom  37H    basis set group =>   4
Atom  38H    basis set group =>   4
Atom  39H    basis set group =>   4
Atom  40H    basis set group =>   4
Atom  41H    basis set group =>   4


           ************************************************************
           *        Program running with 4 parallel MPI-processes     *
           *              working on a common directory               *
           ************************************************************
------------------------------------------------------------------------------
                           ORCA GTO INTEGRAL CALCULATION
                           -- RI-GTO INTEGRALS CHOSEN --
------------------------------------------------------------------------------
------------------------------------------------------------------------------
                   ___                                                        
                  /   \      - P O W E R E D   B Y -                         
                 /     \                                                     
                 |  |  |   _    _      __       _____    __    __             
                 |  |  |  | |  | |    /  \     |  _  \  |  |  /  |          
                  \  \/   | |  | |   /    \    | | | |  |  | /  /          
                 / \  \   | |__| |  /  /\  \   | |_| |  |  |/  /          
                |  |  |   |  __  | /  /__\  \  |    /   |      \           
                |  |  |   | |  | | |   __   |  |    \   |  |\   \          
                \     /   | |  | | |  |  |  |  | |\  \  |  | \   \       
                 \___/    |_|  |_| |__|  |__|  |_| \__\ |__|  \__/        
                                                                              
                      - O R C A' S   B I G   F R I E N D -                    
                                      &                                       
                       - I N T E G R A L  F E E D E R -                       
                                                                              
 v1 FN, 2020, v2 2021                                                         
------------------------------------------------------------------------------


Reading SHARK input file /lustre/hpc/kemi/ree/PhD/git/ReactivityQM/calculations/R02oxygendeprot/reac01prodN09/conf03/gfn1/orca_calc.SHARKINP.tmp ... ok
----------------------
SHARK INTEGRAL PACKAGE
----------------------

Number of atoms                             ...     42
Number of basis functions                   ...    615
Number of shells                            ...    287
Maximum angular momentum                    ...      2
Integral batch strategy                     ... SHARK/LIBINT Hybrid
RI-J (if used) integral strategy            ... SPLIT-RIJ (Revised 2003 algorithm where possible)
Printlevel                                  ...      1
Contraction scheme used                     ... SEGMENTED contraction
Coulomb Range Separation                    ... NOT USED
Exchange Range Separation                   ... NOT USED
Finite Nucleus Model                        ... NOT USED
Auxiliary Coulomb fitting basis             ... AVAILABLE
   # of basis functions in Aux-J            ...    937
   # of shells in Aux-J                     ...    385
   Maximum angular momentum in Aux-J        ...      2
Auxiliary J/K fitting basis                 ... NOT available
Auxiliary Correlation fitting basis         ... NOT available
Auxiliary 'external' fitting basis          ... NOT available
Integral threshold                          ...     1.000000e-10
Primitive cut-off                           ...     1.000000e-11
Primitive pair pre-selection threshold      ...     1.000000e-11

Calculating pre-screening integrals         ... done (  0.2 sec) Dimension = 287
Organizing shell pair data                  ... done (  0.1 sec)
Shell pair information
Total number of shell pairs                 ...     41328
Shell pairs after pre-screening             ...     26591
Total number of primitive shell pairs       ...    149932
Primitive shell pairs kept                  ...     59870
          la=0 lb=0:   7581 shell pairs
          la=1 lb=0:   9596 shell pairs
          la=1 lb=1:   3041 shell pairs
          la=2 lb=0:   3636 shell pairs
          la=2 lb=1:   2285 shell pairs
          la=2 lb=2:    452 shell pairs

Calculating one electron integrals          ... done (  0.1 sec)
Calculating RI/J V-Matrix + Cholesky decomp.... done (  0.1 sec)
Calculating Nuclear repulsion               ... done (  0.0 sec) ENN=   2303.057723787093 Eh

SHARK setup successfully completed in   0.6 seconds

Maximum memory used throughout the entire GTOINT-calculation: 39.3 MB


           ************************************************************
           *        Program running with 4 parallel MPI-processes     *
           *              working on a common directory               *
           ************************************************************
-------------------------------------------------------------------------------
                                 ORCA SCF
-------------------------------------------------------------------------------

------------
SCF SETTINGS
------------
Hamiltonian:
 Density Functional     Method          .... DFT(GTOs)
  Functional kind                       .... Exchange
  Functional name                       .... Re-regularized SCAN exchange by Furness et al
  Functional family                     .... MGGA
  Functional refs                              
    [ 0] J. W. Furness, A. D. Kaplan, J. Ning, J. P. Perdew, and J. Sun, J. Phys. Chem. Lett. 11, 8208 (2020)
    [ 1] J. W. Furness, A. D. Kaplan, J. Ning, J. P. Perdew, and J. Sun, J. Phys. Chem. Lett. 11, 9248 (2020)
  Functional external parameters         .... 8
 Parameter  0 :         c1 parameter
 Parameter  1 :         c2 parameter
 Parameter  2 :          d parameter
 Parameter  3 :         k1 parameter
 Parameter  4 :       taur parameter
 Parameter  5 :     alphar parameter
 Parameter  6 :        eta parameter
 Parameter  7 :        dp2 parameter
  Functional kind                       .... Correlation
  Functional name                       .... Re-regularized SCAN correlation by Furness et al
  Functional family                     .... MGGA
  Functional refs                              
    [ 0] J. W. Furness, A. D. Kaplan, J. Ning, J. P. Perdew, and J. Sun, J. Phys. Chem. Lett. 11, 8208 (2020)
    [ 1] J. W. Furness, A. D. Kaplan, J. Ning, J. P. Perdew, and J. Sun, J. Phys. Chem. Lett. 11, 9248 (2020)
  Functional external parameters         .... 0
 Gradients option       PostSCFGGA      .... off
   Density functional embedding theory  .... OFF
 RI-approximation to the Coulomb term is turned on
   Number of AuxJ basis functions       .... 937


General Settings:
 Integral files         IntName         .... /lustre/hpc/kemi/ree/PhD/git/ReactivityQM/calculations/R02oxygendeprot/reac01prodN09/conf03/gfn1/orca_calc
 Hartree-Fock type      HFTyp           .... RHF
 Total Charge           Charge          ....    0
 Multiplicity           Mult            ....    1
 Number of Electrons    NEL             ....  184
 Basis Dimension        Dim             ....  615
 Nuclear Repulsion      ENuc            ....   2303.0577237871 Eh

Convergence Acceleration:
 DIIS                   CNVDIIS         .... on
   Start iteration      DIISMaxIt       ....    12
   Startup error        DIISStart       ....  0.200000
   # of expansion vecs  DIISMaxEq       ....     5
   Bias factor          DIISBfac        ....   1.050
   Max. coefficient     DIISMaxC        ....  10.000
 Trust-Rad. Augm. Hess. CNVTRAH         .... auto
   Auto Start mean grad. ratio tolernc. ....  1.125000
   Auto Start start iteration           ....    20
   Auto Start num. interpolation iter.  ....    10
   Max. Number of Micro iterations      ....    16
   Max. Number of Macro iterations      .... Maxiter - #DIIS iter
   Number of Davidson start vectors     ....     2
   Converg. threshold I  (grad. norm)   ....   5.000e-05
   Converg. threshold II (energy diff.) ....   1.000e-06
   Grad. Scal. Fac. for Micro threshold ....   0.100
   Minimum threshold for Micro iter.    ....   0.010
   NR start threshold (gradient norm)   ....   0.001
   Initial trust radius                 ....   0.400
   Minimum AH scaling param. (alpha)    ....   1.000
   Maximum AH scaling param. (alpha)    .... 1000.000
   Orbital update algorithm             .... Taylor
   White noise on init. David. guess    .... on
   Maximum white noise                  ....   0.010
   Quad. conv. algorithm                .... NR
   COSX micro iterations for RIJONX calc.... off
 SOSCF                  CNVSOSCF        .... on
   Start iteration      SOSCFMaxIt      ....   150
   Startup grad/error   SOSCFStart      ....  0.003300
 Level Shifting         CNVShift        .... on
   Level shift para.    LevelShift      ....    0.2500
   Turn off err/grad.   ShiftErr        ....    0.0010
 Zerner damping         CNVZerner       .... off
 Static damping         CNVDamp         .... on
   Fraction old density DampFac         ....    0.7000
   Max. Damping (<1)    DampMax         ....    0.9800
   Min. Damping (>=0)   DampMin         ....    0.0000
   Turn off err/grad.   DampErr         ....    0.1000
 Fernandez-Rico         CNVRico         .... off

SCF Procedure:
 Maximum # iterations   MaxIter         ....   125
 SCF integral mode      SCFMode         .... Direct
   Integral package                     .... SHARK and LIBINT hybrid scheme
 Reset frequency        DirectResetFreq ....    20
 Integral Threshold     Thresh          ....  1.000e-10 Eh
 Primitive CutOff       TCut            ....  1.000e-11 Eh

Convergence Tolerance:
 Convergence Check Mode ConvCheckMode   .... Total+1el-Energy
 Convergence forced     ConvForced      .... 0
 Energy Change          TolE            ....  1.000e-06 Eh
 1-El. energy change                    ....  1.000e-03 Eh
 Orbital Gradient       TolG            ....  5.000e-05
 Orbital Rotation angle TolX            ....  5.000e-05
 DIIS Error             TolErr          ....  1.000e-06


Diagonalization of the overlap matrix:
Smallest eigenvalue                        ... 1.634e-05
Time for diagonalization                   ...    0.063 sec
Threshold for overlap eigenvalues          ... 1.000e-08
Number of eigenvalues below threshold      ... 0
Time for construction of square roots      ...    0.044 sec
Total time needed                          ...    0.109 sec

Time for model grid setup =    0.599 sec

------------------------------
INITIAL GUESS: MODEL POTENTIAL
------------------------------
Loading Hartree-Fock densities                     ... done
Calculating cut-offs                               ... done
Initializing the effective Hamiltonian             ... done
Setting up the integral package (SHARK)            ... done
Starting the Coulomb interaction                   ... done (   0.7 sec)
Reading the grid                                   ... done
Mapping shells                                     ... done
Starting the XC term evaluation                    ... done (   0.5 sec)
  promolecular density results
     # of electrons  =    183.988760685
     EX              =   -158.346695596
     EC              =     -6.256023936
     EX+EC           =   -164.602719531
Transforming the Hamiltonian                       ... done (   0.0 sec)
Diagonalizing the Hamiltonian                      ... done (   0.1 sec)
Back transforming the eigenvectors                 ... done (   0.0 sec)
Now organizing SCF variables                       ... done
                      ------------------
                      INITIAL GUESS DONE (   1.9 sec)
                      ------------------
-------------------
DFT GRID GENERATION
-------------------

General Integration Accuracy     IntAcc      ... 4.388
Radial Grid Type                 RadialGrid  ... OptM3 with GC (2021)
Angular Grid (max. ang.)         AngularGrid ... 4 (Lebedev-302)
Angular grid pruning method      GridPruning ... 4 (adaptive)
Weight generation scheme         WeightScheme... Becke
Basis function cutoff            BFCut       ... 1.0000e-10
Integration weight cutoff        WCut        ... 1.0000e-14
Angular grids for H and He will be reduced by one unit
Partially contracted basis set               ... off
Rotationally invariant grid construction     ... off

Total number of grid points                  ...   205703
Total number of batches                      ...     3234
Average number of points per batch           ...       63
Average number of grid points per atom       ...     4898
Time for grid setup =    2.215 sec


--------------------
CPCM SOLVATION MODEL
--------------------
CPCM parameters:
  Epsilon                                         ...      46.8260
  Refrac                                          ...       1.4170
  Rsolv                                           ...       1.3000
  Surface type                                    ... GAUSSIAN VDW
  Epsilon function type                           ...         CPCM
Solvent:                                     ... DMSO
SMD-CDS solvent descriptors:
  Soln                                       ...    1.4170
  Soln25                                     ...    1.4773
  Sola                                       ...    0.0000
  Solb                                       ...    0.8800
  Solg                                       ...   61.7800
  Solc                                       ...    0.0000
  Solh                                       ...    0.0000
Radii:
 Radius for C  used is    3.4960 Bohr (=   1.8500 Ang.)
 Radius for O  used is    4.3350 Bohr (=   2.2940 Ang.)
 Radius for N  used is    3.5716 Bohr (=   1.8900 Ang.)
 Radius for H  used is    2.2677 Bohr (=   1.2000 Ang.)
Calculating surface                               ...        done! (  0.0s)
GEPOL surface points                              ...         2051
GEPOL Volume                                      ...    2838.1012
GEPOL Surface-area                                ...    1395.7147
Calculating surface distance matrix               ...        done! (  0.0s)
Performing Cholesky decomposition & store         ...        done! (  0.1s)
Overall time for CPCM initialization              ...                 0.2s
--------------
SCF ITERATIONS
--------------
ITER       Energy         Delta-E        Max-DP      RMS-DP      [F,P]     Damp
               ***  Starting incremental Fock matrix formation  ***
  0  -1267.9456633923   0.000000000000 0.22334667  0.00164274  0.2790705 0.7000
  1  -1268.3072921558  -0.361628763537 0.14496057  0.00119478  0.0991218 0.7000
                               ***Turning on DIIS***
  2  -1268.4159496181  -0.108657462350 0.17054535  0.00189290  0.0400894 0.0000
  3  -1268.6313775190  -0.215427900812 0.12285432  0.00091628  0.0493658 0.0000
  4  -1268.6627149759  -0.031337456911 0.04096555  0.00034452  0.0284700 0.0000
  5  -1268.6688619474  -0.006146971529 0.01995716  0.00014958  0.0038786 0.0000
  6  -1268.6690051331  -0.000143185718 0.00455484  0.00004369  0.0034369 0.0000
                      *** Initiating the SOSCF procedure ***
                           *** Shutting down DIIS ***
                      *** Re-Reading the Fockian *** 
                      *** Removing any level shift *** 
ITER      Energy       Delta-E        Grad      Rot      Max-DP    RMS-DP
  7  -1268.66905655  -0.0000514120  0.000108  0.000108  0.001603  0.000019
               *** Restarting incremental Fock matrix formation ***
  8  -1268.66905825  -0.0000017049  0.000231  0.000908  0.002222  0.000020
  9  -1268.66904924   0.0000090131  0.000606  0.000674  0.001322  0.000012
 10  -1268.66906011  -0.0000108725  0.000032  0.000154  0.000435  0.000005
 11  -1268.66905976   0.0000003474  0.000067  0.000088  0.000479  0.000004
 12  -1268.66906029  -0.0000005237  0.000016  0.000060  0.000568  0.000004
                 **** Energy Check signals convergence ****
              ***Rediagonalizing the Fockian in SOSCF/NRSCF***

               *****************************************************
               *                     SUCCESS                       *
               *           SCF CONVERGED AFTER  13 CYCLES          *
               *****************************************************


SMD CDS free energy correction energy :                -0.63686     Kcal/mol
Total Energy after SMD CDS correction =             -1268.670075094 Eh

----------------
TOTAL SCF ENERGY
----------------

Total Energy       :        -1268.67007509 Eh          -34522.26782 eV

Components:
Nuclear Repulsion  :         2303.05772379 Eh           62669.38671 eV
Electronic Energy  :        -3571.72779888 Eh          -97191.65454 eV
One Electron Energy:        -6308.47106502 Eh         -171662.22482 eV
Two Electron Energy:         2736.74326614 Eh           74470.57028 eV
CPCM Dielectric    :           -0.04510270 Eh              -1.22731 eV
SMD CDS (Gcds)     :           -0.00101490 Eh              -0.02762 eV

Virial components:
Potential Energy   :        -2532.51133778 Eh          -68913.13698 eV
Kinetic Energy     :         1263.84126268 Eh           34390.86916 eV
Virial Ratio       :            2.00382074


DFT components:
N(Alpha)           :       91.999985504892 electrons
N(Beta)            :       91.999985504892 electrons
N(Total)           :      183.999971009785 electrons
E(X)               :     -161.970992667518 Eh       
E(C)               :       -6.119650539102 Eh       
E(XC)              :     -168.090643206620 Eh       
DFET-embed. en.    :        0.000000000000 Eh       
CPCM Solvation Model Properties:
Surface-charge          :           -0.03305271
Charge-correction       :            0.00011200 Eh               0.00305 eV
Free-energy (cav+disp)  :           -0.00101490 Eh              -0.02762 eV

---------------
SCF CONVERGENCE
---------------

  Last Energy change         ...    8.9466e-08  Tolerance :   1.0000e-06
  Last MAX-Density change    ...    4.5745e-04  Tolerance :   1.0000e-05
  Last RMS-Density change    ...    2.2777e-06  Tolerance :   1.0000e-06
  Last Orbital Gradient      ...    3.5302e-05  Tolerance :   5.0000e-05
  Last Orbital Rotation      ...    5.2343e-05  Tolerance :   5.0000e-05

             **** THE GBW FILE WAS UPDATED (/lustre/hpc/kemi/ree/PhD/git/ReactivityQM/calculations/R02oxygendeprot/reac01prodN09/conf03/gfn1/orca_calc.gbw) ****
             **** DENSITY /lustre/hpc/kemi/ree/PhD/git/ReactivityQM/calculations/R02oxygendeprot/reac01prodN09/conf03/gfn1/orca_calc.scfp WAS UPDATED ****
             **** ENERGY FILE WAS UPDATED (/lustre/hpc/kemi/ree/PhD/git/ReactivityQM/calculations/R02oxygendeprot/reac01prodN09/conf03/gfn1/orca_calc.en.tmp) ****
             **** THE GBW FILE WAS UPDATED (/lustre/hpc/kemi/ree/PhD/git/ReactivityQM/calculations/R02oxygendeprot/reac01prodN09/conf03/gfn1/orca_calc.gbw) ****
             **** DENSITY /lustre/hpc/kemi/ree/PhD/git/ReactivityQM/calculations/R02oxygendeprot/reac01prodN09/conf03/gfn1/orca_calc.scfp WAS UPDATED ****
----------------
ORBITAL ENERGIES
----------------

  NO   OCC          E(Eh)            E(eV) 
   0   2.0000     -19.069231      -518.9001 
   1   2.0000     -19.015023      -517.4251 
   2   2.0000     -18.975269      -516.3433 
   3   2.0000     -18.952953      -515.7361 
   4   2.0000     -18.951359      -515.6927 
   5   2.0000     -18.947838      -515.5969 
   6   2.0000     -14.218879      -386.9154 
   7   2.0000     -14.212551      -386.7432 
   8   2.0000     -14.209197      -386.6519 
   9   2.0000     -14.200326      -386.4105 
  10   2.0000     -14.160689      -385.3319 
  11   2.0000     -10.174319      -276.8573 
  12   2.0000     -10.168874      -276.7091 
  13   2.0000     -10.158913      -276.4381 
  14   2.0000     -10.150575      -276.2112 
  15   2.0000     -10.147481      -276.1270 
  16   2.0000     -10.146776      -276.1078 
  17   2.0000     -10.129172      -275.6288 
  18   2.0000     -10.109620      -275.0967 
  19   2.0000     -10.103925      -274.9418 
  20   2.0000     -10.082253      -274.3521 
  21   2.0000     -10.046651      -273.3833 
  22   2.0000     -10.026339      -272.8306 
  23   2.0000     -10.026273      -272.8288 
  24   2.0000     -10.024565      -272.7823 
  25   2.0000      -1.159030       -31.5388 
  26   2.0000      -1.093123       -29.7454 
  27   2.0000      -1.053677       -28.6720 
  28   2.0000      -1.036760       -28.2117 
  29   2.0000      -1.026851       -27.9420 
  30   2.0000      -1.003365       -27.3029 
  31   2.0000      -0.979569       -26.6554 
  32   2.0000      -0.965587       -26.2750 
  33   2.0000      -0.922483       -25.1020 
  34   2.0000      -0.880375       -23.9562 
  35   2.0000      -0.835501       -22.7351 
  36   2.0000      -0.793854       -21.6019 
  37   2.0000      -0.756264       -20.5790 
  38   2.0000      -0.716077       -19.4854 
  39   2.0000      -0.702368       -19.1124 
  40   2.0000      -0.684841       -18.6355 
  41   2.0000      -0.673298       -18.3214 
  42   2.0000      -0.666231       -18.1291 
  43   2.0000      -0.630147       -17.1472 
  44   2.0000      -0.616527       -16.7766 
  45   2.0000      -0.606880       -16.5140 
  46   2.0000      -0.591217       -16.0878 
  47   2.0000      -0.559870       -15.2348 
  48   2.0000      -0.551239       -15.0000 
  49   2.0000      -0.538980       -14.6664 
  50   2.0000      -0.529012       -14.3952 
  51   2.0000      -0.517438       -14.0802 
  52   2.0000      -0.507272       -13.8036 
  53   2.0000      -0.498209       -13.5570 
  54   2.0000      -0.469977       -12.7887 
  55   2.0000      -0.461399       -12.5553 
  56   2.0000      -0.458608       -12.4794 
  57   2.0000      -0.453219       -12.3327 
  58   2.0000      -0.447592       -12.1796 
  59   2.0000      -0.432684       -11.7739 
  60   2.0000      -0.430271       -11.7083 
  61   2.0000      -0.423849       -11.5335 
  62   2.0000      -0.419947       -11.4273 
  63   2.0000      -0.412775       -11.2322 
  64   2.0000      -0.406887       -11.0720 
  65   2.0000      -0.399381       -10.8677 
  66   2.0000      -0.392467       -10.6796 
  67   2.0000      -0.387353       -10.5404 
  68   2.0000      -0.382966       -10.4210 
  69   2.0000      -0.380682       -10.3589 
  70   2.0000      -0.370114       -10.0713 
  71   2.0000      -0.365253        -9.9390 
  72   2.0000      -0.360995        -9.8232 
  73   2.0000      -0.358094        -9.7442 
  74   2.0000      -0.355703        -9.6792 
  75   2.0000      -0.354876        -9.6567 
  76   2.0000      -0.348035        -9.4705 
  77   2.0000      -0.343545        -9.3483 
  78   2.0000      -0.334215        -9.0945 
  79   2.0000      -0.328283        -8.9330 
  80   2.0000      -0.320155        -8.7119 
  81   2.0000      -0.317110        -8.6290 
  82   2.0000      -0.295698        -8.0464 
  83   2.0000      -0.288115        -7.8400 
  84   2.0000      -0.272337        -7.4107 
  85   2.0000      -0.269722        -7.3395 
  86   2.0000      -0.265210        -7.2167 
  87   2.0000      -0.262439        -7.1413 
  88   2.0000      -0.259473        -7.0606 
  89   2.0000      -0.247497        -6.7347 
  90   2.0000      -0.245801        -6.6886 
  91   2.0000      -0.222274        -6.0484 
  92   0.0000      -0.121389        -3.3032 
  93   0.0000      -0.093572        -2.5462 
  94   0.0000      -0.056077        -1.5259 
  95   0.0000      -0.023335        -0.6350 
  96   0.0000      -0.006919        -0.1883 
  97   0.0000       0.037317         1.0155 
  98   0.0000       0.045051         1.2259 
  99   0.0000       0.050063         1.3623 
 100   0.0000       0.057536         1.5656 
 101   0.0000       0.071529         1.9464 
 102   0.0000       0.089095         2.4244 
 103   0.0000       0.098020         2.6673 
 104   0.0000       0.102198         2.7809 
 105   0.0000       0.105791         2.8787 
 106   0.0000       0.114065         3.1039 
 107   0.0000       0.119691         3.2570 
 108   0.0000       0.126190         3.4338 
 109   0.0000       0.129703         3.5294 
 110   0.0000       0.133725         3.6388 
 111   0.0000       0.136928         3.7260 
 112   0.0000       0.140554         3.8247 
 113   0.0000       0.142712         3.8834 
 114   0.0000       0.145664         3.9637 
 115   0.0000       0.151247         4.1156 
 116   0.0000       0.154422         4.2020 
 117   0.0000       0.154938         4.2161 
 118   0.0000       0.161763         4.4018 
 119   0.0000       0.163504         4.4492 
 120   0.0000       0.166545         4.5319 
 121   0.0000       0.170590         4.6420 
 122   0.0000       0.180126         4.9015 
 123   0.0000       0.183335         4.9888 
 124   0.0000       0.186848         5.0844 
 125   0.0000       0.188220         5.1217 
 126   0.0000       0.190161         5.1745 
 127   0.0000       0.192167         5.2291 
 128   0.0000       0.196846         5.3565 
 129   0.0000       0.198816         5.4101 
 130   0.0000       0.201201         5.4750 
 131   0.0000       0.205662         5.5963 
 132   0.0000       0.208952         5.6859 
 133   0.0000       0.213849         5.8191 
 134   0.0000       0.215798         5.8722 
 135   0.0000       0.221842         6.0366 
 136   0.0000       0.227571         6.1925 
 137   0.0000       0.232461         6.3256 
 138   0.0000       0.233831         6.3629 
 139   0.0000       0.238835         6.4990 
 140   0.0000       0.241869         6.5816 
 141   0.0000       0.243328         6.6213 
 142   0.0000       0.244982         6.6663 
 143   0.0000       0.250742         6.8230 
 144   0.0000       0.257259         7.0004 
 145   0.0000       0.262170         7.1340 
 146   0.0000       0.266055         7.2397 
 147   0.0000       0.270554         7.3622 
 148   0.0000       0.277026         7.5383 
 149   0.0000       0.280143         7.6231 
 150   0.0000       0.282869         7.6972 
 151   0.0000       0.286998         7.8096 
 152   0.0000       0.296940         8.0802 
 153   0.0000       0.298445         8.1211 
 154   0.0000       0.305270         8.3068 
 155   0.0000       0.308301         8.3893 
 156   0.0000       0.311582         8.4786 
 157   0.0000       0.315509         8.5854 
 158   0.0000       0.317875         8.6498 
 159   0.0000       0.325145         8.8477 
 160   0.0000       0.331735         9.0270 
 161   0.0000       0.335875         9.1396 
 162   0.0000       0.343525         9.3478 
 163   0.0000       0.344894         9.3850 
 164   0.0000       0.348081         9.4718 
 165   0.0000       0.353992         9.6326 
 166   0.0000       0.362501         9.8642 
 167   0.0000       0.364608         9.9215 
 168   0.0000       0.376902        10.2560 
 169   0.0000       0.378706        10.3051 
 170   0.0000       0.381919        10.3925 
 171   0.0000       0.387858        10.5541 
 172   0.0000       0.389217        10.5911 
 173   0.0000       0.397942        10.8285 
 174   0.0000       0.402161        10.9434 
 175   0.0000       0.409101        11.1322 
 176   0.0000       0.414475        11.2784 
 177   0.0000       0.418184        11.3794 
 178   0.0000       0.420862        11.4522 
 179   0.0000       0.424361        11.5475 
 180   0.0000       0.431415        11.7394 
 181   0.0000       0.433783        11.8038 
 182   0.0000       0.440706        11.9922 
 183   0.0000       0.445044        12.1103 
 184   0.0000       0.447142        12.1673 
 185   0.0000       0.453536        12.3413 
 186   0.0000       0.462283        12.5794 
 187   0.0000       0.468212        12.7407 
 188   0.0000       0.476976        12.9792 
 189   0.0000       0.481006        13.0888 
 190   0.0000       0.487522        13.2661 
 191   0.0000       0.492156        13.3922 
 192   0.0000       0.494134        13.4461 
 193   0.0000       0.505932        13.7671 
 194   0.0000       0.509843        13.8735 
 195   0.0000       0.512334        13.9413 
 196   0.0000       0.518419        14.1069 
 197   0.0000       0.526201        14.3187 
 198   0.0000       0.530151        14.4262 
 199   0.0000       0.536622        14.6022 
 200   0.0000       0.538444        14.6518 
 201   0.0000       0.548798        14.9336 
 202   0.0000       0.556856        15.1528 
 203   0.0000       0.561036        15.2666 
 204   0.0000       0.565908        15.3991 
 205   0.0000       0.575374        15.6567 
 206   0.0000       0.580813        15.8047 
 207   0.0000       0.584560        15.9067 
 208   0.0000       0.586924        15.9710 
 209   0.0000       0.594109        16.1665 
 210   0.0000       0.595834        16.2135 
 211   0.0000       0.605143        16.4668 
 212   0.0000       0.606270        16.4975 
 213   0.0000       0.612201        16.6588 
 214   0.0000       0.618501        16.8303 
 215   0.0000       0.622779        16.9467 
 216   0.0000       0.627204        17.0671 
 217   0.0000       0.632282        17.2053 
 218   0.0000       0.636997        17.3336 
 219   0.0000       0.647941        17.6314 
 220   0.0000       0.652441        17.7538 
 221   0.0000       0.658667        17.9233 
 222   0.0000       0.661666        18.0049 
 223   0.0000       0.673553        18.3283 
 224   0.0000       0.675065        18.3695 
 225   0.0000       0.684943        18.6382 
 226   0.0000       0.691091        18.8056 
 227   0.0000       0.698432        19.0053 
 228   0.0000       0.700664        19.0661 
 229   0.0000       0.704971        19.1832 
 230   0.0000       0.715737        19.4762 
 231   0.0000       0.720180        19.5971 
 232   0.0000       0.728914        19.8347 
 233   0.0000       0.733564        19.9613 
 234   0.0000       0.740173        20.1411 
 235   0.0000       0.744403        20.2562 
 236   0.0000       0.753863        20.5137 
 237   0.0000       0.759850        20.6766 
 238   0.0000       0.765856        20.8400 
 239   0.0000       0.770461        20.9653 
 240   0.0000       0.773285        21.0421 
 241   0.0000       0.774333        21.0707 
 242   0.0000       0.786295        21.3962 
 243   0.0000       0.789130        21.4733 
 244   0.0000       0.795256        21.6400 
 245   0.0000       0.796829        21.6828 
 246   0.0000       0.806937        21.9579 
 247   0.0000       0.812954        22.1216 
 248   0.0000       0.820619        22.3302 
 249   0.0000       0.833259        22.6741 
 250   0.0000       0.835073        22.7235 
 251   0.0000       0.842585        22.9279 
 252   0.0000       0.848778        23.0964 
 253   0.0000       0.850272        23.1371 
 254   0.0000       0.858174        23.3521 
 255   0.0000       0.859732        23.3945 
 256   0.0000       0.870672        23.6922 
 257   0.0000       0.883096        24.0303 
 258   0.0000       0.889892        24.2152 
 259   0.0000       0.891845        24.2683 
 260   0.0000       0.899471        24.4759 
 261   0.0000       0.910009        24.7626 
 262   0.0000       0.912958        24.8429 
 263   0.0000       0.921065        25.0635 
 264   0.0000       0.925970        25.1969 
 265   0.0000       0.936894        25.4942 
 266   0.0000       0.938521        25.5385 
 267   0.0000       0.942817        25.6554 
 268   0.0000       0.952383        25.9157 
 269   0.0000       0.961116        26.1533 
 270   0.0000       0.969943        26.3935 
 271   0.0000       0.976967        26.5846 
 272   0.0000       0.980178        26.6720 
 273   0.0000       0.989474        26.9249 
 274   0.0000       0.995348        27.0848 
 275   0.0000       1.010066        27.4853 
 276   0.0000       1.014004        27.5925 
 277   0.0000       1.031734        28.0749 
 278   0.0000       1.038167        28.2500 
 279   0.0000       1.041189        28.3322 
 280   0.0000       1.045082        28.4381 
 281   0.0000       1.055012        28.7083 
 282   0.0000       1.059171        28.8215 
 283   0.0000       1.061843        28.8942 
 284   0.0000       1.072105        29.1735 
 285   0.0000       1.074479        29.2381 
 286   0.0000       1.084533        29.5117 
 287   0.0000       1.096735        29.8437 
 288   0.0000       1.105668        30.0868 
 289   0.0000       1.117401        30.4060 
 290   0.0000       1.120313        30.4853 
 291   0.0000       1.127975        30.6938 
 292   0.0000       1.130336        30.7580 
 293   0.0000       1.147313        31.2200 
 294   0.0000       1.149184        31.2709 
 295   0.0000       1.155173        31.4339 
 296   0.0000       1.161648        31.6101 
 297   0.0000       1.172296        31.8998 
 298   0.0000       1.177664        32.0459 
 299   0.0000       1.183772        32.2121 
 300   0.0000       1.199678        32.6449 
 301   0.0000       1.201206        32.6865 
 302   0.0000       1.202564        32.7234 
 303   0.0000       1.210099        32.9285 
 304   0.0000       1.218845        33.1665 
 305   0.0000       1.227263        33.3955 
 306   0.0000       1.236697        33.6522 
 307   0.0000       1.249545        34.0018 
 308   0.0000       1.271872        34.6094 
 309   0.0000       1.280236        34.8370 
 310   0.0000       1.296044        35.2671 
 311   0.0000       1.302336        35.4384 
 312   0.0000       1.315810        35.8050 
 313   0.0000       1.317464        35.8500 
 314   0.0000       1.326036        36.0833 
 315   0.0000       1.327224        36.1156 
 316   0.0000       1.328786        36.1581 
 317   0.0000       1.334832        36.3226 
 318   0.0000       1.345347        36.6088 
 319   0.0000       1.362317        37.0705 
 320   0.0000       1.370700        37.2987 
 321   0.0000       1.374743        37.4087 
 322   0.0000       1.379993        37.5515 
 323   0.0000       1.391689        37.8698 
 324   0.0000       1.402699        38.1694 
 325   0.0000       1.415317        38.5127 
 326   0.0000       1.424247        38.7557 
 327   0.0000       1.434167        39.0257 
 328   0.0000       1.443049        39.2674 
 329   0.0000       1.452104        39.5138 
 330   0.0000       1.455472        39.6054 
 331   0.0000       1.477197        40.1966 
 332   0.0000       1.484297        40.3898 
 333   0.0000       1.518651        41.3246 
 334   0.0000       1.527687        41.5705 
 335   0.0000       1.536731        41.8166 
 336   0.0000       1.548034        42.1242 
 337   0.0000       1.555577        42.3294 
 338   0.0000       1.557062        42.3698 
 339   0.0000       1.563117        42.5346 
 340   0.0000       1.571736        42.7691 
 341   0.0000       1.586593        43.1734 
 342   0.0000       1.595416        43.4135 
 343   0.0000       1.604094        43.6496 
 344   0.0000       1.625791        44.2400 
 345   0.0000       1.637792        44.5666 
 346   0.0000       1.651238        44.9325 
 347   0.0000       1.664424        45.2913 
 348   0.0000       1.682531        45.7840 
 349   0.0000       1.691586        46.0304 
 350   0.0000       1.704933        46.3936 
 351   0.0000       1.711429        46.5703 
 352   0.0000       1.723894        46.9095 
 353   0.0000       1.733907        47.1820 
 354   0.0000       1.744152        47.4608 
 355   0.0000       1.751067        47.6490 
 356   0.0000       1.752293        47.6823 
 357   0.0000       1.764713        48.0203 
 358   0.0000       1.776183        48.3324 
 359   0.0000       1.789185        48.6862 
 360   0.0000       1.801132        49.0113 
 361   0.0000       1.818788        49.4917 
 362   0.0000       1.821534        49.5665 
 363   0.0000       1.827769        49.7361 
 364   0.0000       1.832302        49.8595 
 365   0.0000       1.843301        50.1588 
 366   0.0000       1.849544        50.3287 
 367   0.0000       1.855863        50.5006 
 368   0.0000       1.866114        50.7795 
 369   0.0000       1.874366        51.0041 
 370   0.0000       1.875348        51.0308 
 371   0.0000       1.876455        51.0609 
 372   0.0000       1.886112        51.3237 
 373   0.0000       1.893923        51.5363 
 374   0.0000       1.901533        51.7433 
 375   0.0000       1.911629        52.0181 
 376   0.0000       1.915294        52.1178 
 377   0.0000       1.921001        52.2731 
 378   0.0000       1.929491        52.5041 
 379   0.0000       1.941086        52.8196 
 380   0.0000       1.944830        52.9215 
 381   0.0000       1.950035        53.0632 
 382   0.0000       1.964964        53.4694 
 383   0.0000       1.970318        53.6151 
 384   0.0000       1.984757        54.0080 
 385   0.0000       2.002944        54.5029 
 386   0.0000       2.017457        54.8978 
 387   0.0000       2.027057        55.1590 
 388   0.0000       2.042161        55.5700 
 389   0.0000       2.047666        55.7198 
 390   0.0000       2.051149        55.8146 
 391   0.0000       2.056983        55.9734 
 392   0.0000       2.060622        56.0724 
 393   0.0000       2.070970        56.3540 
 394   0.0000       2.078066        56.5470 
 395   0.0000       2.089351        56.8541 
 396   0.0000       2.101104        57.1739 
 397   0.0000       2.121517        57.7294 
 398   0.0000       2.136605        58.1400 
 399   0.0000       2.142112        58.2898 
 400   0.0000       2.155010        58.6408 
 401   0.0000       2.160837        58.7994 
 402   0.0000       2.164597        58.9017 
 403   0.0000       2.178863        59.2899 
 404   0.0000       2.185014        59.4573 
 405   0.0000       2.188269        59.5458 
 406   0.0000       2.203747        59.9670 
 407   0.0000       2.214223        60.2521 
 408   0.0000       2.224171        60.5228 
 409   0.0000       2.239579        60.9420 
 410   0.0000       2.255361        61.3715 
 411   0.0000       2.258964        61.4695 
 412   0.0000       2.265996        61.6609 
 413   0.0000       2.274009        61.8789 
 414   0.0000       2.281755        62.0897 
 415   0.0000       2.288631        62.2768 
 416   0.0000       2.296446        62.4895 
 417   0.0000       2.298901        62.5563 
 418   0.0000       2.306717        62.7689 
 419   0.0000       2.323736        63.2321 
 420   0.0000       2.327107        63.3238 
 421   0.0000       2.332018        63.4574 
 422   0.0000       2.338818        63.6425 
 423   0.0000       2.354932        64.0809 
 424   0.0000       2.358756        64.1850 
 425   0.0000       2.366226        64.3883 
 426   0.0000       2.376593        64.6704 
 427   0.0000       2.386672        64.9446 
 428   0.0000       2.388734        65.0007 
 429   0.0000       2.392457        65.1021 
 430   0.0000       2.399303        65.2883 
 431   0.0000       2.403301        65.3971 
 432   0.0000       2.412887        65.6580 
 433   0.0000       2.431902        66.1754 
 434   0.0000       2.439033        66.3695 
 435   0.0000       2.451263        66.7023 
 436   0.0000       2.456223        66.8372 
 437   0.0000       2.459497        66.9263 
 438   0.0000       2.468743        67.1779 
 439   0.0000       2.478093        67.4323 
 440   0.0000       2.488418        67.7133 
 441   0.0000       2.504809        68.1593 
 442   0.0000       2.509444        68.2854 
 443   0.0000       2.516729        68.4837 
 444   0.0000       2.532589        68.9153 
 445   0.0000       2.547422        69.3189 
 446   0.0000       2.554556        69.5130 
 447   0.0000       2.564388        69.7805 
 448   0.0000       2.575255        70.0763 
 449   0.0000       2.577847        70.1468 
 450   0.0000       2.587507        70.4096 
 451   0.0000       2.590906        70.5021 
 452   0.0000       2.598940        70.7207 
 453   0.0000       2.609037        70.9955 
 454   0.0000       2.621495        71.3345 
 455   0.0000       2.632052        71.6218 
 456   0.0000       2.647246        72.0352 
 457   0.0000       2.656802        72.2953 
 458   0.0000       2.659387        72.3656 
 459   0.0000       2.667233        72.5791 
 460   0.0000       2.674667        72.7814 
 461   0.0000       2.683887        73.0323 
 462   0.0000       2.688801        73.1660 
 463   0.0000       2.694742        73.3277 
 464   0.0000       2.697660        73.4071 
 465   0.0000       2.705996        73.6339 
 466   0.0000       2.717720        73.9529 
 467   0.0000       2.718545        73.9754 
 468   0.0000       2.721492        74.0556 
 469   0.0000       2.742388        74.6242 
 470   0.0000       2.750360        74.8411 
 471   0.0000       2.752033        74.8866 
 472   0.0000       2.759467        75.0889 
 473   0.0000       2.762765        75.1786 
 474   0.0000       2.764998        75.2394 
 475   0.0000       2.768976        75.3477 
 476   0.0000       2.771179        75.4076 
 477   0.0000       2.777382        75.5764 
 478   0.0000       2.779242        75.6270 
 479   0.0000       2.787591        75.8542 
 480   0.0000       2.801005        76.2192 
 481   0.0000       2.802277        76.2538 
 482   0.0000       2.810717        76.4835 
 483   0.0000       2.812299        76.5265 
 484   0.0000       2.822607        76.8070 
 485   0.0000       2.825622        76.8891 
 486   0.0000       2.836382        77.1819 
 487   0.0000       2.841738        77.3276 
 488   0.0000       2.844407        77.4002 
 489   0.0000       2.857812        77.7650 
 490   0.0000       2.860173        77.8293 
 491   0.0000       2.866592        78.0039 
 492   0.0000       2.879135        78.3453 
 493   0.0000       2.882722        78.4429 
 494   0.0000       2.885735        78.5248 
 495   0.0000       2.897784        78.8527 
 496   0.0000       2.901861        78.9636 
 497   0.0000       2.904768        79.0428 
 498   0.0000       2.912025        79.2402 
 499   0.0000       2.918917        79.4278 
 500   0.0000       2.929236        79.7086 
 501   0.0000       2.936059        79.8942 
 502   0.0000       2.948047        80.2205 
 503   0.0000       2.951610        80.3174 
 504   0.0000       2.957809        80.4861 
 505   0.0000       2.972282        80.8799 
 506   0.0000       2.973116        80.9026 
 507   0.0000       2.977186        81.0134 
 508   0.0000       2.980375        81.1001 
 509   0.0000       2.988632        81.3248 
 510   0.0000       3.003016        81.7162 
 511   0.0000       3.005745        81.7905 
 512   0.0000       3.011477        81.9464 
 513   0.0000       3.021675        82.2239 
 514   0.0000       3.028825        82.4185 
 515   0.0000       3.030771        82.4715 
 516   0.0000       3.036729        82.6336 
 517   0.0000       3.048345        82.9497 
 518   0.0000       3.052997        83.0763 
 519   0.0000       3.068248        83.4913 
 520   0.0000       3.074692        83.6666 
 521   0.0000       3.086610        83.9909 
 522   0.0000       3.103995        84.4640 
 523   0.0000       3.107854        84.5690 
 524   0.0000       3.120493        84.9129 
 525   0.0000       3.127378        85.1003 
 526   0.0000       3.129613        85.1611 
 527   0.0000       3.149516        85.7027 
 528   0.0000       3.161669        86.0334 
 529   0.0000       3.168942        86.2313 
 530   0.0000       3.185807        86.6902 
 531   0.0000       3.191390        86.8421 
 532   0.0000       3.197835        87.0175 
 533   0.0000       3.236027        88.0568 
 534   0.0000       3.259718        88.7014 
 535   0.0000       3.269298        88.9621 
 536   0.0000       3.278675        89.2173 
 537   0.0000       3.287463        89.4564 
 538   0.0000       3.301129        89.8283 
 539   0.0000       3.311419        90.1083 
 540   0.0000       3.322171        90.4009 
 541   0.0000       3.333233        90.7019 
 542   0.0000       3.355510        91.3081 
 543   0.0000       3.358845        91.3988 
 544   0.0000       3.373763        91.8048 
 545   0.0000       3.383843        92.0791 
 546   0.0000       3.424248        93.1785 
 547   0.0000       3.437557        93.5407 
 548   0.0000       3.458280        94.1046 
 549   0.0000       3.465031        94.2883 
 550   0.0000       3.487777        94.9072 
 551   0.0000       3.497710        95.1775 
 552   0.0000       3.522255        95.8454 
 553   0.0000       3.524618        95.9097 
 554   0.0000       3.530404        96.0672 
 555   0.0000       3.537049        96.2480 
 556   0.0000       3.541104        96.3583 
 557   0.0000       3.545699        96.4834 
 558   0.0000       3.559324        96.8541 
 559   0.0000       3.584323        97.5344 
 560   0.0000       3.593960        97.7966 
 561   0.0000       3.598329        97.9155 
 562   0.0000       3.608460        98.1912 
 563   0.0000       3.613469        98.3275 
 564   0.0000       3.632456        98.8442 
 565   0.0000       3.643925        99.1562 
 566   0.0000       3.664107        99.7054 
 567   0.0000       3.677536       100.0708 
 568   0.0000       3.686144       100.3051 
 569   0.0000       3.700346       100.6915 
 570   0.0000       3.728033       101.4449 
 571   0.0000       3.806134       103.5702 
 572   0.0000       3.827194       104.1433 
 573   0.0000       3.931336       106.9771 
 574   0.0000       3.946829       107.3987 
 575   0.0000       3.957697       107.6944 
 576   0.0000       4.010477       109.1306 
 577   0.0000       4.018346       109.3448 
 578   0.0000       4.040206       109.9396 
 579   0.0000       4.146617       112.8352 
 580   0.0000       4.209284       114.5404 
 581   0.0000       4.228275       115.0572 
 582   0.0000       4.241045       115.4047 
 583   0.0000       4.341741       118.1448 
 584   0.0000       4.356429       118.5445 
 585   0.0000       4.393523       119.5539 
 586   0.0000       4.475149       121.7750 
 587   0.0000       4.485321       122.0518 
 588   0.0000       4.543827       123.6438 
 589   0.0000       4.594271       125.0165 
 590   0.0000      21.970544       597.8489 
 591   0.0000      22.000443       598.6625 
 592   0.0000      22.085382       600.9738 
 593   0.0000      22.104244       601.4871 
 594   0.0000      22.130845       602.2109 
 595   0.0000      22.159715       602.9965 
 596   0.0000      22.202475       604.1601 
 597   0.0000      22.210988       604.3917 
 598   0.0000      22.322668       607.4307 
 599   0.0000      22.348322       608.1287 
 600   0.0000      22.406578       609.7140 
 601   0.0000      22.448314       610.8497 
 602   0.0000      22.459180       611.1453 
 603   0.0000      22.511725       612.5752 
 604   0.0000      31.938484       869.0903 
 605   0.0000      31.989280       870.4726 
 606   0.0000      32.149866       874.8423 
 607   0.0000      32.180642       875.6798 
 608   0.0000      32.246282       877.4659 
 609   0.0000      43.664251      1188.1647 
 610   0.0000      43.793942      1191.6938 
 611   0.0000      43.814673      1192.2579 
 612   0.0000      43.827103      1192.5961 
 613   0.0000      43.870067      1193.7652 
 614   0.0000      43.904679      1194.7070 

                    ********************************
                    * MULLIKEN POPULATION ANALYSIS *
                    ********************************

-----------------------
MULLIKEN ATOMIC CHARGES
-----------------------
   0 C :   -0.318273
   1 O :   -0.139738
   2 C :    0.285175
   3 C :   -0.559840
   4 O :   -0.395588
   5 C :    0.154361
   6 N :   -0.200789
   7 C :    0.189069
   8 C :   -0.010124
   9 C :   -0.589689
  10 C :   -0.554770
  11 N :   -0.058320
  12 C :   -0.063201
  13 O :   -0.491054
  14 C :    0.385159
  15 N :   -0.171302
  16 N :   -0.274596
  17 C :    0.399825
  18 C :   -0.631500
  19 O :   -0.055643
  20 N :   -0.013351
  21 C :    0.051354
  22 O :   -0.362446
  23 C :    0.216013
  24 O :   -0.287726
  25 H :    0.182160
  26 H :    0.181590
  27 H :    0.181626
  28 H :    0.191612
  29 H :    0.189359
  30 H :    0.185647
  31 H :    0.187439
  32 H :    0.190751
  33 H :    0.199741
  34 H :    0.200081
  35 H :    0.192013
  36 H :    0.192571
  37 H :    0.325254
  38 H :    0.203128
  39 H :    0.205966
  40 H :    0.201990
  41 H :    0.286067
Sum of atomic charges:    0.0000000

--------------------------------
MULLIKEN REDUCED ORBITAL CHARGES
--------------------------------
  0 C s       :     3.345026  s :     3.345026
      pz      :     0.972572  p :     2.929876
      px      :     0.856668
      py      :     1.100637
      dz2     :     0.003999  d :     0.043371
      dxz     :     0.013996
      dyz     :     0.010105
      dx2y2   :     0.010396
      dxy     :     0.004875
  1 O s       :     3.699083  s :     3.699083
      pz      :     1.598437  p :     4.406245
      px      :     1.102818
      py      :     1.704990
      dz2     :     0.009372  d :     0.034410
      dxz     :     0.014335
      dyz     :     0.007872
      dx2y2   :     0.001144
      dxy     :     0.001687
  2 C s       :     3.131972  s :     3.131972
      pz      :     0.818134  p :     2.453629
      px      :     0.856802
      py      :     0.778693
      dz2     :     0.028978  d :     0.129224
      dxz     :     0.049779
      dyz     :     0.023786
      dx2y2   :     0.012736
      dxy     :     0.013944
  3 C s       :     3.434060  s :     3.434060
      pz      :     0.889504  p :     3.098797
      px      :     1.112164
      py      :     1.097128
      dz2     :     0.007103  d :     0.026983
      dxz     :     0.007128
      dyz     :     0.003733
      dx2y2   :     0.005272
      dxy     :     0.003746
  4 O s       :     3.838607  s :     3.838607
      pz      :     1.305750  p :     4.531111
      px      :     1.768194
      py      :     1.457167
      dz2     :     0.011810  d :     0.025870
      dxz     :     0.001782
      dyz     :     0.008147
      dx2y2   :     0.002006
      dxy     :     0.002124
  5 C s       :     2.926714  s :     2.926714
      pz      :     0.938632  p :     2.850508
      px      :     0.959582
      py      :     0.952293
      dz2     :     0.013234  d :     0.068417
      dxz     :     0.017374
      dyz     :     0.008730
      dx2y2   :     0.017148
      dxy     :     0.011931
  6 N s       :     3.445901  s :     3.445901
      pz      :     1.247105  p :     3.721600
      px      :     0.974187
      py      :     1.500307
      dz2     :     0.015807  d :     0.033288
      dxz     :    -0.000413
      dyz     :     0.010768
      dx2y2   :    -0.003433
      dxy     :     0.010560
  7 C s       :     3.089030  s :     3.089030
      pz      :     0.904885  p :     2.636036
      px      :     0.773267
      py      :     0.957883
      dz2     :     0.014570  d :     0.085865
      dxz     :     0.011231
      dyz     :     0.016624
      dx2y2   :     0.023059
      dxy     :     0.020380
  8 C s       :     2.978014  s :     2.978014
      pz      :     1.029845  p :     2.963147
      px      :     0.929679
      py      :     1.003623
      dz2     :     0.015378  d :     0.068963
      dxz     :     0.011809
      dyz     :     0.011918
      dx2y2   :     0.012868
      dxy     :     0.016990
  9 C s       :     3.450466  s :     3.450466
      pz      :     1.070882  p :     3.111789
      px      :     1.130521
      py      :     0.910387
      dz2     :     0.008238  d :     0.027433
      dxz     :     0.002156
      dyz     :     0.004825
      dx2y2   :     0.005705
      dxy     :     0.006510
 10 C s       :     3.399172  s :     3.399172
      pz      :     0.885476  p :     3.128629
      px      :     1.136447
      py      :     1.106706
      dz2     :     0.008848  d :     0.026969
      dxz     :     0.003608
      dyz     :     0.005745
      dx2y2   :     0.003821
      dxy     :     0.004947
 11 N s       :     3.343458  s :     3.343458
      pz      :     1.346160  p :     3.647057
      px      :     1.130076
      py      :     1.170822
[...]

-------------------------------
LOEWDIN REDUCED ORBITAL CHARGES
-------------------------------
  0 C s       :     2.909356  s :     2.909356
      pz      :     0.998849  p :     3.020164
      px      :     0.918009
      py      :     1.103306
      dz2     :     0.008578  d :     0.101348
      dxz     :     0.033302
      dyz     :     0.025591
      dx2y2   :     0.024341
      dxy     :     0.009537
  1 O s       :     3.456453  s :     3.456453
      pz      :     1.630002  p :     4.635727
      px      :     1.326315
      py      :     1.679411
      dz2     :     0.090493  d :     0.480856
      dxz     :     0.137702
      dyz     :     0.056481
      dx2y2   :     0.113798
      dxy     :     0.082382
  2 C s       :     2.719006  s :     2.719006
      pz      :     0.986208  p :     2.600350
      px      :     0.891191
      py      :     0.722951
      dz2     :     0.067606  d :     0.277244
      dxz     :     0.110786
      dyz     :     0.043555
      dx2y2   :     0.028897
      dxy     :     0.026400
  3 C s       :     2.956197  s :     2.956197
      pz      :     1.021967  p :     3.303270
      px      :     1.141629
      py      :     1.139674
      dz2     :     0.015485  d :     0.061586
      dxz     :     0.016413
      dyz     :     0.008024
      dx2y2   :     0.012664
      dxy     :     0.008999
  4 O s       :     3.533927  s :     3.533927
      pz      :     1.492574  p :     4.630357
      px      :     1.696197
      py      :     1.441585
      dz2     :     0.081257  d :     0.221913
      dxz     :     0.067895
      dyz     :     0.043064
      dx2y2   :     0.017016
      dxy     :     0.012681
  5 C s       :     2.787697  s :     2.787697
      pz      :     1.015000  p :     2.959008
      px      :     0.951540
      py      :     0.992468
      dz2     :     0.027246  d :     0.134972
      dxz     :     0.033312
      dyz     :     0.015069
      dx2y2   :     0.034666
      dxy     :     0.024679
  6 N s       :     3.210824  s :     3.210824
      pz      :     1.239409  p :     3.866033
      px      :     1.159524
      py      :     1.467100
      dz2     :     0.079893  d :     0.511728
      dxz     :     0.134369
      dyz     :     0.063849
      dx2y2   :     0.122513
      dxy     :     0.111103
  7 C s       :     2.719921  s :     2.719921
      pz      :     0.867144  p :     2.735913
      px      :     0.940148
      py      :     0.928621
      dz2     :     0.027148  d :     0.181675
      dxz     :     0.023462
      dyz     :     0.038334
      dx2y2   :     0.049169
      dxy     :     0.043563
  8 C s       :     2.785037  s :     2.785037
      pz      :     1.050643  p :     2.970225
      px      :     0.909629
      py      :     1.009953
      dz2     :     0.031864  d :     0.133826
      dxz     :     0.021528
      dyz     :     0.021095
      dx2y2   :     0.027021
      dxy     :     0.032319
  9 C s       :     2.956894  s :     2.956894
      pz      :     1.136740  p :     3.317673
      px      :     1.155466
      py      :     1.025467
      dz2     :     0.019030  d :     0.061807
      dxz     :     0.005003
      dyz     :     0.010340
      dx2y2   :     0.012310
      dxy     :     0.015123
 10 C s       :     2.957338  s :     2.957338
      pz      :     1.011568  p :     3.321101
      px      :     1.155765
      py      :     1.153767
      dz2     :     0.019584  d :     0.060923
      dxz     :     0.007729
      dyz     :     0.012446
      dx2y2   :     0.009176
      dxy     :     0.011989
 11 N s       :     3.099024  s :     3.099024
      pz      :     1.375571  p :     3.928505
      px      :     1.265805
      py      :     1.287128
      dz2     :     0.080333  d :     0.526481
      dxz     :     0.093617
      dyz     :     0.085278
      dx2y2   :     0.121307
      dxy     :     0.145945
 12 C s       :     2.710555  s :     2.710555
      pz      :     0.857197  p :     2.650220
      px      :     0.887636
      py      :     0.905387
      dz2     :     0.042995  d :     0.251333
      dxz     :     0.048810
      dyz     :     0.050221
      dx2y2   :     0.067686
      dxy     :     0.041622
 13 O s       :     3.543553  s :     3.543553
      pz      :     1.481798  p :     4.693551
      px      :     1.643503
      py      :     1.568250
      dz2     :     0.045642  d :     0.246859
      dxz     :     0.052471
      dyz     :     0.057889
      dx2y2   :     0.052789
      dxy     :     0.038068
 14 C s       :     2.720283  s :     2.720283
      pz      :     0.844117  p :     2.685357
      px      :     0.936491
      py      :     0.904749
      dz2     :     0.029539  d :     0.179034
      dxz     :     0.027865
      dyz     :     0.040527
      dx2y2   :     0.038193
      dxy     :     0.042910
 15 N s       :     3.177196  s :     3.177196
      pz      :     1.224104  p :     3.613088
      px      :     1.089012
      py      :     1.299971
      dz2     :     0.081797  d :     0.538748
      dxz     :     0.119242
      dyz     :     0.076589
      dx2y2   :     0.133473
      dxy     :     0.127647
 16 N s       :     3.180376  s :     3.180376
      pz      :     1.112072  p :     3.651927
      px      :     1.280812
      py      :     1.259042
      dz2     :     0.109492  d :     0.522886
      dxz     :     0.104024
      dyz     :     0.102294
      dx2y2   :     0.092456
      dxy     :     0.114620
 17 C s       :     2.734447  s :     2.734447
      pz      :     0.910087  p :     2.694390
      px      :     0.857408
      py      :     0.926895
      dz2     :     0.028724  d :     0.188948
      dxz     :     0.029868
      dyz     :     0.033169
      dx2y2   :     0.047277
      dxy     :     0.049911
 18 C s       :     2.946029  s :     2.946029
      pz      :     1.081498  p :     3.311265
      px      :     1.095681
      py      :     1.134086
      dz2     :     0.012937  d :     0.058866
      dxz     :     0.016373
      dyz     :     0.007414
      dx2y2   :     0.007986
      dxy     :     0.014156
 19 O s       :     3.434451  s :     3.434451
      pz      :     1.506625  p :     4.501386
      px      :     1.407366
      py      :     1.587395
      dz2     :     0.088731  d :     0.456478
      dxz     :     0.093689
      dyz     :     0.071631
      dx2y2   :     0.094975
      dxy     :     0.107451
 20 N s       :     3.087146  s :     3.087146
      pz      :     1.375755  p :     3.888828
      px      :     1.320475
      py      :     1.192597
      dz2     :     0.058522  d :     0.483815
      dxz     :     0.075717
      dyz     :     0.103097
      dx2y2   :     0.122778
      dxy     :     0.123701
 21 C s       :     2.732586  s :     2.732586
      pz      :     0.837713  p :     2.652744
      px      :     0.853831
      py      :     0.961200
      dz2     :     0.025070  d :     0.242196
      dxz     :     0.018064
      dyz     :     0.068856
      dx2y2   :     0.048974
      dxy     :     0.081232
 22 O s       :     3.544309  s :     3.544309
      pz      :     1.554500  p :     4.634940
      px      :     1.605282
      py      :     1.475157
      dz2     :     0.025514  d :     0.210922
      dxz     :     0.012487
      dyz     :     0.058289
      dx2y2   :     0.056980
      dxy     :     0.057652
 23 C s       :     2.805052  s :     2.805052
      pz      :     0.856699  p :     2.671136
      px      :     0.826982
      py      :     0.987455
      dz2     :     0.034204  d :     0.194613
      dxz     :     0.036285
      dyz     :     0.037488
      dx2y2   :     0.053592
      dxy     :     0.033044
 24 O s       :     3.545843  s :     3.545843
      pz      :     1.469890  p :     4.597950
      px      :     1.441608
      py      :     1.686451
      dz2     :     0.037339  d :     0.239205
      dxz     :     0.047861
      dyz     :     0.056586
      dx2y2   :     0.052483
      dxy     :     0.044937
 25 H s       :     0.769621  s :     0.769621
      pz      :     0.013704  p :     0.040896
      px      :     0.019447
      py      :     0.007746
 26 H s       :     0.772901  s :     0.772901
      pz      :     0.016697  p :     0.041775
      px      :     0.005941
      py      :     0.019137
 27 H s       :     0.772809  s :     0.772809
      pz      :     0.011420  p :     0.041680
      px      :     0.006388
      py      :     0.023873
 28 H s       :     0.771277  s :     0.771277
      pz      :     0.009161  p :     0.044855
      px      :     0.021845
      py      :     0.013848
 29 H s       :     0.778171  s :     0.778171
      pz      :     0.007317  p :     0.044077
      px      :     0.009006
      py      :     0.027753
 30 H s       :     0.781930  s :     0.781930
      pz      :     0.015577  p :     0.043846
      px      :     0.019878
      py      :     0.008390
 31 H s       :     0.784810  s :     0.784810
      pz      :     0.010152  p :     0.044172
      px      :     0.020721
      py      :     0.013299
 32 H s       :     0.777718  s :     0.777718
      pz      :     0.028755  p :     0.044095
      px      :     0.007945
      py      :     0.007395
 33 H s       :     0.773528  s :     0.773528
      pz      :     0.009057  p :     0.044350
      px      :     0.023665
      py      :     0.011627
 34 H s       :     0.777082  s :     0.777082
      pz      :     0.009509  p :     0.044287
      px      :     0.021266
      py      :     0.013512
 35 H s       :     0.778365  s :     0.778365
      pz      :     0.008988  p :     0.044579
      px      :     0.022205
      py      :     0.013386
 36 H s       :     0.771505  s :     0.771505
      pz      :     0.011611  p :     0.046685
      px      :     0.008367
      py      :     0.026707
 37 H s       :     0.607291  s :     0.607291
      pz      :     0.038082  p :     0.089109
      px      :     0.026052
      py      :     0.024975
 38 H s       :     0.762179  s :     0.762179
      pz      :     0.009394  p :     0.044716
      px      :     0.009316
      py      :     0.026006
 39 H s       :     0.763934  s :     0.763934
      pz      :     0.007354  p :     0.044289
      px      :     0.021962
      py      :     0.014973
 40 H s       :     0.762692  s :     0.762692
      pz      :     0.024333  p :     0.044685
      px      :     0.012131
      py      :     0.008221
 41 H s       :     0.592658  s :     0.592658
      pz      :     0.036104  p :     0.096568
      px      :     0.044645
      py      :     0.015819


                      *****************************
                      * MAYER POPULATION ANALYSIS *
                      *****************************

  NA   - Mulliken gross atomic population
  ZA   - Total nuclear charge
  QA   - Mulliken gross atomic charge
  VA   - Mayer's total valence
  BVA  - Mayer's bonded valence
  FA   - Mayer's free valence

  ATOM       NA         ZA         QA         VA         BVA        FA
  0 C      6.3183     6.0000    -0.3183     3.7380     3.7380    -0.0000
  1 O      8.1397     8.0000    -0.1397     2.0378     2.0378     0.0000
  2 C      5.7148     6.0000     0.2852     4.0510     4.0510    -0.0000
  3 C      6.5598     6.0000    -0.5598     3.8819     3.8819    -0.0000
  4 O      8.3956     8.0000    -0.3956     2.0103     2.0103     0.0000
  5 C      5.8456     6.0000     0.1544     3.4372     3.4372     0.0000
  6 N      7.2008     7.0000    -0.2008     2.7588     2.7588    -0.0000
  7 C      5.8109     6.0000     0.1891     4.1046     4.1046    -0.0000
  8 C      6.0101     6.0000    -0.0101     3.8149     3.8149     0.0000
  9 C      6.5897     6.0000    -0.5897     3.8294     3.8294     0.0000
 10 C      6.5548     6.0000    -0.5548     3.7365     3.7365     0.0000
 11 N      7.0583     7.0000    -0.0583     2.9961     2.9961     0.0000
 12 C      6.0632     6.0000    -0.0632     4.0252     4.0252     0.0000
 13 O      8.4911     8.0000    -0.4911     1.9474     1.9474     0.0000
 14 C      5.6148     6.0000     0.3852     3.7556     3.7556    -0.0000
 15 N      7.1713     7.0000    -0.1713     3.1724     3.1724     0.0000
 16 N      7.2746     7.0000    -0.2746     3.1028     3.1028     0.0000
 17 C      5.6002     6.0000     0.3998     3.5918     3.5918     0.0000
 18 C      6.6315     6.0000    -0.6315     3.8023     3.8023    -0.0000
 19 O      8.0556     8.0000    -0.0556     2.3209     2.3209    -0.0000
 20 N      7.0134     7.0000    -0.0134     3.1776     3.1776     0.0000
 21 C      5.9486     6.0000     0.0514     4.1521     4.1521     0.0000
 22 O      8.3624     8.0000    -0.3624     2.1232     2.1232     0.0000
 23 C      5.7840     6.0000     0.2160     3.6709     3.6709    -0.0000
 24 O      8.2877     8.0000    -0.2877     2.1282     2.1282    -0.0000
 25 H      0.8178     1.0000     0.1822     0.9494     0.9494    -0.0000
 26 H      0.8184     1.0000     0.1816     0.9489     0.9489     0.0000
 27 H      0.8184     1.0000     0.1816     0.9485     0.9485    -0.0000
 28 H      0.8084     1.0000     0.1916     0.9511     0.9511     0.0000
 29 H      0.8106     1.0000     0.1894     0.9496     0.9496    -0.0000
 30 H      0.8144     1.0000     0.1856     0.9513     0.9513    -0.0000
 31 H      0.8126     1.0000     0.1874     0.9487     0.9487     0.0000
 32 H      0.8092     1.0000     0.1908     0.9478     0.9478     0.0000
 33 H      0.8003     1.0000     0.1997     0.9473     0.9473     0.0000
 34 H      0.7999     1.0000     0.2001     0.9501     0.9501     0.0000
 35 H      0.8080     1.0000     0.1920     0.9520     0.9520     0.0000
 36 H      0.8074     1.0000     0.1926     0.9497     0.9497     0.0000
 37 H      0.6747     1.0000     0.3253     0.8842     0.8842     0.0000
 38 H      0.7969     1.0000     0.2031     0.9435     0.9435    -0.0000
 39 H      0.7940     1.0000     0.2060     0.9476     0.9476     0.0000
 40 H      0.7980     1.0000     0.2020     0.9441     0.9441     0.0000
 41 H      0.7139     1.0000     0.2861     0.9354     0.9354     0.0000

  Mayer bond orders larger than 0.100000
B(  0-C ,  1-O ) :   0.8160 B(  0-C , 25-H ) :   0.9599 B(  0-C , 26-H ) :   0.9538 
B(  0-C , 27-H ) :   0.9536 B(  1-O ,  2-C ) :   1.1589 B(  2-C ,  4-O ) :   1.8235 
B(  2-C ,  5-C ) :   1.0017 B(  3-C ,  5-C ) :   0.8867 B(  3-C , 28-H ) :   0.9750 
B(  3-C , 29-H ) :   0.9596 B(  3-C , 30-H ) :   0.9792 B(  5-C ,  6-N ) :   0.6769 
B(  5-C , 23-C ) :   0.7648 B(  6-N ,  7-C ) :   1.9211 B(  7-C ,  8-C ) :   1.0251 
B(  7-C , 20-N ) :   1.0279 B(  8-C ,  9-C ) :   0.9077 B(  8-C , 10-C ) :   0.8973 
B(  8-C , 11-N ) :   0.8363 B(  9-C , 31-H ) :   0.9670 B(  9-C , 32-H ) :   0.9594 
B(  9-C , 33-H ) :   0.9659 B( 10-C , 34-H ) :   0.9749 B( 10-C , 35-H ) :   0.9570 
B( 10-C , 36-H ) :   0.9330 B( 11-N , 12-C ) :   1.1999 B( 11-N , 37-H ) :   0.8826 
B( 12-C , 13-O ) :   1.7828 B( 12-C , 14-C ) :   0.8464 B( 14-C , 15-N ) :   1.7167 
B( 14-C , 17-C ) :   0.1197 B( 14-C , 19-O ) :   1.0882 B( 15-N , 16-N ) :   1.2678 
B( 16-N , 17-C ) :   1.6176 B( 17-C , 18-C ) :   0.8290 B( 17-C , 19-O ) :   1.0626 
B( 18-C , 38-H ) :   0.9396 B( 18-C , 39-H ) :   0.9886 B( 18-C , 40-H ) :   0.9431 
B( 20-N , 21-C ) :   1.0487 B( 20-N , 41-H ) :   0.8469 B( 21-C , 22-O ) :   2.0548 
B( 21-C , 23-C ) :   0.8229 B( 23-C , 24-O ) :   2.0223 

-------
TIMINGS
-------

Total SCF time: 0 days 0 hours 1 min 30 sec 

Total time                  ....      90.889 sec
Sum of individual times     ....      89.700 sec  ( 98.7%)

Fock matrix formation       ....      83.382 sec  ( 91.7%)
  Split-RI-J                ....      12.781 sec  ( 15.3% of F)
  XC integration            ....      41.957 sec  ( 50.3% of F)
    Basis function eval.    ....       6.190 sec  ( 14.8% of XC)
    Density eval.           ....      16.406 sec  ( 39.1% of XC)
    XC-Functional eval.     ....       3.770 sec  (  9.0% of XC)
    XC-Potential eval.      ....      13.880 sec  ( 33.1% of XC)
Diagonalization             ....       0.962 sec  (  1.1%)
Density matrix formation    ....       0.069 sec  (  0.1%)
Population analysis         ....       0.165 sec  (  0.2%)
Initial guess               ....       1.334 sec  (  1.5%)
Orbital Transformation      ....       0.000 sec  (  0.0%)
Orbital Orthonormalization  ....       0.000 sec  (  0.0%)
DIIS solution               ....       0.395 sec  (  0.4%)
SOSCF solution              ....       0.579 sec  (  0.6%)
Grid generation             ....       2.814 sec  (  3.1%)

Maximum memory used throughout the entire SCF-calculation: 138.4 MB


-------------------------------------------------------------------------------
                          DFT DISPERSION CORRECTION                            
                                                                               
                                 DFTD4 V2.5                                    
-------------------------------------------------------------------------------
The R2SCAN3C composite method is recognized
Using three-body term ABC
Active option DFTDOPT                   ...         5   

Starting D4
-------------------------   ----------------
Dispersion correction           -0.019248264
-------------------------   ----------------

------------------   -----------------
gCP correction             0.038529273
------------------   -----------------

-------------------------   --------------------
FINAL SINGLE POINT ENERGY     -1268.650794085796
-------------------------   --------------------


                            ***************************************
                            *     ORCA property calculations      *
                            ***************************************

                                    ---------------------
                                    Active property flags
                                    ---------------------
   (+) Dipole Moment


------------------------------------------------------------------------------
                       ORCA ELECTRIC PROPERTIES CALCULATION
------------------------------------------------------------------------------

Dipole Moment Calculation                       ... on
Quadrupole Moment Calculation                   ... off
Polarizability Calculation                      ... off
GBWName                                         ... /lustre/hpc/kemi/ree/PhD/git/ReactivityQM/calculations/R02oxygendeprot/reac01prodN09/conf03/gfn1/orca_calc.gbw
Electron density                                ... /lustre/hpc/kemi/ree/PhD/git/ReactivityQM/calculations/R02oxygendeprot/reac01prodN09/conf03/gfn1/orca_calc.scfp
The origin for moment calculation is the CENTER OF MASS  = ( 0.115022, -1.237808 -0.162853)

-------------
DIPOLE MOMENT
-------------
                                X             Y             Z
Electronic contribution:      4.26329     -15.60175      -1.53255
Nuclear contribution   :     -3.52001      20.57631       3.28332
                        -----------------------------------------
Total Dipole Moment    :      0.74328       4.97456       1.75077
                        -----------------------------------------
Magnitude (a.u.)       :      5.32578
Magnitude (Debye)      :     13.53705



--------------------
Rotational spectrum 
--------------------
 
Rotational constants in cm-1:     0.016504     0.003600     0.003483 
Rotational constants in MHz :   494.779733   107.936074   104.419004 

 Dipole components along the rotational axes: 
x,y,z [a.u.] :    -0.275079     4.636782     2.605471 
x,y,z [Debye]:    -0.699195    11.785763     6.622581 

 

Timings for individual modules:

Sum of individual times         ...       91.945 sec (=   1.532 min)
GTO integral calculation        ...        0.822 sec (=   0.014 min)   0.9 %
SCF iterations                  ...       91.123 sec (=   1.519 min)  99.1 %
                             ****ORCA TERMINATED NORMALLY****
TOTAL RUN TIME: 0 days 0 hours 1 minutes 32 seconds 670 msec
