47
 energy: -79.482298855743 gnorm: 0.000649207212 xtb: 6.5.1 (579679a)
C           -2.66490343523213        0.82771423148165        2.16769286933416
C           -3.31347436286688        0.38288286321575        0.84500218008232
C           -4.05937210316722       -0.94584225078358        1.05820871777712
N           -4.25469608408674        1.39213332683559        0.38531265391215
C           -2.20215645839389        0.12363977023162       -0.15697481846869
N           -1.14648150106379       -0.42668584757161        0.26247715255437
C           -0.05722468949874       -0.78838822119044       -0.50350371421359
C            1.07140150716432       -1.35133342706148        0.32626608245205
O            0.91509310559989       -1.55922320086720        1.51920491156372
N            2.21452427858304       -1.59548646728795       -0.33134536230260
C            3.39633410877915       -2.08169380844391        0.37784959315415
C            4.30831462702556       -0.93236632643647        0.75186477464981
C            5.58350306010066       -0.83791757907450        0.20112458517311
C            6.42373102229295        0.21433416144440        0.54001990472079
C            5.95816001181010        1.16413126467541        1.43074370767281
F            6.76180393589046        2.18586208406126        1.76187548143452
C            4.69539891536566        1.10271919365478        1.99376223241990
C            3.87116912962093        0.04228594252731        1.64798670035864
C           -0.11975549130179       -0.65050171678449       -1.85589402684231
O            0.85155041772561       -1.04786364352164       -2.68734254609826
C           -1.27894125630953       -0.06374716182321       -2.50053098450480
O           -1.41189375899398        0.06418318536129       -3.68400208736451
N           -2.35474921001132        0.49085802924228       -1.60188052899281
C           -2.20622142817913        1.97685707548196       -1.73233018840709
C           -3.66563511099506        0.05032042007158       -2.16559607960313
H           -2.09930934243265        1.74505103519040        2.01414538131130
H           -1.99366625211051        0.05423129721838        2.53923702982351
H           -3.44666687137832        1.01051967523249        2.90212045101694
H           -4.77701739417381       -0.82357048300835        1.86797805890624
H           -4.59492519790682       -1.23428901643938        0.15628613236084
H           -3.35441700305747       -1.73313608763985        1.32198792183964
H           -3.97968939060305        2.30368440621602        0.72605660778739
H           -5.17570213367140        1.19710372026004        0.75309629624608
H            2.32324316354989       -1.34508763082932       -1.29830588409248
H            3.05251081919287       -2.60584586910637        1.27553925505327
H            3.91424298404919       -2.78791706468520       -0.27504690481151
H            5.92699292011916       -1.59014631200963       -0.49907828092620
H            7.41686017655937        0.29821700446150        0.11814215589319
H            4.36676151489814        1.86790227528810        2.68496740093312
H            2.87898450987932       -0.02719823123553        2.07752406104798
H            0.63086551973936       -0.86053325563665       -3.61574217145632
H           -3.05335161978976        2.44137784818678       -1.24006796996359
H           -1.27096414813992        2.27308090939783       -1.26416939169148
H           -2.20211684968834        2.21799181429829       -2.79279946053450
H           -3.73673361656230       -1.02915154942743       -2.06355726090577
H           -4.45454264618876        0.55331907091782       -1.61459908697489
H           -3.68683737213887        0.33752254590722       -3.21412255132934
