      -----------------------------------------------------------      
     |                   =====================                   |     
     |                           x T B                           |     
     |                   =====================                   |     
     |                         S. Grimme                         |     
     |          Mulliken Center for Theoretical Chemistry        |     
     |                    University of Bonn                     |     
      -----------------------------------------------------------      

   * xtb version 6.5.1 (579679a) compiled by 'ehlert@majestix' on 2022-07-11

   xtb is free software: you can redistribute it and/or modify it under
   the terms of the GNU Lesser General Public License as published by
   the Free Software Foundation, either version 3 of the License, or
   (at your option) any later version.
   
   xtb is distributed in the hope that it will be useful,
   but WITHOUT ANY WARRANTY; without even the implied warranty of
   MERCHANTABILITY or FITNESS FOR A PARTICULAR PURPOSE.  See the
   GNU Lesser General Public License for more details.
   
   Cite this work as:
   * C. Bannwarth, E. Caldeweyher, S. Ehlert, A. Hansen, P. Pracht,
     J. Seibert, S. Spicher, S. Grimme, WIREs Comput. Mol. Sci., 2020, 11,
     e01493. DOI: 10.1002/wcms.1493
   
   for GFN2-xTB:
   * C. Bannwarth, S. Ehlert and S. Grimme., J. Chem. Theory Comput., 2019,
     15, 1652-1671. DOI: 10.1021/acs.jctc.8b01176
   for GFN1-xTB:
   * S. Grimme, C. Bannwarth, P. Shushkov, J. Chem. Theory Comput., 2017,
     13, 1989-2009. DOI: 10.1021/acs.jctc.7b00118
   for GFN0-xTB:
   * P. Pracht, E. Caldeweyher, S. Ehlert, S. Grimme, ChemRxiv, 2019, preprint.
     DOI: 10.26434/chemrxiv.8326202.v1
   for GFN-FF:
   * S. Spicher and S. Grimme, Angew. Chem. Int. Ed., 2020, 59, 15665-15673.
     DOI: 10.1002/anie.202004239
   
   for ALPB and GBSA implicit solvation:
   * S. Ehlert, M. Stahn, S. Spicher, S. Grimme, J. Chem. Theory Comput.,
     2021, 17, 4250-4261. DOI: 10.1021/acs.jctc.1c00471
   
   for DFT-D4:
   * E. Caldeweyher, C. Bannwarth and S. Grimme, J. Chem. Phys., 2017,
     147, 034112. DOI: 10.1063/1.4993215
   * E. Caldeweyher, S. Ehlert, A. Hansen, H. Neugebauer, S. Spicher,
     C. Bannwarth and S. Grimme, J. Chem. Phys., 2019, 150, 154122.
     DOI: 10.1063/1.5090222
   * E. Caldeweyher, J.-M. Mewes, S. Ehlert and S. Grimme, Phys. Chem. Chem. Phys.
     2020, 22, 8499-8512. DOI: 10.1039/D0CP00502A
   
   for sTDA-xTB:
   * S. Grimme and C. Bannwarth, J. Chem. Phys., 2016, 145, 054103.
     DOI: 10.1063/1.4959605
   
   in the mass-spec context:
   * V. Asgeirsson, C. Bauer and S. Grimme, Chem. Sci., 2017, 8, 4879.
     DOI: 10.1039/c7sc00601b
   * J. Koopman and S. Grimme, ACS Omega 2019, 4, 12, 15120-15133.
     DOI: 10.1021/acsomega.9b02011
   
   for metadynamics refer to:
   * S. Grimme, J. Chem. Theory Comput., 2019, 155, 2847-2862
     DOI: 10.1021/acs.jctc.9b00143
   
   for SPH calculations refer to:
   * S. Spicher and S. Grimme, J. Chem. Theory Comput., 2021, 17, 1701-1714
     DOI: 10.1021/acs.jctc.0c01306
   
   with help from (in alphabetical order)
   P. Atkinson, C. Bannwarth, F. Bohle, G. Brandenburg, E. Caldeweyher
   M. Checinski, S. Dohm, S. Ehlert, S. Ehrlich, I. Gerasimov, C. Hölzer
   A. Katbashev, J. Koopman, C. Lavigne, S. Lehtola, F. März, M. Müller,
   F. Musil, H. Neugebauer, J. Pisarek, C. Plett, P. Pracht, F. Pultar,
   J. Seibert, P. Shushkov, S. Spicher, M. Stahn, M. Steiner, T. Strunk,
   J. Stückrath, T. Rose, and J. Unsleber
   
 * started run on 2023/06/20 at 15:17:39.591     

           -------------------------------------------------
          |                Calculation Setup                |
           -------------------------------------------------

          program call               : /lustre/hpc/kemi/ree/PhD/git/ReactivityQM/dep/xtb-6.5.1/bin/xtb --gfn 1 /lustre/hpc/kemi/ree/PhD/git/ReactivityQM/calculations/R03/reac02prodE04/conf10/R03_reac02prodE04_conf10_gfn1.xyz --opt --vfukui --chrg -1 --uhf 0 --alpb DMSO
          hostname                   : node068
          coordinate file            : /lustre/hpc/kemi/ree/PhD/git/ReactivityQM/calculations/R03/reac02prodE04/conf10/R03_reac02prodE04_conf10_gfn1.xyz
          omp threads                :                     1

   ID    Z sym.   atoms
    1    6 C      1, 3, 5, 6, 8-11, 13, 15, 18, 19, 22, 23, 25
    2    8 O      2, 4, 14, 20, 24, 26
    3    7 N      7, 12, 16, 17, 21
    4    1 H      27-46

           -------------------------------------------------
          |                 G F N 1 - x T B                 |
           -------------------------------------------------

        Reference                      10.1021/acs.jctc.7b00118
      * Hamiltonian:
        H0-scaling (s, p, d)           1.850000    2.250000    2.000000
        zeta-weighting                 0.000000
      * Dispersion:
        s8                             2.400000
        a1                             0.630000
        a2                             5.000000
        s9                             0.000000
      * Repulsion:
        kExp                           1.500000
        rExp                           1.000000
      * Coulomb:
        alpha                          2.000000
        third order                    atomic
        anisotropic                    false
      * Halogen bond correction:
        rad-scale                      1.300000
        damping                        0.440000

      * Solvation model:               ALPB
        Solvent                        DMSO
        Parameter file                 internal GFN1-xTB/ALPB
        Dielectric constant                4.6680E+01
        Reference state                gsolv [1 M gas/solution]
        Free energy shift                  7.6243E-03 Eh       4.7843E+00 kcal/mol
        Temperature                        2.9815E+02 K
        Density                            1.1000E+00 kg/L
        Solvent mass                       7.8130E+01 g/mol
        Interaction kernel             P16
        Born radius scaling (c1)           1.7672E+00
        Born radii integrator          GBOBC
        Born offset                        0.0000E+00 a0       0.0000E+00 AA
        H-bond correction              true
        Ion screening                  false
        Surface tension                    1.0000E-05 Eh       1.5569E+01 dyn/cm
        Grid points                               230 per atom

          ...................................................
          :                      SETUP                      :
          :.................................................:
          :  # basis functions                 144          :
          :  # atomic orbitals                 144          :
          :  # shells                           92          :
          :  # electrons                       142          :
          :  # halogen bonds                     0          :
          :  max. iterations                   250          :
          :  Hamiltonian                  GFN1-xTB          :
          :  restarted?                      false          :
          :  GBSA solvation                   true          :
          :  PC potential                    false          :
          :  electronic temp.          300.0000000     K    :
          :  accuracy                    1.0000000          :
          :  -> integral cutoff          0.2500000E+02      :
          :  -> integral neglect         0.1000000E-07      :
          :  -> SCF convergence          0.1000000E-05 Eh   :
          :  -> wf. convergence          0.2000000E-04 e    :
          :  Broyden damping             0.4000000          :
          ...................................................

 iter      E             dE          RMSdq      gap      omega  full diag
   1    -87.5064613 -0.875065E+02  0.849E+00    1.62       0.0  T
   2    -87.7878077 -0.281346E+00  0.509E+00    0.15       1.0  T
   3    -87.7681641  0.196436E-01  0.160E+00    0.08       1.0  T
   4    -87.8010833 -0.329192E-01  0.325E-01    0.36       1.0  T
   5    -87.3584641  0.442619E+00  0.179E+00    0.26       1.0  T
   6    -87.8028007 -0.444337E+00  0.261E-01    0.40       1.0  T
   7    -87.8034615 -0.660823E-03  0.235E-01    0.34       1.0  T
   8    -87.8048502 -0.138867E-02  0.201E-01    0.25       1.0  T
   9    -87.8079934 -0.314322E-02  0.118E-01    0.16       1.0  T
  10    -87.8097735 -0.178016E-02  0.178E-02    0.11       1.0  T
  11    -87.8091139  0.659643E-03  0.731E-02    0.14       1.0  T
  12    -87.8098174 -0.703492E-03  0.247E-03    0.12       6.0  T
  13    -87.8098179 -0.495835E-06  0.137E-03    0.12      10.7  T
  14    -87.8098181 -0.223533E-06  0.302E-04    0.12      48.8  T
  15    -87.8098181 -0.691767E-08  0.198E-04    0.12      74.5  T
  16    -87.8098181  0.123111E-08  0.219E-04    0.12      67.4  T
  17    -87.8098181 -0.581241E-08  0.660E-05    0.12     223.6  T

   *** convergence criteria satisfied after 17 iterations ***

         #    Occupation            Energy/Eh            Energy/eV
      -------------------------------------------------------------
         1        2.0000           -0.8411248             -22.8882
       ...           ...                  ...                  ...
        65        2.0000           -0.4319972             -11.7552
        66        2.0000           -0.4252461             -11.5715
        67        2.0000           -0.4194869             -11.4148
        68        2.0000           -0.3973709             -10.8130
        69        2.0000           -0.3838044             -10.4438
        70        2.0000           -0.3804397             -10.3523
        71        1.8110           -0.2993127              -8.1447 (HOMO)
        72        0.1890           -0.2950192              -8.0279 (LUMO)
        73                         -0.2533615              -6.8943
        74                         -0.2414708              -6.5708
        75                         -0.2324201              -6.3245
        76                         -0.1791606              -4.8752
       ...                                ...                  ...
       144                          0.7057534              19.2045
      -------------------------------------------------------------
                  HL-Gap            0.0042935 Eh            0.1168 eV
             Fermi-level           -0.2971659 Eh           -8.0863 eV

 SCC (total)                   0 d,  0 h,  0 min,  0.145 sec
 SCC setup                      ...        0 min,  0.001 sec (  0.943%)
 Dispersion                     ...        0 min,  0.000 sec (  0.161%)
 classical contributions        ...        0 min,  0.000 sec (  0.062%)
 integral evaluation            ...        0 min,  0.041 sec ( 28.135%)
 iterations                     ...        0 min,  0.061 sec ( 42.116%)
 molecular gradient             ...        0 min,  0.041 sec ( 28.024%)
 printout                       ...        0 min,  0.001 sec (  0.549%)

         :::::::::::::::::::::::::::::::::::::::::::::::::::::
         ::                     SUMMARY                     ::
         :::::::::::::::::::::::::::::::::::::::::::::::::::::
         :: total energy             -87.027631447145 Eh    ::
         :: total w/o Gsasa/hb       -87.004589846272 Eh    ::
         :: gradient norm              0.152433004340 Eh/a0 ::
         :: HOMO-LUMO gap              0.116833193062 eV    ::
         ::.................................................::
         :: SCC energy               -87.809818119489 Eh    ::
         :: -> electrostatic           0.454407305693 Eh    ::
         :: -> Gsolv                  -0.120177747775 Eh    ::
         ::    -> Gelec               -0.097136146902 Eh    ::
         ::    -> Gsasa               -0.024417793593 Eh    ::
         ::    -> Ghb                 -0.006248086284 Eh    ::
         ::    -> Gshift               0.007624279005 Eh    ::
         :: repulsion energy           0.812405591842 Eh    ::
         :: dispersion energy         -0.030218919498 Eh    ::
         :: halogen bond corr.         0.000000000000 Eh    ::
         :: add. restraining           0.000000000000 Eh    ::
         :: total charge              -1.000000000000 e     ::
         :::::::::::::::::::::::::::::::::::::::::::::::::::::

      ----------------------------------------------------------- 
     |                   =====================                   |
     |                        A N C O P T                        |
     |                   =====================                   |
     |               Approximate Normal Coordinate               |
     |                Rational Function Optimizer                |
      ----------------------------------------------------------- 

          ...................................................
          :                      SETUP                      :
          :.................................................:
          :   optimization level            normal          :
          :   max. optcycles                   200          :
          :   ANC micro-cycles                  20          :
          :   degrees of freedom               132          :
          :.................................................:
          :   RF solver                   davidson          :
          :   write xtbopt.log                true          :
          :   linear?                        false          :
          :   energy convergence         0.5000000E-05 Eh   :
          :   grad. convergence          0.1000000E-02 Eh/α :
          :   maximium RF displ.         1.0000000          :
          :   Hlow (freq-cutoff)         0.1000000E-01      :
          :   Hmax (freq-cutoff)         5.0000000          :
          :   S6 in model hess.         20.0000000          :
          ...................................................

generating ANC from model Hessian ...
Using Lindh-Hessian (1995)
 Shifting diagonal of input Hessian by   9.807161660293006E-003
 Lowest  eigenvalues of input Hessian
    0.000000    0.000000    0.000000    0.000000    0.000000    0.000000
    0.010000    0.010041    0.010345    0.010881    0.011312    0.012065
    0.012404    0.012890    0.013836    0.014353    0.015839    0.015974
 Highest eigenvalues
    1.949445    2.064848    2.111609    2.259670    2.275851    2.317593
 

........................................................................
.............................. CYCLE    1 ..............................
........................................................................
   1    -87.8098181 -0.878098E+02  0.884E-06    0.12       0.0  T
   2    -87.8098181  0.878472E-09  0.818E-05    0.12     180.3  T
   3    -87.8098181 -0.888875E-09  0.919E-07    0.12   16043.7  T
     SCC iter.                  ...        0 min,  0.011 sec
     gradient                   ...        0 min,  0.039 sec
 * total energy  :   -87.0276314 Eh     change       -0.5884857E-09 Eh
   gradient norm :     0.1524255 Eh/α   predicted     0.0000000E+00 (-100.00%)
   displ. norm   :     0.3106425 α      lambda       -0.2051157E-01
   maximum displ.:     0.1015111 α      in ANC's #7, #25, #31, ...

........................................................................
.............................. CYCLE    2 ..............................
........................................................................
   1    -87.8234399 -0.878234E+02  0.188E-01    0.44       0.0  T
   2    -87.4480132  0.375427E+00  0.165E+00    0.11       1.0  T
   3    -87.8244000 -0.376387E+00  0.161E-01    0.34       1.0  T
   4    -87.8247900 -0.390008E-03  0.144E-01    0.29       1.0  T
   5    -87.8264359 -0.164595E-02  0.827E-02    0.19       1.0  T
   6    -87.8273092 -0.873299E-03  0.361E-03    0.14       4.1  T
   7    -87.8273032  0.598410E-05  0.712E-03    0.14       2.1  T
   8    -87.8273091 -0.583273E-05  0.182E-03    0.14       8.1  T
   9    -87.8273094 -0.357776E-06  0.604E-04    0.14      24.4  T
  10    -87.8273095 -0.262307E-07  0.445E-04    0.14      33.2  T
  11    -87.8273095 -0.225897E-07  0.135E-04    0.14     109.3  T
  12    -87.8273095 -0.223599E-08  0.203E-05    0.14     727.9  T
     SCC iter.                  ...        0 min,  0.043 sec
     gradient                   ...        0 min,  0.040 sec
 * total energy  :   -87.0426037 Eh     change       -0.1497228E-01 Eh
   gradient norm :     0.0789239 Eh/α   predicted    -0.1125689E-01 ( -24.82%)
   displ. norm   :     0.3291932 α      lambda       -0.1026926E-01
   maximum displ.:     0.1501240 α      in ANC's #7, #27, #25, ...

........................................................................
.............................. CYCLE    3 ..............................
........................................................................
   1    -87.8416214 -0.878416E+02  0.134E-01    0.50       0.0  T
   2    -87.8412828  0.338510E-03  0.143E-01    0.13       1.0  T
   3    -87.8427215 -0.143861E-02  0.693E-02    0.29       1.0  T
   4    -87.8430656 -0.344146E-03  0.394E-02    0.23       1.0  T
   5    -87.8394515  0.361407E-02  0.169E-01    0.11       1.0  T
   6    -87.8430885 -0.363693E-02  0.385E-02    0.16       1.0  T
   7    -87.8431852 -0.967790E-04  0.253E-02    0.17       1.0  T
   8    -87.8432482 -0.629777E-04  0.123E-02    0.18       1.2  T
   9    -87.8432581 -0.992304E-05  0.838E-03    0.18       1.8  T
  10    -87.8432639 -0.573237E-05  0.496E-03    0.18       3.0  T
  11    -87.8432663 -0.244457E-05  0.223E-03    0.18       6.6  T
  12    -87.8432669 -0.530281E-06  0.821E-04    0.18      18.0  T
  13    -87.8432669 -0.795404E-07  0.165E-04    0.18      89.3  T
  14    -87.8432669 -0.330927E-08  0.146E-06    0.18   10104.7  T
     SCC iter.                  ...        0 min,  0.052 sec
     gradient                   ...        0 min,  0.042 sec
 * total energy  :   -87.0486992 Eh     change       -0.6095435E-02 Eh
   gradient norm :     0.0297027 Eh/α   predicted    -0.5691064E-02 (  -6.63%)
   displ. norm   :     0.2652885 α      lambda       -0.1819863E-02
   maximum displ.:     0.1892211 α      in ANC's #7, #16, #27, ...

........................................................................
.............................. CYCLE    4 ..............................
........................................................................
   1    -87.8449505 -0.878450E+02  0.557E-02    0.29       0.0  T
   2    -87.8441286  0.821889E-03  0.100E-01    0.15       1.0  T
   3    -87.8452010 -0.107242E-02  0.226E-02    0.24       1.0  T
   4    -87.8452516 -0.505569E-04  0.980E-03    0.22       1.5  T
   5    -87.8452521 -0.570807E-06  0.962E-03    0.20       1.5  T
   6    -87.8452610 -0.884133E-05  0.345E-03    0.20       4.3  T
   7    -87.8452623 -0.130426E-05  0.346E-04    0.21      42.6  T
   8    -87.8452623 -0.116530E-07  0.688E-05    0.21     214.2  T
   9    -87.8452623  0.621924E-09  0.849E-05    0.21     173.6  T
     SCC iter.                  ...        0 min,  0.034 sec
     gradient                   ...        0 min,  0.041 sec
 * total energy  :   -87.0500565 Eh     change       -0.1357389E-02 Eh
   gradient norm :     0.0201928 Eh/α   predicted    -0.9740699E-03 ( -28.24%)
   displ. norm   :     0.3832015 α      lambda       -0.1533847E-02
   maximum displ.:     0.2863719 α      in ANC's #7, #4, #6, ...

........................................................................
.............................. CYCLE    5 ..............................
........................................................................
   1    -87.8464459 -0.878464E+02  0.489E-02    0.29       0.0  T
   2    -87.8464768 -0.309026E-04  0.397E-02    0.20       1.0  T
   3    -87.8466023 -0.125490E-03  0.106E-02    0.25       1.4  T
   4    -87.8466119 -0.965274E-05  0.428E-03    0.23       3.4  T
   5    -87.8466117  0.180223E-06  0.203E-03    0.23       7.3  T
   6    -87.8466120 -0.243799E-06  0.434E-04    0.23      33.9  T
   7    -87.8466120  0.187725E-10  0.209E-04    0.23      70.7  T
   8    -87.8466120 -0.413992E-08  0.459E-05    0.23     321.1  T
   9    -87.8466120 -0.105160E-11  0.231E-05    0.23     638.9  T
     SCC iter.                  ...        0 min,  0.034 sec
     gradient                   ...        0 min,  0.042 sec
 * total energy  :   -87.0511298 Eh     change       -0.1073284E-02 Eh
   gradient norm :     0.0112382 Eh/α   predicted    -0.8795425E-03 ( -18.05%)
   displ. norm   :     0.3500290 α      lambda       -0.7867655E-03
   maximum displ.:     0.2597611 α      in ANC's #7, #4, #9, ...

........................................................................
.............................. CYCLE    6 ..............................
........................................................................
   1    -87.8477926 -0.878478E+02  0.224E-02    0.25       0.0  T
   2    -87.8478103 -0.176760E-04  0.100E-02    0.23       1.5  T
   3    -87.8478159 -0.562082E-05  0.463E-03    0.25       3.2  T
   4    -87.8478168 -0.863747E-06  0.199E-03    0.24       7.4  T
   5    -87.8478168  0.185068E-08  0.826E-04    0.24      17.9  T
   6    -87.8478168 -0.197830E-07  0.135E-04    0.24     109.3  T
   7    -87.8478168 -0.300830E-09  0.444E-05    0.24     331.9  T
     SCC iter.                  ...        0 min,  0.026 sec
     gradient                   ...        0 min,  0.042 sec
 * total energy  :   -87.0517299 Eh     change       -0.6000818E-03 Eh
   gradient norm :     0.0111919 Eh/α   predicted    -0.4415828E-03 ( -26.41%)
   displ. norm   :     0.3641166 α      lambda       -0.6270250E-03
   maximum displ.:     0.2516916 α      in ANC's #7, #4, #9, ...

........................................................................
.............................. CYCLE    7 ..............................
........................................................................
   1    -87.8496138 -0.878496E+02  0.111E-02    0.23       0.0  T
   2    -87.8496202 -0.638695E-05  0.771E-03    0.25       1.9  T
   3    -87.8496224 -0.223687E-05  0.288E-03    0.24       5.1  T
   4    -87.8496224  0.608718E-07  0.238E-03    0.24       6.2  T
   5    -87.8496225 -0.162485E-06  0.443E-04    0.24      33.3  T
   6    -87.8496225 -0.303392E-08  0.997E-05    0.24     147.8  T
   7    -87.8496225 -0.333472E-09  0.331E-05    0.24     444.8  T
     SCC iter.                  ...        0 min,  0.026 sec
     gradient                   ...        0 min,  0.042 sec
 * total energy  :   -87.0522079 Eh     change       -0.4780087E-03 Eh
   gradient norm :     0.0111124 Eh/α   predicted    -0.3550799E-03 ( -25.72%)
   displ. norm   :     0.3513714 α      lambda       -0.4519406E-03
   maximum displ.:     0.2311227 α      in ANC's #7, #4, #9, ...

........................................................................
.............................. CYCLE    8 ..............................
........................................................................
   1    -87.8509587 -0.878510E+02  0.150E-02    0.22       0.0  T
   2    -87.8509638 -0.515281E-05  0.151E-02    0.26       1.0  T
   3    -87.8509799 -0.160483E-04  0.353E-03    0.24       4.2  T
   4    -87.8509801 -0.194037E-06  0.143E-03    0.24      10.3  T
   5    -87.8509801 -0.628600E-08  0.329E-04    0.24      44.9  T
   6    -87.8509801 -0.857577E-08  0.109E-04    0.24     135.0  T
   7    -87.8509801 -0.118270E-08  0.277E-05    0.24     532.8  T
     SCC iter.                  ...        0 min,  0.026 sec
     gradient                   ...        0 min,  0.042 sec
 * total energy  :   -87.0525356 Eh     change       -0.3276455E-03 Eh
   gradient norm :     0.0090402 Eh/α   predicted    -0.2538694E-03 ( -22.52%)
   displ. norm   :     0.2784139 α      lambda       -0.2477189E-03
   maximum displ.:     0.1711234 α      in ANC's #7, #4, #9, ...

........................................................................
.............................. CYCLE    9 ..............................
........................................................................
   1    -87.8518916 -0.878519E+02  0.138E-02    0.22       0.0  T
   2    -87.8518938 -0.220049E-05  0.124E-02    0.25       1.2  T
   3    -87.8519065 -0.127043E-04  0.182E-03    0.23       8.1  T
   4    -87.8519065 -0.159391E-07  0.110E-03    0.23      13.4  T
   5    -87.8519066 -0.514832E-08  0.406E-04    0.23      36.3  T
   6    -87.8519066 -0.906869E-08  0.741E-05    0.23     198.9  T
   7    -87.8519066 -0.490431E-09  0.202E-05    0.23     731.4  T
     SCC iter.                  ...        0 min,  0.026 sec
     gradient                   ...        0 min,  0.042 sec
 * total energy  :   -87.0527130 Eh     change       -0.1774389E-03 Eh
   gradient norm :     0.0063970 Eh/α   predicted    -0.1334645E-03 ( -24.78%)
   displ. norm   :     0.2050240 α      lambda       -0.1455749E-03
   maximum displ.:     0.1188988 α      in ANC's #4, #7, #9, ...

........................................................................
.............................. CYCLE   10 ..............................
........................................................................
   1    -87.8525732 -0.878526E+02  0.109E-02    0.22       0.0  T
   2    -87.8525746 -0.135983E-05  0.816E-03    0.24       1.8  T
   3    -87.8525806 -0.600043E-05  0.239E-03    0.23       6.2  T
   4    -87.8525809 -0.311745E-06  0.920E-04    0.23      16.0  T
   5    -87.8525809  0.805910E-08  0.493E-04    0.23      29.9  T
   6    -87.8525809 -0.114825E-07  0.632E-05    0.23     233.1  T
   7    -87.8525809 -0.662936E-10  0.184E-05    0.23     800.6  T
     SCC iter.                  ...        0 min,  0.026 sec
     gradient                   ...        0 min,  0.042 sec
 * total energy  :   -87.0528182 Eh     change       -0.1052193E-03 Eh
   gradient norm :     0.0043115 Eh/α   predicted    -0.7584755E-04 ( -27.91%)
   displ. norm   :     0.1593125 α      lambda       -0.1015608E-03
   maximum displ.:     0.1035585 α      in ANC's #4, #7, #14, ...

........................................................................
.............................. CYCLE   11 ..............................
........................................................................
   1    -87.8527756 -0.878528E+02  0.785E-03    0.22       0.0  T
   2    -87.8527772 -0.157917E-05  0.466E-03    0.23       3.2  T
   3    -87.8527787 -0.153257E-05  0.274E-03    0.22       5.4  T
   4    -87.8527792 -0.485489E-06  0.850E-04    0.23      17.3  T
   5    -87.8527792  0.579850E-08  0.486E-04    0.22      30.4  T
   6    -87.8527792 -0.810232E-08  0.634E-05    0.23     232.7  T
   7    -87.8527792 -0.173301E-09  0.177E-05    0.23     832.9  T
     SCC iter.                  ...        0 min,  0.026 sec
     gradient                   ...        0 min,  0.042 sec
 * total energy  :   -87.0528921 Eh     change       -0.7389401E-04 Eh
   gradient norm :     0.0036838 Eh/α   predicted    -0.5207037E-04 ( -29.53%)
   displ. norm   :     0.1386629 α      lambda       -0.8055969E-04
   maximum displ.:     0.0914924 α      in ANC's #4, #11, #14, ...

........................................................................
.............................. CYCLE   12 ..............................
........................................................................
   1    -87.8527842 -0.878528E+02  0.495E-03    0.23       0.0  T
   2    -87.8527854 -0.122977E-05  0.242E-03    0.22       6.1  T
   3    -87.8527855 -0.602190E-07  0.114E-03    0.22      13.0  T
   4    -87.8527855  0.339285E-07  0.117E-03    0.22      12.6  T
   5    -87.8527856 -0.750464E-07  0.321E-04    0.22      45.9  T
   6    -87.8527856 -0.276802E-08  0.525E-05    0.22     280.9  T
   7    -87.8527856 -0.133895E-09  0.183E-05    0.22     805.9  T
     SCC iter.                  ...        0 min,  0.026 sec
     gradient                   ...        0 min,  0.042 sec
 * total energy  :   -87.0529523 Eh     change       -0.6019659E-04 Eh
   gradient norm :     0.0041577 Eh/α   predicted    -0.4105727E-04 ( -31.79%)
   displ. norm   :     0.1605668 α      lambda       -0.7954945E-04
   maximum displ.:     0.1009836 α      in ANC's #4, #9, #11, ...

........................................................................
.............................. CYCLE   13 ..............................
........................................................................
   1    -87.8522336 -0.878522E+02  0.454E-03    0.23       0.0  T
   2    -87.8522343 -0.711726E-06  0.320E-03    0.22       4.6  T
   3    -87.8522347 -0.400967E-06  0.149E-03    0.22       9.9  T
   4    -87.8522347 -0.334550E-07  0.100E-03    0.22      14.7  T
   5    -87.8522348 -0.491614E-07  0.313E-04    0.22      47.0  T
   6    -87.8522348 -0.269867E-08  0.472E-05    0.22     312.5  T
   7    -87.8522348 -0.721059E-10  0.177E-05    0.22     834.5  T
     SCC iter.                  ...        0 min,  0.026 sec
     gradient                   ...        0 min,  0.042 sec
 * total energy  :   -87.0530107 Eh     change       -0.5842015E-04 Eh
   gradient norm :     0.0045597 Eh/α   predicted    -0.4080426E-04 ( -30.15%)
   displ. norm   :     0.1652674 α      lambda       -0.7171639E-04
   maximum displ.:     0.1000469 α      in ANC's #4, #9, #11, ...

........................................................................
.............................. CYCLE   14 ..............................
........................................................................
   1    -87.8521464 -0.878521E+02  0.589E-03    0.23       0.0  T
   2    -87.8521461  0.279463E-06  0.558E-03    0.22       2.6  T
   3    -87.8521487 -0.263606E-05  0.138E-03    0.23      10.7  T
   4    -87.8521488 -0.932007E-07  0.696E-04    0.22      21.2  T
   5    -87.8521488 -0.637388E-08  0.184E-04    0.23      80.2  T
   6    -87.8521488 -0.417998E-09  0.516E-05    0.23     285.9  T
     SCC iter.                  ...        0 min,  0.023 sec
     gradient                   ...        0 min,  0.042 sec
 * total energy  :   -87.0530640 Eh     change       -0.5322993E-04 Eh
   gradient norm :     0.0041466 Eh/α   predicted    -0.3683900E-04 ( -30.79%)
   displ. norm   :     0.1755960 α      lambda       -0.6952773E-04
   maximum displ.:     0.1096196 α      in ANC's #4, #9, #11, ...

........................................................................
.............................. CYCLE   15 ..............................
........................................................................
   1    -87.8518329 -0.878518E+02  0.552E-03    0.23       0.0  T
   2    -87.8518336 -0.647850E-06  0.302E-03    0.22       4.9  T
   3    -87.8518340 -0.469777E-06  0.167E-03    0.23       8.8  T
   4    -87.8518342 -0.145430E-06  0.683E-04    0.23      21.6  T
   5    -87.8518342 -0.103405E-07  0.204E-04    0.23      72.2  T
   6    -87.8518342 -0.145410E-08  0.497E-05    0.23     296.5  T
   7    -87.8518342 -0.470095E-10  0.134E-05    0.23    1097.7  T
     SCC iter.                  ...        0 min,  0.026 sec
     gradient                   ...        0 min,  0.043 sec
 * total energy  :   -87.0531150 Eh     change       -0.5102611E-04 Eh
   gradient norm :     0.0035566 Eh/α   predicted    -0.3583846E-04 ( -29.76%)
   displ. norm   :     0.1721942 α      lambda       -0.6590803E-04
   maximum displ.:     0.1112758 α      in ANC's #4, #9, #10, ...

........................................................................
.............................. CYCLE   16 ..............................
........................................................................
   1    -87.8524842 -0.878525E+02  0.561E-03    0.23       0.0  T
   2    -87.8524848 -0.583155E-06  0.342E-03    0.23       4.3  T
   3    -87.8524855 -0.663060E-06  0.168E-03    0.23       8.8  T
   4    -87.8524856 -0.160565E-06  0.729E-04    0.23      20.2  T
   5    -87.8524857 -0.119054E-07  0.182E-04    0.23      81.1  T
   6    -87.8524857 -0.507455E-09  0.445E-05    0.23     331.0  T
     SCC iter.                  ...        0 min,  0.022 sec
     gradient                   ...        0 min,  0.041 sec
 * total energy  :   -87.0531635 Eh     change       -0.4847001E-04 Eh
   gradient norm :     0.0034513 Eh/α   predicted    -0.3393155E-04 ( -29.99%)
   displ. norm   :     0.1977486 α      lambda       -0.6364926E-04
   maximum displ.:     0.1335450 α      in ANC's #4, #11, #10, ...

........................................................................
.............................. CYCLE   17 ..............................
........................................................................
   1    -87.8521770 -0.878522E+02  0.505E-03    0.23       0.0  T
   2    -87.8521775 -0.507416E-06  0.300E-03    0.23       4.9  T
   3    -87.8521780 -0.520805E-06  0.159E-03    0.23       9.3  T
   4    -87.8521781 -0.122950E-06  0.694E-04    0.23      21.2  T
   5    -87.8521781 -0.616788E-08  0.181E-04    0.23      81.4  T
   6    -87.8521781 -0.134401E-08  0.466E-05    0.23     316.4  T
     SCC iter.                  ...        0 min,  0.023 sec
     gradient                   ...        0 min,  0.042 sec
 * total energy  :   -87.0532106 Eh     change       -0.4714380E-04 Eh
   gradient norm :     0.0038631 Eh/α   predicted    -0.3307422E-04 ( -29.84%)
   displ. norm   :     0.2167677 α      lambda       -0.6987707E-04
   maximum displ.:     0.1489133 α      in ANC's #4, #10, #11, ...

........................................................................
.............................. CYCLE   18 ..............................
........................................................................
   1    -87.8535441 -0.878535E+02  0.563E-03    0.23       0.0  T
   2    -87.8535446 -0.557801E-06  0.307E-03    0.23       4.8  T
   3    -87.8535450 -0.409754E-06  0.195E-03    0.23       7.5  T
   4    -87.8535452 -0.133658E-06  0.761E-04    0.23      19.4  T
   5    -87.8535452 -0.126946E-07  0.228E-04    0.23      64.6  T
   6    -87.8535452 -0.276610E-08  0.359E-05    0.23     410.7  T
   7    -87.8535452 -0.257216E-10  0.115E-05    0.23    1285.4  T
     SCC iter.                  ...        0 min,  0.026 sec
     gradient                   ...        0 min,  0.041 sec
 * total energy  :   -87.0532568 Eh     change       -0.4617958E-04 Eh
   gradient norm :     0.0036202 Eh/α   predicted    -0.3658044E-04 ( -20.79%)
   displ. norm   :     0.2879881 α      lambda       -0.5514075E-04
   maximum displ.:     0.1987970 α      in ANC's #4, #11, #10, ...

........................................................................
.............................. CYCLE   19 ..............................
........................................................................
   1    -87.8509042 -0.878509E+02  0.857E-03    0.23       0.0  T
   2    -87.8509051 -0.930907E-06  0.612E-03    0.24       2.4  T
   3    -87.8509080 -0.292736E-05  0.264E-03    0.23       5.6  T
   4    -87.8509082 -0.224531E-06  0.107E-03    0.23      13.8  T
   5    -87.8509083 -0.129838E-07  0.328E-04    0.23      44.9  T
   6    -87.8509083 -0.278000E-08  0.756E-05    0.23     195.0  T
   7    -87.8509083 -0.189701E-09  0.205E-05    0.23     718.1  T
     SCC iter.                  ...        0 min,  0.026 sec
     gradient                   ...        0 min,  0.041 sec
 * total energy  :   -87.0532724 Eh     change       -0.1564949E-04 Eh
   gradient norm :     0.0060070 Eh/α   predicted    -0.2986134E-04 (  90.81%)
   displ. norm   :     0.0561670 α      lambda       -0.7211529E-04
   maximum displ.:     0.0258645 α      in ANC's #4, #3, #5, ...

........................................................................
.............................. CYCLE   20 ..............................
........................................................................
   1    -87.8532904 -0.878533E+02  0.770E-03    0.22       0.0  T
   2    -87.8532909 -0.488996E-06  0.575E-03    0.23       2.6  T
   3    -87.8532930 -0.208063E-05  0.248E-03    0.23       5.9  T
   4    -87.8532932 -0.177485E-06  0.113E-03    0.23      13.1  T
   5    -87.8532932 -0.383119E-07  0.250E-04    0.23      59.0  T
   6    -87.8532932 -0.208966E-08  0.462E-05    0.23     319.1  T
   7    -87.8532932 -0.548113E-10  0.108E-05    0.23    1365.3  T
     SCC iter.                  ...        0 min,  0.025 sec
     gradient                   ...        0 min,  0.042 sec
 * total energy  :   -87.0533111 Eh     change       -0.3871046E-04 Eh
   gradient norm :     0.0028039 Eh/α   predicted    -0.3617434E-04 (  -6.55%)
   displ. norm   :     0.1281540 α      lambda       -0.3694014E-04
   maximum displ.:     0.0851278 α      in ANC's #4, #3, #9, ...
 * RMSD in coord.:     0.5027353 α      energy gain  -0.2567970E-01 Eh

generating ANC from model Hessian ...
Using Lindh-Hessian (1995)
 Shifting diagonal of input Hessian by   9.782872784050519E-003
 Lowest  eigenvalues of input Hessian
    0.000000    0.000000    0.000000    0.000000    0.000000    0.000000
    0.010000    0.010011    0.010304    0.010967    0.011244    0.011994
    0.012139    0.012972    0.013607    0.014048    0.015580    0.016183
 Highest eigenvalues
    2.027606    2.100345    2.179978    2.258773    2.298577    2.395433
 

........................................................................
.............................. CYCLE   21 ..............................
........................................................................
   1    -87.8537697 -0.878538E+02  0.418E-03    0.22       0.0  T
   2    -87.8537699 -0.135250E-06  0.321E-03    0.23       4.6  T
   3    -87.8537706 -0.707359E-06  0.137E-03    0.23      10.8  T
   4    -87.8537707 -0.652901E-07  0.602E-04    0.23      24.5  T
   5    -87.8537707 -0.931794E-08  0.168E-04    0.23      87.5  T
   6    -87.8537707 -0.604260E-09  0.321E-05    0.23     459.3  T
     SCC iter.                  ...        0 min,  0.022 sec
     gradient                   ...        0 min,  0.042 sec
 * total energy  :   -87.0533382 Eh     change       -0.2703217E-04 Eh
   gradient norm :     0.0029783 Eh/α   predicted     0.0000000E+00 (-100.00%)
   displ. norm   :     0.0280092 α      lambda       -0.2073082E-04
   maximum displ.:     0.0140224 α      in ANC's #3, #23, #12, ...

........................................................................
.............................. CYCLE   22 ..............................
........................................................................
   1    -87.8535244 -0.878535E+02  0.240E-03    0.23       0.0  T
   2    -87.8535246 -0.135191E-06  0.147E-03    0.23      10.0  T
   3    -87.8535247 -0.105980E-06  0.882E-04    0.23      16.7  T
   4    -87.8535247 -0.308019E-07  0.370E-04    0.23      39.8  T
   5    -87.8535247 -0.226480E-08  0.946E-05    0.23     155.9  T
   6    -87.8535247 -0.452061E-09  0.191E-05    0.23     773.6  T
     SCC iter.                  ...        0 min,  0.022 sec
     gradient                   ...        0 min,  0.042 sec
 * total energy  :   -87.0533579 Eh     change       -0.1975127E-04 Eh
   gradient norm :     0.0015238 Eh/α   predicted    -0.1202543E-04 ( -39.12%)
   displ. norm   :     0.1347328 α      lambda       -0.4800896E-04
   maximum displ.:     0.0717748 α      in ANC's #3, #12, #23, ...

........................................................................
.............................. CYCLE   23 ..............................
........................................................................
   1    -87.8528156 -0.878528E+02  0.766E-03    0.23       0.0  T
   2    -87.8528164 -0.851892E-06  0.539E-03    0.22       2.7  T
   3    -87.8528185 -0.204023E-05  0.261E-03    0.23       5.6  T
   4    -87.8528188 -0.309603E-06  0.107E-03    0.23      13.8  T
   5    -87.8528188 -0.291514E-08  0.293E-04    0.23      50.3  T
   6    -87.8528188 -0.331553E-08  0.560E-05    0.23     263.2  T
   7    -87.8528188 -0.112323E-09  0.156E-05    0.23     946.5  T
     SCC iter.                  ...        0 min,  0.026 sec
     gradient                   ...        0 min,  0.042 sec
 * total energy  :   -87.0533938 Eh     change       -0.3591864E-04 Eh
   gradient norm :     0.0035638 Eh/α   predicted    -0.2419911E-04 ( -32.63%)
   displ. norm   :     0.0382403 α      lambda       -0.1617507E-04
   maximum displ.:     0.0232203 α      in ANC's #3, #12, #2, ...

........................................................................
.............................. CYCLE   24 ..............................
........................................................................
   1    -87.8529984 -0.878530E+02  0.105E-03    0.23       0.0  T
   2    -87.8529984 -0.148737E-07  0.686E-04    0.23      21.5  T
   3    -87.8529985 -0.136302E-07  0.414E-04    0.23      35.6  T
   4    -87.8529985 -0.802349E-08  0.208E-04    0.23      71.0  T
   5    -87.8529985 -0.119645E-08  0.288E-05    0.23     511.7  T
   6    -87.8529985 -0.177636E-10  0.749E-06    0.23    1968.2  T
     SCC iter.                  ...        0 min,  0.024 sec
     gradient                   ...        0 min,  0.042 sec
 * total energy  :   -87.0534094 Eh     change       -0.1553933E-04 Eh
   gradient norm :     0.0027287 Eh/α   predicted    -0.8620464E-05 ( -44.52%)
   displ. norm   :     0.1556785 α      lambda       -0.6116718E-04
   maximum displ.:     0.0911417 α      in ANC's #3, #2, #4, ...

........................................................................
.............................. CYCLE   25 ..............................
........................................................................
   1    -87.8534244 -0.878534E+02  0.360E-03    0.23       0.0  T
   2    -87.8534247 -0.311941E-06  0.190E-03    0.23       7.8  T
   3    -87.8534247 -0.110711E-07  0.115E-03    0.23      12.8  T
   4    -87.8534247 -0.329706E-07  0.864E-04    0.23      17.1  T
   5    -87.8534248 -0.407335E-07  0.113E-04    0.23     130.5  T
   6    -87.8534248 -0.243247E-09  0.310E-05    0.23     476.0  T
     SCC iter.                  ...        0 min,  0.022 sec
     gradient                   ...        0 min,  0.042 sec
 * total energy  :   -87.0534494 Eh     change       -0.4005102E-04 Eh
   gradient norm :     0.0018224 Eh/α   predicted    -0.3132505E-04 ( -21.79%)
   displ. norm   :     0.1693390 α      lambda       -0.2299568E-04
   maximum displ.:     0.1015280 α      in ANC's #3, #2, #4, ...

........................................................................
.............................. CYCLE   26 ..............................
........................................................................
   1    -87.8534466 -0.878534E+02  0.240E-03    0.23       0.0  T
   2    -87.8534467 -0.838003E-07  0.127E-03    0.23      11.6  T
   3    -87.8534467 -0.600850E-07  0.979E-04    0.22      15.1  T
   4    -87.8534468 -0.475896E-07  0.306E-04    0.23      48.2  T
   5    -87.8534468 -0.157952E-08  0.105E-04    0.23     140.0  T
   6    -87.8534468 -0.537568E-09  0.225E-05    0.23     655.9  T
     SCC iter.                  ...        0 min,  0.022 sec
     gradient                   ...        0 min,  0.040 sec
 * total energy  :   -87.0534742 Eh     change       -0.2480544E-04 Eh
   gradient norm :     0.0030096 Eh/α   predicted    -0.1167180E-04 ( -52.95%)
   displ. norm   :     0.1242151 α      lambda       -0.2878176E-04
   maximum displ.:     0.0742221 α      in ANC's #3, #2, #4, ...

........................................................................
.............................. CYCLE   27 ..............................
........................................................................
   1    -87.8535013 -0.878535E+02  0.192E-03    0.22       0.0  T
   2    -87.8535012  0.867433E-07  0.192E-03    0.23       7.7  T
   3    -87.8535015 -0.342976E-06  0.514E-04    0.22      28.7  T
   4    -87.8535015 -0.504777E-08  0.238E-04    0.22      62.1  T
   5    -87.8535015 -0.399552E-09  0.424E-05    0.22     347.6  T
   6    -87.8535015 -0.412967E-10  0.136E-05    0.22    1081.2  T
     SCC iter.                  ...        0 min,  0.022 sec
     gradient                   ...        0 min,  0.041 sec
 * total energy  :   -87.0534994 Eh     change       -0.2510751E-04 Eh
   gradient norm :     0.0026152 Eh/α   predicted    -0.1461367E-04 ( -41.80%)
   displ. norm   :     0.2781197 α      lambda       -0.6007488E-04
   maximum displ.:     0.1654636 α      in ANC's #3, #2, #4, ...

........................................................................
.............................. CYCLE   28 ..............................
........................................................................
   1    -87.8529722 -0.878530E+02  0.468E-03    0.22       0.0  T
   2    -87.8529718  0.409938E-06  0.468E-03    0.23       3.2  T
   3    -87.8529738 -0.200469E-05  0.126E-03    0.22      11.7  T
   4    -87.8529738 -0.291590E-07  0.659E-04    0.22      22.4  T
   5    -87.8529738 -0.405511E-08  0.117E-04    0.22     126.4  T
   6    -87.8529738 -0.411006E-09  0.385E-05    0.22     383.0  T
     SCC iter.                  ...        0 min,  0.022 sec
     gradient                   ...        0 min,  0.041 sec
 * total energy  :   -87.0535401 Eh     change       -0.4073593E-04 Eh
   gradient norm :     0.0025141 Eh/α   predicted    -0.3236117E-04 ( -20.56%)
   displ. norm   :     0.1665795 α      lambda       -0.3241106E-04
   maximum displ.:     0.0992040 α      in ANC's #3, #2, #4, ...

........................................................................
.............................. CYCLE   29 ..............................
........................................................................
   1    -87.8532852 -0.878533E+02  0.281E-03    0.22       0.0  T
   2    -87.8532851  0.517773E-07  0.244E-03    0.23       6.1  T
   3    -87.8532856 -0.461695E-06  0.930E-04    0.22      15.9  T
   4    -87.8532856 -0.333263E-07  0.457E-04    0.22      32.2  T
   5    -87.8532856 -0.324164E-08  0.845E-05    0.22     174.4  T
   6    -87.8532856 -0.142293E-09  0.227E-05    0.22     649.2  T
     SCC iter.                  ...        0 min,  0.022 sec
     gradient                   ...        0 min,  0.042 sec
 * total energy  :   -87.0535649 Eh     change       -0.2478385E-04 Eh
   gradient norm :     0.0021556 Eh/α   predicted    -0.1667280E-04 ( -32.73%)
   displ. norm   :     0.2432401 α      lambda       -0.3776358E-04
   maximum displ.:     0.1414419 α      in ANC's #3, #2, #4, ...

........................................................................
.............................. CYCLE   30 ..............................
........................................................................
   1    -87.8530270 -0.878530E+02  0.284E-03    0.22       0.0  T
   2    -87.8530273 -0.256579E-06  0.108E-03    0.22      13.7  T
   3    -87.8530273 -0.263864E-07  0.581E-04    0.22      25.4  T
   4    -87.8530273 -0.188358E-08  0.194E-04    0.22      75.8  T
   5    -87.8530273  0.261792E-09  0.104E-04    0.22     141.5  T
     SCC iter.                  ...        0 min,  0.019 sec
     gradient                   ...        0 min,  0.042 sec
 * total energy  :   -87.0535961 Eh     change       -0.3117796E-04 Eh
   gradient norm :     0.0024452 Eh/α   predicted    -0.2000002E-04 ( -35.85%)
   displ. norm   :     0.3193530 α      lambda       -0.6610134E-04
   maximum displ.:     0.1781524 α      in ANC's #3, #2, #4, ...

........................................................................
.............................. CYCLE   31 ..............................
........................................................................
   1    -87.8538225 -0.878538E+02  0.521E-03    0.23       0.0  T
   2    -87.8538227 -0.177070E-06  0.359E-03    0.22       4.1  T
   3    -87.8538235 -0.839422E-06  0.165E-03    0.23       8.9  T
   4    -87.8538237 -0.165321E-06  0.705E-04    0.22      20.9  T
   5    -87.8538237 -0.154550E-07  0.164E-04    0.22      89.8  T
   6    -87.8538237 -0.402025E-09  0.420E-05    0.22     350.8  T
     SCC iter.                  ...        0 min,  0.022 sec
     gradient                   ...        0 min,  0.041 sec
 * total energy  :   -87.0536390 Eh     change       -0.4291232E-04 Eh
   gradient norm :     0.0023917 Eh/α   predicted    -0.3643470E-04 ( -15.10%)
   displ. norm   :     0.3025468 α      lambda       -0.3972246E-04
   maximum displ.:     0.1670347 α      in ANC's #3, #2, #4, ...

........................................................................
.............................. CYCLE   32 ..............................
........................................................................
   1    -87.8522617 -0.878523E+02  0.569E-03    0.23       0.0  T
   2    -87.8522617 -0.187371E-07  0.457E-03    0.22       3.2  T
   3    -87.8522629 -0.125093E-05  0.192E-03    0.23       7.7  T
   4    -87.8522630 -0.979490E-07  0.973E-04    0.22      15.2  T
   5    -87.8522631 -0.462758E-07  0.160E-04    0.23      92.1  T
   6    -87.8522631 -0.247439E-09  0.470E-05    0.23     313.8  T
     SCC iter.                  ...        0 min,  0.022 sec
     gradient                   ...        0 min,  0.042 sec
 * total energy  :   -87.0536538 Eh     change       -0.1484060E-04 Eh
   gradient norm :     0.0042057 Eh/α   predicted    -0.2168029E-04 (  46.09%)
   displ. norm   :     0.1056727 α      lambda       -0.6534076E-04
   maximum displ.:     0.0559516 α      in ANC's #2, #4, #1, ...

........................................................................
.............................. CYCLE   33 ..............................
........................................................................
   1    -87.8539931 -0.878540E+02  0.475E-03    0.23       0.0  T
   2    -87.8539934 -0.277253E-06  0.324E-03    0.22       4.5  T
   3    -87.8539937 -0.364739E-06  0.186E-03    0.23       7.9  T
   4    -87.8539938 -0.111900E-06  0.891E-04    0.23      16.5  T
   5    -87.8539939 -0.363643E-07  0.149E-04    0.23      99.0  T
   6    -87.8539939 -0.318522E-09  0.440E-05    0.23     334.8  T
     SCC iter.                  ...        0 min,  0.022 sec
     gradient                   ...        0 min,  0.041 sec
 * total energy  :   -87.0536946 Eh     change       -0.4084170E-04 Eh
   gradient norm :     0.0027239 Eh/α   predicted    -0.3304653E-04 ( -19.09%)
   displ. norm   :     0.1780039 α      lambda       -0.3647985E-04
   maximum displ.:     0.0985303 α      in ANC's #2, #4, #3, ...

........................................................................
.............................. CYCLE   34 ..............................
........................................................................
   1    -87.8541137 -0.878541E+02  0.297E-03    0.23       0.0  T
   2    -87.8541141 -0.423262E-06  0.150E-03    0.23       9.8  T
   3    -87.8541142 -0.792623E-07  0.682E-04    0.23      21.6  T
   4    -87.8541142 -0.296940E-08  0.414E-04    0.23      35.6  T
   5    -87.8541142 -0.111124E-07  0.197E-04    0.23      74.7  T
   6    -87.8541142 -0.123529E-08  0.326E-05    0.23     452.6  T
     SCC iter.                  ...        0 min,  0.022 sec
     gradient                   ...        0 min,  0.041 sec
 * total energy  :   -87.0537259 Eh     change       -0.3127310E-04 Eh
   gradient norm :     0.0026185 Eh/α   predicted    -0.1881806E-04 ( -39.83%)
   displ. norm   :     0.2937572 α      lambda       -0.6737566E-04
   maximum displ.:     0.1638875 α      in ANC's #2, #4, #3, ...

........................................................................
.............................. CYCLE   35 ..............................
........................................................................
   1    -87.8536062 -0.878536E+02  0.792E-03    0.22       0.0  T
   2    -87.8536060  0.247824E-06  0.715E-03    0.23       2.1  T
   3    -87.8536106 -0.464270E-05  0.162E-03    0.22       9.1  T
   4    -87.8536108 -0.140444E-06  0.645E-04    0.22      22.8  T
   5    -87.8536108 -0.558344E-08  0.329E-04    0.22      44.9  T
   6    -87.8536108 -0.215869E-08  0.492E-05    0.22     299.8  T
   7    -87.8536108 -0.563745E-10  0.197E-05    0.22     747.7  T
     SCC iter.                  ...        0 min,  0.026 sec
     gradient                   ...        0 min,  0.041 sec
 * total energy  :   -87.0537801 Eh     change       -0.5417598E-04 Eh
   gradient norm :     0.0022955 Eh/α   predicted    -0.3659534E-04 ( -32.45%)
   displ. norm   :     0.3255363 α      lambda       -0.5874681E-04
   maximum displ.:     0.1835326 α      in ANC's #2, #4, #3, ...

........................................................................
.............................. CYCLE   36 ..............................
........................................................................
   1    -87.8525433 -0.878525E+02  0.935E-03    0.21       0.0  T
   2    -87.8525399  0.334380E-05  0.105E-02    0.23       1.4  T
   3    -87.8525509 -0.109598E-04  0.130E-03    0.22      11.4  T
   4    -87.8525509 -0.412538E-07  0.655E-04    0.22      22.5  T
   5    -87.8525509 -0.471991E-08  0.302E-04    0.22      48.8  T
   6    -87.8525509 -0.141499E-08  0.560E-05    0.22     263.5  T
   7    -87.8525509 -0.578382E-10  0.224E-05    0.22     657.8  T
     SCC iter.                  ...        0 min,  0.025 sec
     gradient                   ...        0 min,  0.041 sec
 * total energy  :   -87.0538251 Eh     change       -0.4504901E-04 Eh
   gradient norm :     0.0033508 Eh/α   predicted    -0.3248676E-04 ( -27.89%)
   displ. norm   :     0.2761356 α      lambda       -0.5092507E-04
   maximum displ.:     0.1593251 α      in ANC's #2, #4, #3, ...

........................................................................
.............................. CYCLE   37 ..............................
........................................................................
   1    -87.8523122 -0.878523E+02  0.785E-03    0.21       0.0  T
   2    -87.8523075  0.467116E-05  0.103E-02    0.23       1.4  T
   3    -87.8523186 -0.110410E-04  0.979E-04    0.22      15.1  T
   4    -87.8523186 -0.163256E-07  0.527E-04    0.22      28.0  T
   5    -87.8523186 -0.281820E-08  0.213E-04    0.22      69.3  T
   6    -87.8523186 -0.398316E-09  0.577E-05    0.22     255.6  T
   7    -87.8523186 -0.990354E-10  0.196E-05    0.22     752.8  T
     SCC iter.                  ...        0 min,  0.025 sec
     gradient                   ...        0 min,  0.042 sec
 * total energy  :   -87.0538651 Eh     change       -0.3996963E-04 Eh
   gradient norm :     0.0040619 Eh/α   predicted    -0.2741131E-04 ( -31.42%)
   displ. norm   :     0.3609913 α      lambda       -0.6436658E-04
   maximum displ.:     0.2064045 α      in ANC's #2, #4, #3, ...

........................................................................
.............................. CYCLE   38 ..............................
........................................................................
   1    -87.8515929 -0.878516E+02  0.586E-03    0.21       0.0  T
   2    -87.8515921  0.826803E-06  0.574E-03    0.22       2.6  T
   3    -87.8515954 -0.332300E-05  0.183E-03    0.21       8.0  T
   4    -87.8515956 -0.196162E-06  0.749E-04    0.22      19.7  T
   5    -87.8515956 -0.630381E-08  0.218E-04    0.22      67.6  T
   6    -87.8515956 -0.816968E-09  0.754E-05    0.22     195.5  T
   7    -87.8515956 -0.844125E-10  0.215E-05    0.22     686.5  T
     SCC iter.                  ...        0 min,  0.026 sec
     gradient                   ...        0 min,  0.042 sec
 * total energy  :   -87.0539174 Eh     change       -0.5231291E-04 Eh
   gradient norm :     0.0045270 Eh/α   predicted    -0.3637983E-04 ( -30.46%)
   displ. norm   :     0.4754619 α      lambda       -0.1138100E-03
   maximum displ.:     0.2794182 α      in ANC's #2, #4, #1, ...

........................................................................
.............................. CYCLE   39 ..............................
........................................................................
   1    -87.8529039 -0.878529E+02  0.869E-03    0.21       0.0  T
   2    -87.8529045 -0.600370E-06  0.626E-03    0.22       2.4  T
   3    -87.8529071 -0.261346E-05  0.368E-03    0.21       4.0  T
   4    -87.8529082 -0.103684E-05  0.151E-03    0.22       9.8  T
   5    -87.8529082 -0.482120E-07  0.339E-04    0.21      43.5  T
   6    -87.8529082 -0.172955E-08  0.112E-04    0.21     131.4  T
   7    -87.8529082 -0.213177E-09  0.297E-05    0.21     496.1  T
     SCC iter.                  ...        0 min,  0.043 sec
     gradient                   ...        0 min,  0.068 sec
 * total energy  :   -87.0539907 Eh     change       -0.7328925E-04 Eh
   gradient norm :     0.0046653 Eh/α   predicted    -0.6977179E-04 (  -4.80%)
   displ. norm   :     0.5913665 α      lambda       -0.9988601E-04
   maximum displ.:     0.3368707 α      in ANC's #2, #4, #3, ...

........................................................................
.............................. CYCLE   40 ..............................
........................................................................
   1    -87.8494305 -0.878494E+02  0.112E-02    0.22       0.0  T
   2    -87.8494331 -0.262829E-05  0.682E-03    0.21       2.2  T
   3    -87.8494344 -0.130857E-05  0.397E-03    0.22       3.7  T
   4    -87.8494350 -0.612639E-06  0.243E-03    0.21       6.1  T
   5    -87.8494354 -0.407577E-06  0.453E-04    0.22      32.5  T
   6    -87.8494354 -0.296967E-08  0.141E-04    0.22     104.5  T
   7    -87.8494354 -0.497892E-09  0.354E-05    0.22     416.8  T
     SCC iter.                  ...        0 min,  0.027 sec
     gradient                   ...        0 min,  0.052 sec
 * total energy  :   -87.0540359 Eh     change       -0.4517389E-04 Eh
   gradient norm :     0.0071719 Eh/α   predicted    -0.6741391E-04 (  49.23%)
   displ. norm   :     0.0894251 α      lambda       -0.9825472E-04
   maximum displ.:     0.0412259 α      in ANC's #4, #6, #2, ...

........................................................................
.............................. CYCLE   41 ..............................
........................................................................
   1    -87.8537588 -0.878538E+02  0.118E-02    0.23       0.0  T
   2    -87.8537513  0.745959E-05  0.136E-02    0.21       1.1  T
   3    -87.8537696 -0.182380E-04  0.276E-03    0.22       5.3  T
   4    -87.8537699 -0.303080E-06  0.141E-03    0.22      10.4  T
   5    -87.8537699 -0.243641E-07  0.348E-04    0.22      42.4  T
   6    -87.8537699 -0.823233E-08  0.624E-05    0.22     236.1  T
   7    -87.8537699 -0.305860E-09  0.184E-05    0.22     801.3  T
     SCC iter.                  ...        0 min,  0.028 sec
     gradient                   ...        0 min,  0.062 sec
 * total energy  :   -87.0540973 Eh     change       -0.6142548E-04 Eh
   gradient norm :     0.0041741 Eh/α   predicted    -0.4952083E-04 ( -19.38%)
   displ. norm   :     0.0892142 α      lambda        0.2321554E-04
   maximum displ.:     0.0411171 α      in ANC's #4, #6, #2, ...

........................................................................
.............................. CYCLE   42 ..............................
........................................................................
   1    -87.8579790 -0.878580E+02  0.113E-02    0.24       0.0  T
   2    -87.8579763  0.266090E-05  0.114E-02    0.22       1.3  T
   3    -87.8579884 -0.120737E-04  0.255E-03    0.23       5.8  T
   4    -87.8579886 -0.206181E-06  0.133E-03    0.23      11.1  T
   5    -87.8579886 -0.293615E-07  0.282E-04    0.23      52.3  T
   6    -87.8579886 -0.412568E-08  0.582E-05    0.23     253.4  T
   7    -87.8579886 -0.270319E-09  0.167E-05    0.23     882.2  T
     SCC iter.                  ...        0 min,  0.044 sec
     gradient                   ...        0 min,  0.076 sec
 * total energy  :   -87.0540865 Eh     change        0.1083472E-04 Eh
   gradient norm :     0.0076892 Eh/α   predicted     0.1170007E-04 (   7.99%)
   displ. norm   :     0.3262823 α      lambda       -0.1251869E-03
   maximum displ.:     0.1902008 α      in ANC's #2, #4, #1, ...
 * RMSD in coord.:     0.6825457 α      energy gain  -0.7753323E-03 Eh

generating ANC from model Hessian ...
Using Lindh-Hessian (1995)
 Shifting diagonal of input Hessian by   9.793708953247994E-003
 Lowest  eigenvalues of input Hessian
    0.000000    0.000000    0.000000    0.000000    0.000000    0.000000
    0.010000    0.010018    0.010286    0.010981    0.011205    0.011953
    0.012118    0.012901    0.013473    0.014004    0.015804    0.016269
 Highest eigenvalues
    2.027161    2.107664    2.177306    2.263997    2.285337    2.395331
 

........................................................................
.............................. CYCLE   43 ..............................
........................................................................
   1    -87.8542840 -0.878543E+02  0.125E-02    0.22       0.0  T
   2    -87.8542849 -0.893418E-06  0.104E-02    0.24       1.4  T
   3    -87.8542930 -0.807938E-05  0.337E-03    0.22       4.4  T
   4    -87.8542932 -0.239221E-06  0.182E-03    0.23       8.1  T
   5    -87.8542933 -0.928716E-07  0.397E-04    0.23      37.2  T
   6    -87.8542933 -0.302801E-08  0.986E-05    0.23     149.5  T
   7    -87.8542933 -0.454122E-09  0.273E-05    0.23     539.7  T
     SCC iter.                  ...        0 min,  0.043 sec
     gradient                   ...        0 min,  0.071 sec
 * total energy  :   -87.0541720 Eh     change       -0.8555213E-04 Eh
   gradient norm :     0.0039188 Eh/α   predicted     0.0000000E+00 (-100.00%)
   displ. norm   :     0.0298954 α      lambda       -0.2434987E-04
   maximum displ.:     0.0123861 α      in ANC's #4, #9, #5, ...

........................................................................
.............................. CYCLE   44 ..............................
........................................................................
   1    -87.8544137 -0.878544E+02  0.320E-03    0.22       0.0  T
   2    -87.8544139 -0.156165E-06  0.207E-03    0.23       7.1  T
   3    -87.8544141 -0.224173E-06  0.104E-03    0.22      14.2  T
   4    -87.8544141 -0.468293E-07  0.480E-04    0.22      30.7  T
   5    -87.8544141 -0.795781E-08  0.130E-04    0.22     113.1  T
   6    -87.8544141 -0.790450E-09  0.214E-05    0.22     690.2  T
     SCC iter.                  ...        0 min,  0.036 sec
     gradient                   ...        0 min,  0.071 sec
 * total energy  :   -87.0541966 Eh     change       -0.2457370E-04 Eh
   gradient norm :     0.0023126 Eh/α   predicted    -0.1535846E-04 ( -37.50%)
   displ. norm   :     0.0809041 α      lambda       -0.4731051E-04
   maximum displ.:     0.0369248 α      in ANC's #4, #5, #9, ...

........................................................................
.............................. CYCLE   45 ..............................
........................................................................
   1    -87.8543901 -0.878544E+02  0.679E-03    0.22       0.0  T
   2    -87.8543901  0.511341E-07  0.540E-03    0.23       2.7  T
   3    -87.8543924 -0.229248E-05  0.179E-03    0.22       8.3  T
   4    -87.8543926 -0.178544E-06  0.739E-04    0.22      20.0  T
   5    -87.8543926 -0.122639E-07  0.277E-04    0.22      53.2  T
   6    -87.8543926 -0.374460E-08  0.384E-05    0.22     383.6  T
   7    -87.8543926 -0.565734E-10  0.119E-05    0.22    1238.4  T
     SCC iter.                  ...        0 min,  0.041 sec
     gradient                   ...        0 min,  0.065 sec
 * total energy  :   -87.0542271 Eh     change       -0.3047198E-04 Eh
   gradient norm :     0.0018139 Eh/α   predicted    -0.2381030E-04 ( -21.86%)
   displ. norm   :     0.0999846 α      lambda       -0.1915946E-04
   maximum displ.:     0.0498899 α      in ANC's #4, #5, #1, ...

........................................................................
.............................. CYCLE   46 ..............................
........................................................................
   1    -87.8541892 -0.878542E+02  0.577E-03    0.22       0.0  T
   2    -87.8541885  0.633358E-06  0.552E-03    0.23       2.7  T
   3    -87.8541914 -0.283289E-05  0.117E-03    0.22      12.6  T
   4    -87.8541914 -0.810603E-07  0.474E-04    0.22      31.1  T
   5    -87.8541914 -0.407333E-08  0.198E-04    0.22      74.5  T
   6    -87.8541914 -0.948987E-09  0.353E-05    0.22     417.6  T
     SCC iter.                  ...        0 min,  0.032 sec
     gradient                   ...        0 min,  0.043 sec
 * total energy  :   -87.0542467 Eh     change       -0.1958083E-04 Eh
   gradient norm :     0.0023283 Eh/α   predicted    -0.9623459E-05 ( -50.85%)
   displ. norm   :     0.0743337 α      lambda       -0.2000928E-04
   maximum displ.:     0.0386908 α      in ANC's #4, #1, #5, ...

........................................................................
.............................. CYCLE   47 ..............................
........................................................................
   1    -87.8541386 -0.878541E+02  0.241E-03    0.22       0.0  T
   2    -87.8541387 -0.694339E-07  0.205E-03    0.22       7.2  T
   3    -87.8541390 -0.368537E-06  0.712E-04    0.22      20.7  T
   4    -87.8541391 -0.324803E-07  0.283E-04    0.22      52.2  T
   5    -87.8541391 -0.156001E-08  0.988E-05    0.22     149.2  T
   6    -87.8541391 -0.244569E-10  0.208E-05    0.22     707.3  T
     SCC iter.                  ...        0 min,  0.022 sec
     gradient                   ...        0 min,  0.053 sec
 * total energy  :   -87.0542642 Eh     change       -0.1750571E-04 Eh
   gradient norm :     0.0021199 Eh/α   predicted    -0.1013703E-04 ( -42.09%)
   displ. norm   :     0.1940271 α      lambda       -0.4597325E-04
   maximum displ.:     0.0994652 α      in ANC's #4, #1, #3, ...

........................................................................
.............................. CYCLE   48 ..............................
........................................................................
   1    -87.8537937 -0.878538E+02  0.548E-03    0.22       0.0  T
   2    -87.8537952 -0.141549E-05  0.323E-03    0.22       4.6  T
   3    -87.8537958 -0.629971E-06  0.169E-03    0.22       8.7  T
   4    -87.8537960 -0.206766E-06  0.669E-04    0.22      22.0  T
   5    -87.8537960 -0.167992E-07  0.238E-04    0.22      61.9  T
   6    -87.8537960 -0.170772E-09  0.600E-05    0.22     245.8  T
   7    -87.8537960 -0.948148E-10  0.111E-05    0.22    1324.1  T
     SCC iter.                  ...        0 min,  0.041 sec
     gradient                   ...        0 min,  0.067 sec
 * total energy  :   -87.0542971 Eh     change       -0.3291336E-04 Eh
   gradient norm :     0.0027878 Eh/α   predicted    -0.2389185E-04 ( -27.41%)
   displ. norm   :     0.1697429 α      lambda       -0.2909265E-04
   maximum displ.:     0.0889544 α      in ANC's #4, #1, #3, ...

........................................................................
.............................. CYCLE   49 ..............................
........................................................................
   1    -87.8536444 -0.878536E+02  0.411E-03    0.22       0.0  T
   2    -87.8536454 -0.997637E-06  0.171E-03    0.22       8.6  T
   3    -87.8536455 -0.990386E-07  0.517E-04    0.22      28.5  T
   4    -87.8536455 -0.246766E-08  0.270E-04    0.22      54.6  T
   5    -87.8536455  0.156034E-08  0.218E-04    0.22      67.6  T
   6    -87.8536456 -0.374307E-08  0.483E-05    0.22     305.3  T
   7    -87.8536456 -0.641052E-10  0.863E-06    0.22    1708.2  T
     SCC iter.                  ...        0 min,  0.046 sec
     gradient                   ...        0 min,  0.073 sec
 * total energy  :   -87.0543196 Eh     change       -0.2252718E-04 Eh
   gradient norm :     0.0031070 Eh/α   predicted    -0.1496886E-04 ( -33.55%)
   displ. norm   :     0.1780030 α      lambda       -0.3392225E-04
   maximum displ.:     0.0937006 α      in ANC's #4, #1, #3, ...

........................................................................
.............................. CYCLE   50 ..............................
........................................................................
   1    -87.8539110 -0.878539E+02  0.433E-03    0.22       0.0  T
   2    -87.8539117 -0.666530E-06  0.267E-03    0.22       5.5  T
   3    -87.8539120 -0.347486E-06  0.120E-03    0.22      12.3  T
   4    -87.8539121 -0.962004E-07  0.593E-04    0.22      24.9  T
   5    -87.8539121 -0.175065E-07  0.183E-04    0.22      80.7  T
   6    -87.8539121 -0.272991E-09  0.439E-05    0.22     336.2  T
     SCC iter.                  ...        0 min,  0.038 sec
     gradient                   ...        0 min,  0.067 sec
 * total energy  :   -87.0543473 Eh     change       -0.2771682E-04 Eh
   gradient norm :     0.0025148 Eh/α   predicted    -0.1750232E-04 ( -36.85%)
   displ. norm   :     0.2328052 α      lambda       -0.4374845E-04
   maximum displ.:     0.1228673 α      in ANC's #4, #1, #2, ...

........................................................................
.............................. CYCLE   51 ..............................
........................................................................
   1    -87.8542456 -0.878542E+02  0.499E-03    0.23       0.0  T
   2    -87.8542462 -0.530145E-06  0.373E-03    0.22       4.0  T
   3    -87.8542471 -0.915221E-06  0.142E-03    0.23      10.4  T
   4    -87.8542472 -0.121096E-06  0.692E-04    0.22      21.3  T
   5    -87.8542472 -0.159276E-07  0.211E-04    0.22      69.8  T
   6    -87.8542472 -0.332150E-09  0.474E-05    0.22     310.8  T
   7    -87.8542472 -0.393783E-10  0.121E-05    0.22    1215.0  T
     SCC iter.                  ...        0 min,  0.040 sec
     gradient                   ...        0 min,  0.068 sec
 * total energy  :   -87.0543817 Eh     change       -0.3435995E-04 Eh
   gradient norm :     0.0018786 Eh/α   predicted    -0.2306319E-04 ( -32.88%)
   displ. norm   :     0.3908344 α      lambda       -0.3825490E-04
   maximum displ.:     0.2071550 α      in ANC's #4, #1, #2, ...

........................................................................
.............................. CYCLE   52 ..............................
........................................................................
   1    -87.8539549 -0.878540E+02  0.677E-03    0.23       0.0  T
   2    -87.8539568 -0.190556E-05  0.460E-03    0.22       3.2  T
   3    -87.8539580 -0.121920E-05  0.171E-03    0.23       8.6  T
   4    -87.8539582 -0.175736E-06  0.102E-03    0.23      14.4  T
   5    -87.8539582 -0.387893E-07  0.328E-04    0.23      45.0  T
   6    -87.8539582 -0.268784E-09  0.790E-05    0.23     186.7  T
   7    -87.8539582 -0.105175E-09  0.180E-05    0.23     819.2  T
     SCC iter.                  ...        0 min,  0.043 sec
     gradient                   ...        0 min,  0.068 sec
 * total energy  :   -87.0544202 Eh     change       -0.3852426E-04 Eh
   gradient norm :     0.0028672 Eh/α   predicted    -0.2043123E-04 ( -46.97%)
   displ. norm   :     0.1587688 α      lambda       -0.2865083E-04
   maximum displ.:     0.0848706 α      in ANC's #4, #1, #2, ...

........................................................................
.............................. CYCLE   53 ..............................
........................................................................
   1    -87.8546245 -0.878546E+02  0.188E-03    0.23       0.0  T
   2    -87.8546247 -0.122712E-06  0.907E-04    0.23      16.3  T
   3    -87.8546247 -0.100780E-07  0.471E-04    0.23      31.3  T
   4    -87.8546247  0.167447E-09  0.199E-04    0.23      74.1  T
   5    -87.8546247 -0.578311E-09  0.114E-04    0.23     129.0  T
     SCC iter.                  ...        0 min,  0.030 sec
     gradient                   ...        0 min,  0.069 sec
 * total energy  :   -87.0544467 Eh     change       -0.2646609E-04 Eh
   gradient norm :     0.0027695 Eh/α   predicted    -0.1468732E-04 ( -44.51%)
   displ. norm   :     0.4140729 α      lambda       -0.8166841E-04
   maximum displ.:     0.2226800 α      in ANC's #4, #1, #2, ...

........................................................................
.............................. CYCLE   54 ..............................
........................................................................
   1    -87.8548664 -0.878549E+02  0.578E-03    0.23       0.0  T
   2    -87.8548681 -0.174241E-05  0.280E-03    0.23       5.3  T
   3    -87.8548685 -0.327966E-06  0.134E-03    0.23      11.0  T
   4    -87.8548685 -0.304594E-07  0.734E-04    0.23      20.1  T
   5    -87.8548685 -0.382880E-07  0.329E-04    0.23      44.8  T
   6    -87.8548685 -0.162238E-08  0.568E-05    0.23     259.7  T
   7    -87.8548685 -0.124629E-09  0.167E-05    0.23     884.4  T
     SCC iter.                  ...        0 min,  0.043 sec
     gradient                   ...        0 min,  0.069 sec
 * total energy  :   -87.0545240 Eh     change       -0.7735012E-04 Eh
   gradient norm :     0.0028712 Eh/α   predicted    -0.4783774E-04 ( -38.15%)
   displ. norm   :     0.7066954 α      lambda       -0.1428085E-03
   maximum displ.:     0.3838725 α      in ANC's #4, #1, #2, ...

........................................................................
.............................. CYCLE   55 ..............................
........................................................................
   1    -87.8529068 -0.878529E+02  0.109E-02    0.23       0.0  T
   2    -87.8529144 -0.766619E-05  0.528E-03    0.23       2.8  T
   3    -87.8529156 -0.118525E-05  0.219E-03    0.23       6.7  T
   4    -87.8529156 -0.237029E-07  0.129E-03    0.23      11.4  T
   5    -87.8529158 -0.107404E-06  0.691E-04    0.23      21.3  T
   6    -87.8529158 -0.101332E-07  0.113E-04    0.23     130.0  T
   7    -87.8529158 -0.521680E-09  0.323E-05    0.23     456.3  T
     SCC iter.                  ...        0 min,  0.043 sec
     gradient                   ...        0 min,  0.067 sec
 * total energy  :   -87.0546438 Eh     change       -0.1197910E-03 Eh
   gradient norm :     0.0057768 Eh/α   predicted    -0.1070766E-03 ( -10.61%)
   displ. norm   :     0.5528761 α      lambda       -0.1351157E-03
   maximum displ.:     0.2958231 α      in ANC's #4, #1, #2, ...

........................................................................
.............................. CYCLE   56 ..............................
........................................................................
   1    -87.8521413 -0.878521E+02  0.823E-03    0.23       0.0  T
   2    -87.8521438 -0.247181E-05  0.503E-03    0.23       2.9  T
   3    -87.8521453 -0.154708E-05  0.205E-03    0.23       7.2  T
   4    -87.8521455 -0.166329E-06  0.913E-04    0.23      16.1  T
   5    -87.8521455 -0.435069E-07  0.342E-04    0.23      43.1  T
   6    -87.8521455 -0.993921E-09  0.774E-05    0.23     190.5  T
   7    -87.8521455 -0.142549E-09  0.262E-05    0.23     563.4  T
     SCC iter.                  ...        0 min,  0.044 sec
     gradient                   ...        0 min,  0.071 sec
 * total energy  :   -87.0547526 Eh     change       -0.1087538E-03 Eh
   gradient norm :     0.0071511 Eh/α   predicted    -0.8821119E-04 ( -18.89%)
   displ. norm   :     0.4837401 α      lambda       -0.1723751E-03
   maximum displ.:     0.2583466 α      in ANC's #1, #4, #2, ...

........................................................................
.............................. CYCLE   57 ..............................
........................................................................
   1    -87.8531807 -0.878532E+02  0.878E-03    0.22       0.0  T
   2    -87.8531813 -0.561762E-06  0.768E-03    0.23       1.9  T
   3    -87.8531857 -0.440060E-05  0.222E-03    0.22       6.7  T
   4    -87.8531858 -0.738431E-07  0.111E-03    0.23      13.3  T
   5    -87.8531858 -0.307114E-07  0.343E-04    0.23      43.0  T
   6    -87.8531858 -0.193464E-08  0.785E-05    0.23     187.8  T
   7    -87.8531858 -0.449205E-10  0.300E-05    0.23     492.3  T
     SCC iter.                  ...        0 min,  0.042 sec
     gradient                   ...        0 min,  0.070 sec
 * total energy  :   -87.0548787 Eh     change       -0.1261500E-03 Eh
   gradient norm :     0.0068734 Eh/α   predicted    -0.1063577E-03 ( -15.69%)
   displ. norm   :     0.5618634 α      lambda       -0.1767211E-03
   maximum displ.:     0.2989885 α      in ANC's #4, #1, #2, ...

........................................................................
.............................. CYCLE   58 ..............................
........................................................................
   1    -87.8514227 -0.878514E+02  0.105E-02    0.23       0.0  T
   2    -87.8514308 -0.813081E-05  0.489E-03    0.23       3.0  T
   3    -87.8514317 -0.892263E-06  0.168E-03    0.23       8.8  T
   4    -87.8514318 -0.344531E-07  0.817E-04    0.23      18.0  T
   5    -87.8514318  0.764530E-09  0.337E-04    0.23      43.7  T
   6    -87.8514318 -0.195755E-08  0.131E-04    0.23     112.2  T
   7    -87.8514318 -0.123478E-08  0.452E-05    0.23     326.0  T
     SCC iter.                  ...        0 min,  0.025 sec
     gradient                   ...        0 min,  0.064 sec
 * total energy  :   -87.0550178 Eh     change       -0.1390674E-03 Eh
   gradient norm :     0.0069128 Eh/α   predicted    -0.1162737E-03 ( -16.39%)
   displ. norm   :     0.3820915 α      lambda       -0.3327565E-03
   maximum displ.:     0.1865499 α      in ANC's #1, #4, #2, ...

........................................................................
.............................. CYCLE   59 ..............................
........................................................................
   1    -87.8586109 -0.878586E+02  0.134E-02    0.21       0.0  T
   2    -87.8586135 -0.258220E-05  0.948E-03    0.23       1.6  T
   3    -87.8586156 -0.209654E-05  0.554E-03    0.22       2.7  T
   4    -87.8586171 -0.146133E-05  0.331E-03    0.22       4.5  T
   5    -87.8586174 -0.359376E-06  0.413E-04    0.22      35.7  T
   6    -87.8586174 -0.426458E-08  0.119E-04    0.22     124.4  T
   7    -87.8586174 -0.243944E-09  0.436E-05    0.22     337.9  T
     SCC iter.                  ...        0 min,  0.044 sec
     gradient                   ...        0 min,  0.073 sec
 * total energy  :   -87.0550597 Eh     change       -0.4189532E-04 Eh
   gradient norm :     0.0122361 Eh/α   predicted    -0.1906749E-03 ( 355.12%)
   displ. norm   :     0.4434355 α      lambda       -0.3017719E-03
   maximum displ.:     0.2423071 α      in ANC's #4, #1, #2, ...

........................................................................
.............................. CYCLE   60 ..............................
........................................................................
   1    -87.8521738 -0.878522E+02  0.139E-02    0.24       0.0  T
   2    -87.8521802 -0.638842E-05  0.112E-02    0.22       1.3  T
   3    -87.8521868 -0.662033E-05  0.444E-03    0.23       3.3  T
   4    -87.8521870 -0.222178E-06  0.301E-03    0.22       4.9  T
   5    -87.8521874 -0.346220E-06  0.614E-04    0.23      24.0  T
   6    -87.8521874 -0.499664E-08  0.134E-04    0.23     109.9  T
   7    -87.8521874 -0.718259E-09  0.340E-05    0.23     433.3  T
     SCC iter.                  ...        0 min,  0.043 sec
     gradient                   ...        0 min,  0.072 sec
 * total energy  :   -87.0552517 Eh     change       -0.1920298E-03 Eh
   gradient norm :     0.0073470 Eh/α   predicted    -0.1805755E-03 (  -5.96%)
[...]
 
 selected dihedral angles (degree)
 ---------------------------------
C3-O2-C1-H27= 57.83           C3-O2-C1-H28=297.09           C3-O2-C1-H29=177.35           O4-C3-O2-C1=359.10            
C5-C3-O2-C1=172.87            C6-C5-C3-O2=153.56            C6-C5-C3-O4=327.13            N7-C5-C3-O2= 33.05            
N7-C5-C3-O4=206.62            C25-C5-C3-O2=274.07           C25-C5-C3-O4= 87.64           H30-C6-C5-C3=294.23           
H30-C6-C5-N7= 55.43           H30-C6-C5-C25=179.99          H31-C6-C5-C3=174.54           H31-C6-C5-N7=295.75           
H31-C6-C5-C25= 60.30          H32-C6-C5-C3= 54.39           H32-C6-C5-N7=175.59           H32-C6-C5-C25=300.15          
C8-N7-C5-C3=270.59            C8-N7-C5-C6=150.16            C8-N7-C5-C25= 24.54           C9-C8-N7-C5=172.82            
N21-C8-N7-C5=356.81           C10-C9-C8-N7=262.67           C10-C9-C8-N21= 78.80          C11-C9-C8-N7= 22.05           
C11-C9-C8-N21=198.18          N12-C9-C8-N7=142.47           N12-C9-C8-N21=318.59          H33-C10-C9-C8= 55.40          
H33-C10-C9-C11=295.51         H33-C10-C9-N12=177.81         H34-C10-C9-C8=295.42          H34-C10-C9-C11=175.53         
H34-C10-C9-N12= 57.83         H35-C10-C9-C8=174.90          H35-C10-C9-C11= 55.00         H35-C10-C9-N12=297.31         
           -------------------------------------------------
          |                Final Singlepoint                |
           -------------------------------------------------

          ...................................................
          :                      SETUP                      :
          :.................................................:
          :  # basis functions                 144          :
          :  # atomic orbitals                 144          :
          :  # shells                           92          :
          :  # electrons                       142          :
          :  # halogen bonds                     0          :
          :  max. iterations                   250          :
          :  Hamiltonian                  GFN1-xTB          :
          :  restarted?                      false          :
          :  GBSA solvation                   true          :
          :  PC potential                    false          :
          :  electronic temp.          300.0000000     K    :
          :  accuracy                    1.0000000          :
          :  -> integral cutoff          0.2500000E+02      :
          :  -> integral neglect         0.1000000E-07      :
          :  -> SCF convergence          0.1000000E-05 Eh   :
          :  -> wf. convergence          0.2000000E-04 e    :
          :  Broyden damping             0.4000000          :
          ...................................................

 iter      E             dE          RMSdq      gap      omega  full diag
   1    -87.8551767 -0.878552E+02  0.104E-05    0.25       0.0  T
   2    -87.8551767 -0.119371E-11  0.549E-06    0.25    2686.9  T
   3    -87.8551767 -0.213163E-12  0.335E-06    0.25    4406.2  T

   *** convergence criteria satisfied after 3 iterations ***

         #    Occupation            Energy/Eh            Energy/eV
      -------------------------------------------------------------
         1        2.0000           -0.8577002             -23.3392
       ...           ...                  ...                  ...
        65        2.0000           -0.4433641             -12.0646
        66        2.0000           -0.4331177             -11.7857
        67        2.0000           -0.4330158             -11.7830
        68        2.0000           -0.3912832             -10.6474
        69        2.0000           -0.3838498             -10.4451
        70        2.0000           -0.3712130             -10.1012
        71        1.9856           -0.3095774              -8.4240 (HOMO)
        72        0.0144           -0.3002220              -8.1695 (LUMO)
        73                         -0.2501325              -6.8065
        74                         -0.2355622              -6.4100
        75                         -0.2162580              -5.8847
        76                         -0.1880255              -5.1164
       ...                                ...                  ...
       144                          0.7355868              20.0163
      -------------------------------------------------------------
                  HL-Gap            0.0093554 Eh            0.2546 eV
             Fermi-level           -0.3048997 Eh           -8.2967 eV

 SCC (total)                   0 d,  0 h,  0 min,  0.125 sec
 SCC setup                      ...        0 min,  0.002 sec (  1.481%)
 Dispersion                     ...        0 min,  0.000 sec (  0.220%)
 classical contributions        ...        0 min,  0.000 sec (  0.077%)
 integral evaluation            ...        0 min,  0.030 sec ( 24.268%)
 iterations                     ...        0 min,  0.019 sec ( 15.140%)
 molecular gradient             ...        0 min,  0.072 sec ( 57.736%)
 printout                       ...        0 min,  0.001 sec (  1.063%)

         :::::::::::::::::::::::::::::::::::::::::::::::::::::
         ::                     SUMMARY                     ::
         :::::::::::::::::::::::::::::::::::::::::::::::::::::
         :: total energy             -87.056185613711 Eh    ::
         :: total w/o Gsasa/hb       -87.033457727989 Eh    ::
         :: gradient norm              0.000685907839 Eh/a0 ::
         :: HOMO-LUMO gap              0.254574091058 eV    ::
         ::.................................................::
         :: SCC energy               -87.855176741507 Eh    ::
         :: -> electrostatic           0.485112041027 Eh    ::
         :: -> Gsolv                  -0.134663735948 Eh    ::
         ::    -> Gelec               -0.111935850226 Eh    ::
         ::    -> Gsasa               -0.024043976854 Eh    ::
         ::    -> Ghb                 -0.006308187873 Eh    ::
         ::    -> Gshift               0.007624279005 Eh    ::
         :: repulsion energy           0.830165200803 Eh    ::
         :: dispersion energy         -0.031174073007 Eh    ::
         :: halogen bond corr.         0.000000000000 Eh    ::
         :: add. restraining           0.000000000000 Eh    ::
         :: total charge              -1.000000000000 e     ::
         :::::::::::::::::::::::::::::::::::::::::::::::::::::

           -------------------------------------------------
          |                Property Printout                |
           -------------------------------------------------

    * Orbital Energies and Occupations

         #    Occupation            Energy/Eh            Energy/eV
      -------------------------------------------------------------
         1        2.0000           -0.8577002             -23.3392
       ...           ...                  ...                  ...
        59        2.0000           -0.4722734             -12.8512
        60        2.0000           -0.4666845             -12.6991
        61        2.0000           -0.4629918             -12.5986
        62        2.0000           -0.4586243             -12.4798
        63        2.0000           -0.4538579             -12.3501
        64        2.0000           -0.4505512             -12.2601
        65        2.0000           -0.4433641             -12.0646
        66        2.0000           -0.4331177             -11.7857
        67        2.0000           -0.4330158             -11.7830
        68        2.0000           -0.3912832             -10.6474
        69        2.0000           -0.3838498             -10.4451
        70        2.0000           -0.3712130             -10.1012
        71        1.9856           -0.3095774              -8.4240 (HOMO)
        72        0.0144           -0.3002220              -8.1695 (LUMO)
        73                         -0.2501325              -6.8065
        74                         -0.2355622              -6.4100
        75                         -0.2162580              -5.8847
        76                         -0.1880255              -5.1164
        77                         -0.1387652              -3.7760
        78                         -0.1301941              -3.5428
        79                         -0.1285601              -3.4983
        80                         -0.1218995              -3.3171
        81                         -0.1101393              -2.9970
        82                         -0.1018911              -2.7726
       ...                                ...                  ...
       144                          0.7355868              20.0163
      -------------------------------------------------------------
                  HL-Gap            0.0093554 Eh            0.2546 eV
             Fermi-level           -0.3048997 Eh           -8.2967 eV

  Mulliken/CM5 charges         n(s)   n(p)   n(d)
     1C     0.17092  0.05086   0.973  2.856  0.000
     2O    -0.43099 -0.51394   1.689  4.742  0.000
     3C     0.54400  0.60714   1.000  2.456  0.000
     4O    -0.59872 -0.64797   1.733  4.865  0.000
     5C     0.13899  0.19209   1.058  2.803  0.000
     6C    -0.08054 -0.21782   1.007  3.073  0.000
     7N    -0.47665 -0.66286   1.547  3.929  0.000
     8C     0.28884  0.44566   1.008  2.703  0.000
     9C     0.15357  0.19412   1.066  2.781  0.000
    10C    -0.10517 -0.24664   1.020  3.085  0.000
    11C    -0.08972 -0.22709   1.015  3.075  0.000
    12N    -0.33840 -0.70042   1.433  3.906  0.000
    13C     0.46414  0.57330   0.975  2.561  0.000
    14O    -0.58828 -0.62889   1.727  4.861  0.000
    15C     0.32902  0.45419   1.011  2.660  0.000
    16N    -0.23230 -0.33611   1.568  3.665  0.000
    17N    -0.27442 -0.38238   1.565  3.709  0.000
    18C     0.38938  0.49825   1.006  2.605  0.000
    19C    -0.11165 -0.24912   1.011  3.100  0.000
    20O    -0.36038 -0.41731   1.697  4.663  0.000
    21N    -0.28361 -0.52325   1.451  3.833  0.000
    22C     0.06895 -0.01519   0.978  2.953  0.000
    23C     0.35009  0.43633   0.981  2.669  0.000
    24O    -0.72645 -0.77076   1.750  4.977  0.000
    25C     0.04110  0.06887   0.999  2.960  0.000
    26O    -0.59530 -0.78940   1.713  4.882  0.000
    27H     0.03874  0.10071   0.961  0.000  0.000
    28H     0.03986  0.10122   0.960  0.000  0.000
    29H     0.03868  0.09904   0.961  0.000  0.000
    30H     0.01741  0.07385   0.983  0.000  0.000
    31H     0.02379  0.07989   0.976  0.000  0.000
    32H     0.03323  0.09276   0.967  0.000  0.000
    33H     0.04530  0.10134   0.955  0.000  0.000
    34H     0.04399  0.10126   0.956  0.000  0.000
    35H     0.04327  0.09867   0.957  0.000  0.000
    36H     0.04337  0.10595   0.957  0.000  0.000
    37H     0.02873  0.08517   0.971  0.000  0.000
    38H     0.03337  0.09219   0.967  0.000  0.000
    39H     0.25558  0.46217   0.744  0.000  0.000
    40H     0.07780  0.13239   0.922  0.000  0.000
    41H     0.07728  0.13178   0.923  0.000  0.000
    42H     0.06688  0.12270   0.933  0.000  0.000
    43H     0.04462  0.11248   0.955  0.000  0.000
    44H     0.01983  0.08874   0.980  0.000  0.000
    45H     0.02512  0.09202   0.975  0.000  0.000
    46H     0.35671  0.53400   0.643  0.000  0.000

Wiberg/Mayer (AO) data.
largest (>0.10) Wiberg bond orders for each atom

 ---------------------------------------------------------------------------
     #   Z sym  total        # sym  WBO       # sym  WBO       # sym  WBO
 ---------------------------------------------------------------------------
     1   6 C    3.891 --    29 H    0.987    27 H    0.981    28 H    0.981
                             2 O    0.913
     2   8 O    2.172 --     3 C    1.076     1 C    0.913     4 O    0.116
     3   6 C    3.809 --     4 O    1.630     2 O    1.076     5 C    0.919
     4   8 O    1.898 --     3 C    1.630     2 O    0.116
     5   6 C    3.967 --     6 C    0.987     7 N    0.975    25 C    0.956
                             3 C    0.919
     6   6 C    3.996 --    30 H    0.988     5 C    0.987    31 H    0.987
                            32 H    0.985
     7   7 N    2.972 --     8 C    1.642     5 C    0.975    21 N    0.171
     8   6 C    3.949 --     7 N    1.642    21 N    1.203     9 C    0.959
     9   6 C    3.928 --    10 C    0.991    11 C    0.991     8 C    0.959
                            12 N    0.918
    10   6 C    3.994 --     9 C    0.991    35 H    0.984    33 H    0.984
                            34 H    0.979
    11   6 C    3.992 --     9 C    0.991    37 H    0.987    38 H    0.984
                            36 H    0.982
    12   7 N    3.360 --    13 C    1.265     9 C    0.918    39 H    0.899
                            14 O    0.179
    13   6 C    3.916 --    14 O    1.576    12 N    1.265    15 C    0.989
    14   8 O    1.880 --    13 C    1.576    12 N    0.179
    15   6 C    3.862 --    16 N    1.621    20 O    1.045    13 C    0.989
    16   7 N    2.987 --    15 C    1.621    17 N    1.192
    17   7 N    2.981 --    18 C    1.617    16 N    1.192
    18   6 C    3.869 --    17 N    1.617    20 O    1.070    19 C    1.031
    19   6 C    3.987 --    18 C    1.031    42 H    0.983    40 H    0.965
                            41 H    0.963
    20   8 O    2.310 --    18 C    1.070    15 C    1.045
    21   7 N    3.368 --     8 C    1.203    22 C    0.959    23 C    0.895
                             7 N    0.171
    22   6 C    3.960 --    44 H    0.981    45 H    0.980    43 H    0.980
                            21 N    0.959
    23   6 C    3.916 --    25 C    1.515    24 O    1.358    21 N    0.895
    24   8 O    1.718 --    23 C    1.358    25 C    0.165
    25   6 C    3.789 --    23 C    1.515     5 C    0.956    26 O    0.947
                            24 O    0.165
    26   8 O    1.917 --    25 C    0.947    46 H    0.857
    27   1 H    1.012 --     1 C    0.981
    28   1 H    1.011 --     1 C    0.981
    29   1 H    1.014 --     1 C    0.987
    30   1 H    1.010 --     6 C    0.988
    31   1 H    1.011 --     6 C    0.987
    32   1 H    1.016 --     6 C    0.985
    33   1 H    1.007 --    10 C    0.984
    34   1 H    1.004 --    10 C    0.979
    35   1 H    1.000 --    10 C    0.984
    36   1 H    1.020 --    11 C    0.982
    37   1 H    1.004 --    11 C    0.987
    38   1 H    1.021 --    11 C    0.984
    39   1 H    0.944 --    12 N    0.899
    40   1 H    0.997 --    19 C    0.965
    41   1 H    0.997 --    19 C    0.963
    42   1 H    0.999 --    19 C    0.983
    43   1 H    1.023 --    22 C    0.980
    44   1 H    1.014 --    22 C    0.981
    45   1 H    1.014 --    22 C    0.980
    46   1 H    0.892 --    26 O    0.857
 ---------------------------------------------------------------------------

Topologies differ in total number of bonds
Writing topology from bond orders to xtbtopo.mol

 dipole moment from electron density (au)
     X       Y       Z   
   6.7940   4.1833   5.3892  total (Debye):   24.472

           -------------------------------------------------
          |                Geometry Summary                 |
           -------------------------------------------------

      molecular mass/u    :      366.3497991
   center of mass at/Å    :       -0.0298100      -0.2316658      -0.4869991
  moments of inertia/u·Å² :        0.1134240E+04   0.4506522E+04   0.4720397E+04
rotational constants/cm⁻¹ :        0.1486249E-01   0.3740719E-02   0.3571232E-02

 * 38 selected distances

     #   Z          #   Z                                           value/Å
     1   6 C        2   8 O                                       1.4252250
     2   8 O        3   6 C                                       1.3478105
     3   6 C        4   8 O                                       1.2181987
     5   6 C        6   6 C                                       1.5342789
     7   7 N        8   6 C                                       1.2865800
     9   6 C       10   6 C                                       1.5322443
     9   6 C       11   6 C                                       1.5363044 (max)
     9   6 C       12   7 N                                       1.4657217
    12   7 N       13   6 C                                       1.3467842
    13   6 C       14   8 O                                       1.2213036
    15   6 C       16   7 N                                       1.2976590
    17   7 N       18   6 C                                       1.2953621
    18   6 C       19   6 C                                       1.4791582
    15   6 C       20   8 O                                       1.3520775
    18   6 C       20   8 O                                       1.3439651
     8   6 C       21   7 N                                       1.3594528
    21   7 N       22   6 C                                       1.4539495
    23   6 C       25   6 C                                       1.3587675
     1   6 C       27   1 H                                       1.0937229
     1   6 C       28   1 H                                       1.0937009
     1   6 C       29   1 H                                       1.0882426
     6   6 C       30   1 H                                       1.0895659
     6   6 C       31   1 H                                       1.0893916
     6   6 C       32   1 H                                       1.0895219
    10   6 C       33   1 H                                       1.0896747
    10   6 C       34   1 H                                       1.0877158
    10   6 C       35   1 H                                       1.0886342
    11   6 C       36   1 H                                       1.0893118
    11   6 C       37   1 H                                       1.0885348
    11   6 C       38   1 H                                       1.0886824
    12   7 N       39   1 H                                       1.0042642
    19   6 C       40   1 H                                       1.0895192
    19   6 C       41   1 H                                       1.0895947
    19   6 C       42   1 H                                       1.0871695
    22   6 C       43   1 H                                       1.0924326
    22   6 C       44   1 H                                       1.0858020
    22   6 C       45   1 H                                       1.0946862
    26   8 O       46   1 H                                       0.9682906 (min)

 * 6 distinct bonds (by element types)

   Z      Z             #   av. dist./Å        max./Å        min./Å
   1 H    6 C          18     1.0897724     1.0946862     1.0858020
   6 C    6 C           5     1.4881507     1.5363044     1.3587675
   1 H    7 N           1     1.0042642     1.0042642     1.0042642
   6 C    7 N           7     1.3579299     1.4657217     1.2865800
   1 H    8 O           1     0.9682906     0.9682906     0.9682906
   6 C    8 O           6     1.3180967     1.4252250     1.2181987


optimized geometry written to: xtbopt.xyz


           -------------------------------------------------
          | TOTAL ENERGY              -87.056185613711 Eh   |
          | GRADIENT NORM               0.000685907839 Eh/α |
          | HOMO-LUMO GAP               0.254574091058 eV   |
           -------------------------------------------------

------------------------------------------------------------------------
 * finished run on 2023/06/20 at 15:17:50.578     
------------------------------------------------------------------------
 total:
 * wall-time:     0 d,  0 h,  0 min, 10.987 sec
 *  cpu-time:     0 d,  0 h,  0 min, 10.933 sec
 * ratio c/w:     0.995 speedup
 SCF:
 * wall-time:     0 d,  0 h,  0 min,  0.146 sec
 *  cpu-time:     0 d,  0 h,  0 min,  0.127 sec
 * ratio c/w:     0.872 speedup
 ANC optimizer:
 * wall-time:     0 d,  0 h,  0 min, 10.772 sec
 *  cpu-time:     0 d,  0 h,  0 min, 10.765 sec
 * ratio c/w:     0.999 speedup

