20
 energy: -38.329144906714 gnorm: 0.000741271278 xtb: 6.5.1 (579679a)
C            2.54760708778008        1.65592385486115        0.09802470945341
O            1.29771935220945        1.02805576390564       -0.15277907652623
C            1.33704120135135       -0.31669703612721       -0.34509542927612
O            2.39897587291826       -0.93415191090445       -0.33438079094908
C           -0.03690758998581       -0.98001689276326       -0.30449913053631
C           -0.09591768877964       -2.25867337022426       -1.14400865201658
N           -0.06369617712108       -1.21325393612554        1.13880725245269
N           -1.04610980922471       -0.38243914370230        1.61554858671493
C           -1.61722278507577        0.22930235108543        0.64923726223491
C           -2.75421782326593        1.18736968276012        0.71851734800094
O           -1.09734566435734       -0.09257652646205       -0.61343902992199
H            3.23199542753546        1.50218744251343       -0.74262086690183
H            3.01100188777458        1.25630916585266        1.00625050105643
H            2.35382236376889        2.72082308850833        0.22098873182442
H           -0.99956741653901       -2.81124822054869       -0.89505922175225
H            0.77559161179509       -2.87247237867308       -0.92347918443254
H           -0.10715818853825       -2.01188558256335       -2.20429617016006
H           -3.61266203399227        0.81327910571075        0.15660776647707
H           -2.47760754257395        2.15624211187761        0.29745618306162
H           -3.04534208567941        1.32392343101943        1.75822121119677
