      -----------------------------------------------------------      
     |                   =====================                   |     
     |                           x T B                           |     
     |                   =====================                   |     
     |                         S. Grimme                         |     
     |          Mulliken Center for Theoretical Chemistry        |     
     |                    University of Bonn                     |     
      -----------------------------------------------------------      

   * xtb version 6.5.1 (579679a) compiled by 'ehlert@majestix' on 2022-07-11

   xtb is free software: you can redistribute it and/or modify it under
   the terms of the GNU Lesser General Public License as published by
   the Free Software Foundation, either version 3 of the License, or
   (at your option) any later version.
   
   xtb is distributed in the hope that it will be useful,
   but WITHOUT ANY WARRANTY; without even the implied warranty of
   MERCHANTABILITY or FITNESS FOR A PARTICULAR PURPOSE.  See the
   GNU Lesser General Public License for more details.
   
   Cite this work as:
   * C. Bannwarth, E. Caldeweyher, S. Ehlert, A. Hansen, P. Pracht,
     J. Seibert, S. Spicher, S. Grimme, WIREs Comput. Mol. Sci., 2020, 11,
     e01493. DOI: 10.1002/wcms.1493
   
   for GFN2-xTB:
   * C. Bannwarth, S. Ehlert and S. Grimme., J. Chem. Theory Comput., 2019,
     15, 1652-1671. DOI: 10.1021/acs.jctc.8b01176
   for GFN1-xTB:
   * S. Grimme, C. Bannwarth, P. Shushkov, J. Chem. Theory Comput., 2017,
     13, 1989-2009. DOI: 10.1021/acs.jctc.7b00118
   for GFN0-xTB:
   * P. Pracht, E. Caldeweyher, S. Ehlert, S. Grimme, ChemRxiv, 2019, preprint.
     DOI: 10.26434/chemrxiv.8326202.v1
   for GFN-FF:
   * S. Spicher and S. Grimme, Angew. Chem. Int. Ed., 2020, 59, 15665-15673.
     DOI: 10.1002/anie.202004239
   
   for ALPB and GBSA implicit solvation:
   * S. Ehlert, M. Stahn, S. Spicher, S. Grimme, J. Chem. Theory Comput.,
     2021, 17, 4250-4261. DOI: 10.1021/acs.jctc.1c00471
   
   for DFT-D4:
   * E. Caldeweyher, C. Bannwarth and S. Grimme, J. Chem. Phys., 2017,
     147, 034112. DOI: 10.1063/1.4993215
   * E. Caldeweyher, S. Ehlert, A. Hansen, H. Neugebauer, S. Spicher,
     C. Bannwarth and S. Grimme, J. Chem. Phys., 2019, 150, 154122.
     DOI: 10.1063/1.5090222
   * E. Caldeweyher, J.-M. Mewes, S. Ehlert and S. Grimme, Phys. Chem. Chem. Phys.
     2020, 22, 8499-8512. DOI: 10.1039/D0CP00502A
   
   for sTDA-xTB:
   * S. Grimme and C. Bannwarth, J. Chem. Phys., 2016, 145, 054103.
     DOI: 10.1063/1.4959605
   
   in the mass-spec context:
   * V. Asgeirsson, C. Bauer and S. Grimme, Chem. Sci., 2017, 8, 4879.
     DOI: 10.1039/c7sc00601b
   * J. Koopman and S. Grimme, ACS Omega 2019, 4, 12, 15120-15133.
     DOI: 10.1021/acsomega.9b02011
   
   for metadynamics refer to:
   * S. Grimme, J. Chem. Theory Comput., 2019, 155, 2847-2862
     DOI: 10.1021/acs.jctc.9b00143
   
   for SPH calculations refer to:
   * S. Spicher and S. Grimme, J. Chem. Theory Comput., 2021, 17, 1701-1714
     DOI: 10.1021/acs.jctc.0c01306
   
   with help from (in alphabetical order)
   P. Atkinson, C. Bannwarth, F. Bohle, G. Brandenburg, E. Caldeweyher
   M. Checinski, S. Dohm, S. Ehlert, S. Ehrlich, I. Gerasimov, C. Hölzer
   A. Katbashev, J. Koopman, C. Lavigne, S. Lehtola, F. März, M. Müller,
   F. Musil, H. Neugebauer, J. Pisarek, C. Plett, P. Pracht, F. Pultar,
   J. Seibert, P. Shushkov, S. Spicher, M. Stahn, M. Steiner, T. Strunk,
   J. Stückrath, T. Rose, and J. Unsleber
   
 * started run on 2023/06/21 at 17:22:12.287     

           -------------------------------------------------
          |                Calculation Setup                |
           -------------------------------------------------

          program call               : /lustre/hpc/kemi/ree/PhD/git/ReactivityQM/dep/xtb-6.5.1/bin/xtb --gfn 1 /lustre/hpc/kemi/ree/PhD/git/ReactivityQM/calculations/R02methylcation/reac01prodE10/conf15/R02methylcation_reac01prodE10_conf15_gfn1.xyz --opt --vfukui --chrg -2 --uhf 0 --alpb DMSO
          hostname                   : node317
          coordinate file            : /lustre/hpc/kemi/ree/PhD/git/ReactivityQM/calculations/R02methylcation/reac01prodE10/conf15/R02methylcation_reac01prodE10_conf15_gfn1.xyz
          omp threads                :                     1

   ID    Z sym.   atoms
    1    6 C      1, 3, 5, 7-10, 12, 14, 17-19, 22, 24
    2    8 O      2, 4, 13, 20, 23, 25
    3    7 N      6, 11, 15, 16, 21
    4    1 H      26-42

           -------------------------------------------------
          |                 G F N 1 - x T B                 |
           -------------------------------------------------

        Reference                      10.1021/acs.jctc.7b00118
      * Hamiltonian:
        H0-scaling (s, p, d)           1.850000    2.250000    2.000000
        zeta-weighting                 0.000000
      * Dispersion:
        s8                             2.400000
        a1                             0.630000
        a2                             5.000000
        s9                             0.000000
      * Repulsion:
        kExp                           1.500000
        rExp                           1.000000
      * Coulomb:
        alpha                          2.000000
        third order                    atomic
        anisotropic                    false
      * Halogen bond correction:
        rad-scale                      1.300000
        damping                        0.440000

      * Solvation model:               ALPB
        Solvent                        DMSO
        Parameter file                 internal GFN1-xTB/ALPB
        Dielectric constant                4.6680E+01
        Reference state                gsolv [1 M gas/solution]
        Free energy shift                  7.6243E-03 Eh       4.7843E+00 kcal/mol
        Temperature                        2.9815E+02 K
        Density                            1.1000E+00 kg/L
        Solvent mass                       7.8130E+01 g/mol
        Interaction kernel             P16
        Born radius scaling (c1)           1.7672E+00
        Born radii integrator          GBOBC
        Born offset                        0.0000E+00 a0       0.0000E+00 AA
        H-bond correction              true
        Ion screening                  false
        Surface tension                    1.0000E-05 Eh       1.5569E+01 dyn/cm
        Grid points                               230 per atom

          ...................................................
          :                      SETUP                      :
          :.................................................:
          :  # basis functions                 134          :
          :  # atomic orbitals                 134          :
          :  # shells                           84          :
          :  # electrons                       136          :
          :  # halogen bonds                     0          :
          :  max. iterations                   250          :
          :  Hamiltonian                  GFN1-xTB          :
          :  restarted?                      false          :
          :  GBSA solvation                   true          :
          :  PC potential                    false          :
          :  electronic temp.          300.0000000     K    :
          :  accuracy                    1.0000000          :
          :  -> integral cutoff          0.2500000E+02      :
          :  -> integral neglect         0.1000000E-07      :
          :  -> SCF convergence          0.1000000E-05 Eh   :
          :  -> wf. convergence          0.2000000E-04 e    :
          :  Broyden damping             0.4000000          :
          ...................................................

 iter      E             dE          RMSdq      gap      omega  full diag
   1    -83.9331290 -0.839331E+02  0.880E+00    0.01       0.0  T
   2    -84.1540258 -0.220897E+00  0.548E+00    0.65       1.0  T
   3    -83.9465969  0.207429E+00  0.313E+00    0.05       1.0  T
   4    -84.1541780 -0.207581E+00  0.122E+00    0.03       1.0  T
   5    -84.2547679 -0.100590E+00  0.810E-01    0.49       1.0  T
   6    -84.2353010  0.194669E-01  0.938E-01    0.29       1.0  T
   7    -84.2491634 -0.138624E-01  0.835E-01    0.54       1.0  T
   8    -84.2853706 -0.362071E-01  0.372E-01    0.36       1.0  T
   9    -84.2878552 -0.248469E-02  0.328E-01    0.23       1.0  T
  10    -83.9666861  0.321169E+00  0.150E+00    0.28       1.0  T
  11    -84.2918039 -0.325118E+00  0.210E-01    0.06       1.0  T
  12    -84.2940105 -0.220656E-02  0.172E-01    0.17       1.0  T
  13    -84.2974434 -0.343292E-02  0.663E-02    0.12       1.0  T
  14    -84.2972027  0.240721E-03  0.767E-02    0.08       1.0  T
  15    -84.2978291 -0.626353E-03  0.340E-02    0.09       1.0  T
  16    -84.2979915 -0.162397E-03  0.393E-03    0.10       3.9  T
  17    -84.2979847  0.672061E-05  0.740E-03    0.10       2.1  T
  18    -84.2979926 -0.785579E-05  0.309E-04    0.10      49.9  T
  19    -84.2979923  0.320373E-06  0.151E-03    0.10      10.2  T
  20    -84.2979925 -0.203058E-06  0.920E-04    0.10      16.8  T
  21    -84.2979926 -0.108629E-06  0.303E-04    0.10      50.9  T
  22    -84.2979926 -0.124941E-07  0.625E-05    0.10     246.7  T
  23    -84.2979926 -0.341373E-09  0.395E-05    0.10     391.1  T

   *** convergence criteria satisfied after 23 iterations ***

         #    Occupation            Energy/Eh            Energy/eV
      -------------------------------------------------------------
         1        2.0000           -0.7964524             -21.6726
       ...           ...                  ...                  ...
        62        2.0000           -0.3881812             -10.5629
        63        2.0000           -0.3850496             -10.4777
        64        2.0000           -0.3717839             -10.1168
        65        2.0000           -0.3615007              -9.8369
        66        2.0000           -0.3436683              -9.3517
        67        2.0000           -0.3306349              -8.9970
        68        1.7450           -0.2427099              -6.6045 (HOMO)
        69        0.2518           -0.2390422              -6.5047 (LUMO)
        70        0.0032           -0.2347689              -6.3884
        71                         -0.2066735              -5.6239
        72                         -0.1649323              -4.4880
        73                         -0.1402221              -3.8156
       ...                                ...                  ...
       134                          0.8085433              22.0016
      -------------------------------------------------------------
                  HL-Gap            0.0036677 Eh            0.0998 eV
             Fermi-level           -0.2408829 Eh           -6.5548 eV

 SCC (total)                   0 d,  0 h,  0 min,  0.258 sec
 SCC setup                      ...        0 min,  0.002 sec (  0.724%)
 Dispersion                     ...        0 min,  0.000 sec (  0.139%)
 classical contributions        ...        0 min,  0.000 sec (  0.044%)
 integral evaluation            ...        0 min,  0.061 sec ( 23.772%)
 iterations                     ...        0 min,  0.113 sec ( 43.843%)
 molecular gradient             ...        0 min,  0.080 sec ( 30.866%)
 printout                       ...        0 min,  0.002 sec (  0.586%)

         :::::::::::::::::::::::::::::::::::::::::::::::::::::
         ::                     SUMMARY                     ::
         :::::::::::::::::::::::::::::::::::::::::::::::::::::
         :: total energy             -83.562775580076 Eh    ::
         :: total w/o Gsasa/hb       -83.542699320843 Eh    ::
         :: gradient norm              0.166314690093 Eh/a0 ::
         :: HOMO-LUMO gap              0.099802587191 eV    ::
         ::.................................................::
         :: SCC energy               -84.297992594006 Eh    ::
         :: -> electrostatic           0.715033396139 Eh    ::
         :: -> Gsolv                  -0.292020456776 Eh    ::
         ::    -> Gelec               -0.271944197543 Eh    ::
         ::    -> Gsasa               -0.025088715045 Eh    ::
         ::    -> Ghb                 -0.002611823192 Eh    ::
         ::    -> Gshift               0.007624279005 Eh    ::
         :: repulsion energy           0.760363323414 Eh    ::
         :: dispersion energy         -0.025146309484 Eh    ::
         :: halogen bond corr.         0.000000000000 Eh    ::
         :: add. restraining           0.000000000000 Eh    ::
         :: total charge              -2.000000000000 e     ::
         :::::::::::::::::::::::::::::::::::::::::::::::::::::

      ----------------------------------------------------------- 
     |                   =====================                   |
     |                        A N C O P T                        |
     |                   =====================                   |
     |               Approximate Normal Coordinate               |
     |                Rational Function Optimizer                |
      ----------------------------------------------------------- 

          ...................................................
          :                      SETUP                      :
          :.................................................:
          :   optimization level            normal          :
          :   max. optcycles                   200          :
          :   ANC micro-cycles                  20          :
          :   degrees of freedom               120          :
          :.................................................:
          :   RF solver                   davidson          :
          :   write xtbopt.log                true          :
          :   linear?                        false          :
          :   energy convergence         0.5000000E-05 Eh   :
          :   grad. convergence          0.1000000E-02 Eh/α :
          :   maximium RF displ.         1.0000000          :
          :   Hlow (freq-cutoff)         0.1000000E-01      :
          :   Hmax (freq-cutoff)         5.0000000          :
          :   S6 in model hess.         20.0000000          :
          ...................................................

generating ANC from model Hessian ...
Using Lindh-Hessian (1995)
 Shifting diagonal of input Hessian by   9.852982650254220E-003
 Lowest  eigenvalues of input Hessian
    0.000000    0.000000    0.000000    0.000000    0.000000    0.000000
    0.010000    0.010220    0.010468    0.011381    0.011913    0.012178
    0.012954    0.013927    0.014589    0.015718    0.017084    0.017590
 Highest eigenvalues
    2.026212    2.049301    2.200341    2.208249    2.264395    2.397653
 

........................................................................
.............................. CYCLE    1 ..............................
........................................................................
   1    -84.2979926 -0.842980E+02  0.981E-06    0.10       0.0  T
   2    -84.2979926  0.110867E-08  0.880E-05    0.10     175.3  T
   3    -84.2979926 -0.111849E-08  0.689E-06    0.10    2240.4  T
     SCC iter.                  ...        0 min,  0.012 sec
     gradient                   ...        0 min,  0.079 sec
 * total energy  :   -83.5627756 Eh     change       -0.2177956E-09 Eh
   gradient norm :     0.1663106 Eh/α   predicted     0.0000000E+00 (-100.00%)
   displ. norm   :     0.2558480 α      lambda       -0.2199364E-01
   maximum displ.:     0.1140754 α      in ANC's #25, #65, #37, ...

........................................................................
.............................. CYCLE    2 ..............................
........................................................................
   1    -84.2932274 -0.842932E+02  0.342E-01    0.33       0.0  T
   2    -83.9632121  0.330015E+00  0.153E+00    0.19       1.0  T
   3    -84.2700792 -0.306867E+00  0.684E-01    0.41       1.0  T
   4    -84.2983061 -0.282268E-01  0.194E-01    0.27       1.0  T
   5    -84.2993797 -0.107366E-02  0.169E-01    0.22       1.0  T
   6    -84.3022586 -0.287888E-02  0.815E-02    0.14       1.0  T
   7    -84.3029596 -0.701041E-03  0.254E-02    0.11       1.0  T
   8    -84.3030130 -0.533776E-04  0.106E-02    0.11       1.5  T
   9    -84.3030194 -0.632917E-05  0.295E-03    0.12       5.2  T
  10    -84.3030193  0.891239E-07  0.299E-03    0.11       5.2  T
  11    -84.3030201 -0.886224E-06  0.140E-03    0.11      11.0  T
  12    -84.3030204 -0.211556E-06  0.717E-04    0.11      21.5  T
  13    -84.3030204 -0.653887E-07  0.203E-04    0.11      75.9  T
  14    -84.3030204 -0.553401E-08  0.173E-05    0.11     892.5  T
  15    -84.3030204  0.146372E-10  0.161E-05    0.11     958.9  T
     SCC iter.                  ...        0 min,  0.057 sec
     gradient                   ...        0 min,  0.079 sec
 * total energy  :   -83.5789681 Eh     change       -0.1619256E-01 Eh
   gradient norm :     0.0845348 Eh/α   predicted    -0.1172090E-01 ( -27.62%)
   displ. norm   :     0.2940301 α      lambda       -0.1169837E-01
   maximum displ.:     0.1387736 α      in ANC's #25, #21, #58, ...

........................................................................
.............................. CYCLE    3 ..............................
........................................................................
   1    -84.3100227 -0.843100E+02  0.291E-01    0.44       0.0  T
   2    -84.2060993  0.103923E+00  0.889E-01    0.01       1.0  T
   3    -84.3109097 -0.104810E+00  0.256E-01    0.49       1.0  T
   4    -84.3135130 -0.260333E-02  0.149E-01    0.38       1.0  T
   5    -84.3140049 -0.491947E-03  0.126E-01    0.30       1.0  T
   6    -84.3149756 -0.970680E-03  0.843E-02    0.21       1.0  T
   7    -84.3153123 -0.336703E-03  0.643E-02    0.12       1.0  T
   8    -84.3158983 -0.586019E-03  0.103E-02    0.15       1.5  T
   9    -84.3159113 -0.129225E-04  0.158E-03    0.14       9.8  T
  10    -84.3159115 -0.266392E-06  0.779E-04    0.14      19.8  T
  11    -84.3159116 -0.535479E-07  0.463E-04    0.14      33.3  T
  12    -84.3159116 -0.190879E-07  0.288E-04    0.14      53.6  T
  13    -84.3159116 -0.118045E-07  0.518E-05    0.14     297.9  T
  14    -84.3159116  0.278632E-09  0.674E-05    0.14     228.8  T
     SCC iter.                  ...        0 min,  0.050 sec
     gradient                   ...        0 min,  0.079 sec
 * total energy  :   -83.5856666 Eh     change       -0.6698476E-02 Eh
   gradient norm :     0.0273423 Eh/α   predicted    -0.6357360E-02 (  -5.09%)
   displ. norm   :     0.2092238 α      lambda       -0.1551059E-02
   maximum displ.:     0.0857283 α      in ANC's #4, #18, #25, ...

........................................................................
.............................. CYCLE    4 ..............................
........................................................................
   1    -84.3182433 -0.843182E+02  0.123E-01    0.27       0.0  T
   2    -84.2610022  0.572411E-01  0.642E-01    0.02       1.0  T
   3    -84.3182977 -0.572955E-01  0.125E-01    0.26       1.0  T
   4    -84.3191026 -0.804901E-03  0.665E-02    0.23       1.0  T
   5    -84.3194332 -0.330594E-03  0.442E-02    0.20       1.0  T
   6    -84.3197040 -0.270824E-03  0.336E-03    0.16       4.6  T
   7    -84.3196904  0.135920E-04  0.100E-02    0.15       1.5  T
   8    -84.3197044 -0.139798E-04  0.465E-04    0.16      33.2  T
   9    -84.3197044 -0.207305E-07  0.143E-04    0.16     108.1  T
  10    -84.3197044  0.164288E-07  0.361E-04    0.16      42.7  T
  11    -84.3197044 -0.179167E-07  0.489E-05    0.16     315.8  T
     SCC iter.                  ...        0 min,  0.039 sec
     gradient                   ...        0 min,  0.079 sec
 * total energy  :   -83.5868831 Eh     change       -0.1216513E-02 Eh
   gradient norm :     0.0197204 Eh/α   predicted    -0.8101996E-03 ( -33.40%)
   displ. norm   :     0.3643507 α      lambda       -0.1729567E-02
   maximum displ.:     0.1579558 α      in ANC's #4, #3, #18, ...

........................................................................
.............................. CYCLE    5 ..............................
........................................................................
   1    -84.3209465 -0.843209E+02  0.134E-01    0.33       0.0  T
   2    -84.3189106  0.203585E-02  0.221E-01    0.13       1.0  T
   3    -84.3222478 -0.333714E-02  0.286E-02    0.23       1.0  T
   4    -84.3223359 -0.880624E-04  0.131E-02    0.20       1.2  T
   5    -84.3223068  0.290266E-04  0.193E-02    0.18       1.0  T
   6    -84.3223398 -0.329363E-04  0.627E-03    0.19       2.5  T
   7    -84.3223427 -0.298580E-05  0.161E-03    0.19       9.6  T
   8    -84.3223430 -0.296667E-06  0.410E-04    0.19      37.6  T
   9    -84.3223431 -0.186478E-07  0.846E-05    0.19     182.4  T
  10    -84.3223431 -0.141881E-09  0.389E-05    0.19     397.1  T
     SCC iter.                  ...        0 min,  0.035 sec
     gradient                   ...        0 min,  0.079 sec
 * total energy  :   -83.5880022 Eh     change       -0.1119103E-02 Eh
   gradient norm :     0.0120117 Eh/α   predicted    -0.9796263E-03 ( -12.46%)
   displ. norm   :     0.2431539 α      lambda       -0.5545774E-03
   maximum displ.:     0.1205394 α      in ANC's #3, #4, #5, ...

........................................................................
.............................. CYCLE    6 ..............................
........................................................................
   1    -84.3225233 -0.843225E+02  0.641E-02    0.26       0.0  T
   2    -84.3221831  0.340175E-03  0.102E-01    0.19       1.0  T
   3    -84.3228162 -0.633050E-03  0.841E-03    0.21       1.8  T
   4    -84.3228162  0.152070E-07  0.551E-03    0.21       2.8  T
   5    -84.3228163 -0.149475E-06  0.181E-03    0.21       8.5  T
   6    -84.3228165 -0.155170E-06  0.827E-04    0.22      18.7  T
   7    -84.3228165 -0.587718E-07  0.250E-04    0.21      61.8  T
   8    -84.3228165 -0.258008E-08  0.899E-05    0.21     171.6  T
   9    -84.3228165 -0.756870E-10  0.196E-05    0.21     786.4  T
     SCC iter.                  ...        0 min,  0.031 sec
     gradient                   ...        0 min,  0.079 sec
 * total energy  :   -83.5884181 Eh     change       -0.4159097E-03 Eh
   gradient norm :     0.0113461 Eh/α   predicted    -0.2936881E-03 ( -29.39%)
   displ. norm   :     0.3063428 α      lambda       -0.6038396E-03
   maximum displ.:     0.1775242 α      in ANC's #3, #4, #5, ...

........................................................................
.............................. CYCLE    7 ..............................
........................................................................
   1    -84.3226186 -0.843226E+02  0.526E-02    0.25       0.0  T
   2    -84.3224183  0.200359E-03  0.791E-02    0.24       1.0  T
   3    -84.3227823 -0.364053E-03  0.772E-03    0.24       2.0  T
   4    -84.3227829 -0.546308E-06  0.451E-03    0.25       3.4  T
   5    -84.3227829 -0.857349E-07  0.159E-03    0.24       9.7  T
   6    -84.3227830 -0.548889E-07  0.352E-04    0.24      43.8  T
   7    -84.3227830 -0.189483E-08  0.118E-04    0.24     131.1  T
   8    -84.3227830 -0.155723E-09  0.458E-05    0.24     336.5  T
     SCC iter.                  ...        0 min,  0.028 sec
     gradient                   ...        0 min,  0.080 sec
 * total energy  :   -83.5888760 Eh     change       -0.4578665E-03 Eh
   gradient norm :     0.0111399 Eh/α   predicted    -0.3302521E-03 ( -27.87%)
   displ. norm   :     0.3564829 α      lambda       -0.5905475E-03
   maximum displ.:     0.2239182 α      in ANC's #3, #4, #5, ...

........................................................................
.............................. CYCLE    8 ..............................
........................................................................
   1    -84.3218270 -0.843218E+02  0.430E-02    0.28       0.0  T
   2    -84.3217656  0.614171E-04  0.499E-02    0.30       1.0  T
   3    -84.3219092 -0.143653E-03  0.117E-02    0.30       1.3  T
   4    -84.3219148 -0.554905E-05  0.397E-03    0.30       3.9  T
   5    -84.3219150 -0.193836E-06  0.149E-03    0.30      10.4  T
   6    -84.3219150 -0.101496E-07  0.349E-04    0.30      44.3  T
   7    -84.3219150 -0.629370E-09  0.111E-04    0.30     139.6  T
   8    -84.3219150 -0.111058E-09  0.338E-05    0.30     456.8  T
     SCC iter.                  ...        0 min,  0.029 sec
     gradient                   ...        0 min,  0.080 sec
 * total energy  :   -83.5893528 Eh     change       -0.4768090E-03 Eh
   gradient norm :     0.0129250 Eh/α   predicted    -0.3328003E-03 ( -30.20%)
   displ. norm   :     0.4668391 α      lambda       -0.7323888E-03
   maximum displ.:     0.3081041 α      in ANC's #3, #4, #6, ...

........................................................................
.............................. CYCLE    9 ..............................
........................................................................
   1    -84.3197738 -0.843198E+02  0.591E-02    0.36       0.0  T
   2    -84.3198265 -0.527255E-04  0.334E-02    0.42       1.0  T
   3    -84.3198559 -0.293714E-04  0.274E-02    0.43       1.0  T
   4    -84.3198930 -0.370804E-04  0.630E-03    0.45       2.4  T
   5    -84.3198939 -0.911438E-06  0.244E-03    0.45       6.3  T
   6    -84.3198940 -0.549013E-07  0.879E-04    0.46      17.6  T
   7    -84.3198940 -0.832736E-08  0.266E-04    0.46      58.0  T
   8    -84.3198940 -0.193903E-08  0.391E-05    0.46     394.9  T
   9    -84.3198940 -0.308376E-10  0.182E-05    0.46     846.5  T
     SCC iter.                  ...        0 min,  0.032 sec
     gradient                   ...        0 min,  0.080 sec
 * total energy  :   -83.5899055 Eh     change       -0.5526560E-03 Eh
   gradient norm :     0.0154809 Eh/α   predicted    -0.4460075E-03 ( -19.30%)
   displ. norm   :     0.3269066 α      lambda       -0.6131753E-03
   maximum displ.:     0.2420469 α      in ANC's #3, #6, #4, ...

........................................................................
.............................. CYCLE   10 ..............................
........................................................................
   1    -84.3193312 -0.843193E+02  0.408E-02    0.45       0.0  T
   2    -84.3193707 -0.395635E-04  0.240E-02    0.50       1.0  T
   3    -84.3193790 -0.827502E-05  0.166E-02    0.51       1.0  T
   4    -84.3193945 -0.154605E-04  0.668E-03    0.53       2.3  T
   5    -84.3193957 -0.123875E-05  0.230E-03    0.53       6.7  T
   6    -84.3193957 -0.421418E-07  0.100E-03    0.54      15.4  T
   7    -84.3193958 -0.186387E-07  0.242E-04    0.54      63.9  T
   8    -84.3193958 -0.171589E-08  0.450E-05    0.54     343.0  T
   9    -84.3193958 -0.584635E-10  0.204E-05    0.54     755.7  T
     SCC iter.                  ...        0 min,  0.032 sec
     gradient                   ...        0 min,  0.080 sec
 * total energy  :   -83.5902865 Eh     change       -0.3810216E-03 Eh
   gradient norm :     0.0137333 Eh/α   predicted    -0.3393528E-03 ( -10.94%)
   displ. norm   :     0.2783766 α      lambda       -0.4653112E-03
   maximum displ.:     0.2289916 α      in ANC's #3, #19, #6, ...

........................................................................
.............................. CYCLE   11 ..............................
........................................................................
   1    -84.3175165 -0.843175E+02  0.547E-02    0.60       0.0  T
   2    -84.3175907 -0.741933E-04  0.237E-02    0.65       1.0  T
   3    -84.3176020 -0.113200E-04  0.192E-02    0.68       1.0  T
   4    -84.3176185 -0.165172E-04  0.672E-03    0.69       2.3  T
   5    -84.3176200 -0.143915E-05  0.243E-03    0.70       6.4  T
   6    -84.3176200 -0.702445E-07  0.868E-04    0.70      17.8  T
   7    -84.3176200 -0.469237E-08  0.259E-04    0.70      59.5  T
   8    -84.3176200 -0.181456E-08  0.489E-05    0.70     315.7  T
   9    -84.3176200 -0.723333E-10  0.231E-05    0.70     666.9  T
     SCC iter.                  ...        0 min,  0.032 sec
     gradient                   ...        0 min,  0.080 sec
 * total energy  :   -83.5905178 Eh     change       -0.2312747E-03 Eh
   gradient norm :     0.0113855 Eh/α   predicted    -0.2507258E-03 (   8.41%)
   displ. norm   :     0.2192928 α      lambda       -0.6498980E-03
   maximum displ.:     0.1007378 α      in ANC's #3, #5, #4, ...

........................................................................
.............................. CYCLE   12 ..............................
........................................................................
   1    -84.3197073 -0.843197E+02  0.320E-02    0.66       0.0  T
   2    -84.3197262 -0.189154E-04  0.233E-02    0.64       1.0  T
   3    -84.3197441 -0.178076E-04  0.125E-02    0.64       1.2  T
   4    -84.3197492 -0.514143E-05  0.516E-03    0.64       3.0  T
   5    -84.3197496 -0.405913E-06  0.169E-03    0.63       9.1  T
   6    -84.3197497 -0.517985E-07  0.309E-04    0.63      50.0  T
   7    -84.3197497 -0.175727E-08  0.101E-04    0.63     153.5  T
   8    -84.3197497 -0.120181E-09  0.193E-05    0.63     798.7  T
     SCC iter.                  ...        0 min,  0.029 sec
     gradient                   ...        0 min,  0.080 sec
 * total energy  :   -83.5906710 Eh     change       -0.1532082E-03 Eh
   gradient norm :     0.0113389 Eh/α   predicted    -0.3405837E-03 ( 122.30%)
   displ. norm   :     0.1323640 α      lambda       -0.3499825E-03
   maximum displ.:     0.1008803 α      in ANC's #3, #8, #19, ...

........................................................................
.............................. CYCLE   13 ..............................
........................................................................
   1    -84.3184984 -0.843185E+02  0.273E-02    0.65       0.0  T
   2    -84.3185208 -0.223653E-04  0.110E-02    0.68       1.4  T
   3    -84.3185201  0.680839E-06  0.104E-02    0.69       1.5  T
   4    -84.3185256 -0.544977E-05  0.302E-03    0.69       5.1  T
   5    -84.3185257 -0.171071E-06  0.100E-03    0.70      15.4  T
   6    -84.3185258 -0.117504E-07  0.394E-04    0.70      39.1  T
   7    -84.3185258 -0.203691E-08  0.126E-04    0.70     122.6  T
   8    -84.3185258 -0.331866E-09  0.264E-05    0.70     583.9  T
     SCC iter.                  ...        0 min,  0.028 sec
     gradient                   ...        0 min,  0.080 sec
 * total energy  :   -83.5908893 Eh     change       -0.2183359E-03 Eh
   gradient norm :     0.0070526 Eh/α   predicted    -0.1780600E-03 ( -18.45%)
   displ. norm   :     0.1210872 α      lambda       -0.1660962E-03
   maximum displ.:     0.1001363 α      in ANC's #3, #19, #12, ...

........................................................................
.............................. CYCLE   14 ..............................
........................................................................
   1    -84.3176799 -0.843177E+02  0.233E-02    0.71       0.0  T
   2    -84.3176720  0.789761E-05  0.257E-02    0.72       1.0  T
   3    -84.3177077 -0.357695E-04  0.448E-03    0.73       3.4  T
   4    -84.3177085 -0.777350E-06  0.223E-03    0.73       6.9  T
   5    -84.3177086 -0.105663E-06  0.854E-04    0.73      18.1  T
   6    -84.3177086 -0.738933E-08  0.253E-04    0.74      61.0  T
   7    -84.3177086 -0.544318E-09  0.675E-05    0.74     228.7  T
   8    -84.3177086 -0.988081E-10  0.174E-05    0.74     886.2  T
     SCC iter.                  ...        0 min,  0.028 sec
     gradient                   ...        0 min,  0.080 sec
 * total energy  :   -83.5910167 Eh     change       -0.1273722E-03 Eh
   gradient norm :     0.0050175 Eh/α   predicted    -0.8426763E-04 ( -33.84%)
   displ. norm   :     0.2341917 α      lambda       -0.2200205E-03
   maximum displ.:     0.1770871 α      in ANC's #3, #4, #5, ...

........................................................................
.............................. CYCLE   15 ..............................
........................................................................
   1    -84.3168602 -0.843169E+02  0.330E-02    0.74       0.0  T
   2    -84.3168231  0.371404E-04  0.427E-02    0.76       1.0  T
   3    -84.3169239 -0.100795E-03  0.376E-03    0.76       4.1  T
   4    -84.3169242 -0.352041E-06  0.257E-03    0.76       6.0  T
   5    -84.3169244 -0.135890E-06  0.110E-03    0.77      14.0  T
   6    -84.3169244 -0.181811E-07  0.296E-04    0.77      52.1  T
   7    -84.3169244 -0.866251E-09  0.707E-05    0.77     218.1  T
   8    -84.3169244 -0.130996E-09  0.191E-05    0.77     808.7  T
     SCC iter.                  ...        0 min,  0.030 sec
     gradient                   ...        0 min,  0.080 sec
 * total energy  :   -83.5911830 Eh     change       -0.1663286E-03 Eh
   gradient norm :     0.0043997 Eh/α   predicted    -0.1160472E-03 ( -30.23%)
   displ. norm   :     0.2998550 α      lambda       -0.1887588E-03
   maximum displ.:     0.2362475 α      in ANC's #3, #4, #5, ...

........................................................................
.............................. CYCLE   16 ..............................
........................................................................
   1    -84.3159425 -0.843159E+02  0.312E-02    0.77       0.0  T
   2    -84.3159220  0.204870E-04  0.362E-02    0.79       1.0  T
   3    -84.3159938 -0.718031E-04  0.452E-03    0.80       3.4  T
   4    -84.3159947 -0.850892E-06  0.236E-03    0.80       6.5  T
   5    -84.3159948 -0.115891E-06  0.106E-03    0.81      14.5  T
   6    -84.3159948 -0.169244E-07  0.341E-04    0.81      45.3  T
   7    -84.3159948 -0.645088E-09  0.902E-05    0.81     171.1  T
   8    -84.3159948 -0.205560E-09  0.194E-05    0.81     793.5  T
     SCC iter.                  ...        0 min,  0.030 sec
     gradient                   ...        0 min,  0.080 sec
 * total energy  :   -83.5913216 Eh     change       -0.1385484E-03 Eh
   gradient norm :     0.0044728 Eh/α   predicted    -0.1028707E-03 ( -25.75%)
   displ. norm   :     0.2706898 α      lambda       -0.1254258E-03
   maximum displ.:     0.2166077 α      in ANC's #3, #4, #5, ...

........................................................................
.............................. CYCLE   17 ..............................
........................................................................
   1    -84.3157393 -0.843157E+02  0.221E-02    0.81       0.0  T
   2    -84.3157383  0.102996E-05  0.209E-02    0.83       1.0  T
   3    -84.3157614 -0.231179E-04  0.509E-03    0.84       3.0  T
   4    -84.3157626 -0.126121E-05  0.169E-03    0.84       9.1  T
   5    -84.3157627 -0.589466E-07  0.759E-04    0.85      20.3  T
   6    -84.3157627 -0.809057E-08  0.296E-04    0.85      52.1  T
   7    -84.3157627 -0.443848E-09  0.879E-05    0.85     175.5  T
   8    -84.3157627 -0.192514E-09  0.183E-05    0.85     842.3  T
     SCC iter.                  ...        0 min,  0.029 sec
     gradient                   ...        0 min,  0.080 sec
 * total energy  :   -83.5914137 Eh     change       -0.9211562E-04 Eh
   gradient norm :     0.0040229 Eh/α   predicted    -0.6731063E-04 ( -26.93%)
   displ. norm   :     0.2211111 α      lambda       -0.8828333E-04
   maximum displ.:     0.1768539 α      in ANC's #3, #5, #4, ...

........................................................................
.............................. CYCLE   18 ..............................
........................................................................
   1    -84.3161471 -0.843161E+02  0.130E-02    0.85       0.0  T
   2    -84.3161489 -0.180328E-05  0.103E-02    0.86       1.5  T
   3    -84.3161540 -0.513311E-05  0.382E-03    0.87       4.0  T
   4    -84.3161547 -0.714289E-06  0.107E-03    0.87      14.4  T
   5    -84.3161548 -0.228899E-07  0.474E-04    0.87      32.6  T
   6    -84.3161548 -0.261917E-08  0.190E-04    0.87      81.2  T
   7    -84.3161548 -0.251859E-09  0.599E-05    0.87     257.6  T
     SCC iter.                  ...        0 min,  0.025 sec
     gradient                   ...        0 min,  0.080 sec
 * total energy  :   -83.5914783 Eh     change       -0.6460284E-04 Eh
   gradient norm :     0.0035235 Eh/α   predicted    -0.4630134E-04 ( -28.33%)
   displ. norm   :     0.1770151 α      lambda       -0.6638112E-04
   maximum displ.:     0.1368163 α      in ANC's #3, #12, #9, ...

........................................................................
.............................. CYCLE   19 ..............................
........................................................................
   1    -84.3164990 -0.843165E+02  0.800E-03    0.88       0.0  T
   2    -84.3164994 -0.435223E-06  0.662E-03    0.88       2.3  T
   3    -84.3165016 -0.218596E-05  0.216E-03    0.88       7.1  T
   4    -84.3165018 -0.208170E-06  0.742E-04    0.88      20.8  T
   5    -84.3165018 -0.103603E-07  0.296E-04    0.88      52.2  T
   6    -84.3165018 -0.101198E-08  0.103E-04    0.89     149.7  T
   7    -84.3165018 -0.765681E-10  0.320E-05    0.89     481.5  T
     SCC iter.                  ...        0 min,  0.025 sec
     gradient                   ...        0 min,  0.080 sec
 * total energy  :   -83.5915281 Eh     change       -0.4980579E-04 Eh
   gradient norm :     0.0033882 Eh/α   predicted    -0.3423456E-04 ( -31.26%)
   displ. norm   :     0.1499945 α      lambda       -0.5931303E-04
   maximum displ.:     0.1061243 α      in ANC's #3, #9, #18, ...

........................................................................
.............................. CYCLE   20 ..............................
........................................................................
   1    -84.3168331 -0.843168E+02  0.353E-03    0.89       0.0  T
   2    -84.3168333 -0.184902E-06  0.328E-03    0.89       4.7  T
   3    -84.3168337 -0.443165E-06  0.119E-03    0.89      13.0  T
   4    -84.3168338 -0.177516E-07  0.721E-04    0.89      21.4  T
   5    -84.3168338 -0.624243E-08  0.197E-04    0.88      78.4  T
   6    -84.3168338 -0.738126E-09  0.467E-05    0.88     330.5  T
     SCC iter.                  ...        0 min,  0.021 sec
     gradient                   ...        0 min,  0.080 sec
 * total energy  :   -83.5915723 Eh     change       -0.4417701E-04 Eh
   gradient norm :     0.0032107 Eh/α   predicted    -0.3032536E-04 ( -31.35%)
   displ. norm   :     0.1275171 α      lambda       -0.4727281E-04
   maximum displ.:     0.0844942 α      in ANC's #3, #9, #12, ...
 * RMSD in coord.:     0.5336861 α      energy gain  -0.2879668E-01 Eh

generating ANC from model Hessian ...
Using Lindh-Hessian (1995)
 Shifting diagonal of input Hessian by   9.844813811285293E-003
 Lowest  eigenvalues of input Hessian
    0.000000    0.000000    0.000000    0.000000    0.000000    0.000000
    0.010000    0.010572    0.010586    0.011319    0.012032    0.012571
    0.013198    0.014278    0.015298    0.017066    0.017998    0.018145
 Highest eigenvalues
    2.070369    2.091677    2.192990    2.200158    2.263674    2.337520
 

........................................................................
.............................. CYCLE   21 ..............................
........................................................................
   1    -84.3167196 -0.843167E+02  0.452E-03    0.88       0.0  T
   2    -84.3167203 -0.765552E-06  0.267E-03    0.88       5.8  T
   3    -84.3167205 -0.108076E-06  0.177E-03    0.88       8.7  T
   4    -84.3167206 -0.113700E-06  0.857E-04    0.88      18.0  T
   5    -84.3167206 -0.132753E-07  0.300E-04    0.88      51.4  T
   6    -84.3167206 -0.838824E-09  0.812E-05    0.88     190.1  T
   7    -84.3167206 -0.150322E-09  0.305E-05    0.88     506.4  T
     SCC iter.                  ...        0 min,  0.025 sec
     gradient                   ...        0 min,  0.080 sec
 * total energy  :   -83.5916063 Eh     change       -0.3405638E-04 Eh
   gradient norm :     0.0025573 Eh/α   predicted     0.0000000E+00 (-100.00%)
   displ. norm   :     0.0219201 α      lambda       -0.1179090E-04
   maximum displ.:     0.0129987 α      in ANC's #2, #4, #7, ...

........................................................................
.............................. CYCLE   22 ..............................
........................................................................
   1    -84.3168321 -0.843168E+02  0.234E-03    0.88       0.0  T
   2    -84.3168322 -0.503889E-07  0.219E-03    0.87       7.0  T
   3    -84.3168324 -0.234289E-06  0.544E-04    0.87      28.4  T
   4    -84.3168324 -0.961552E-08  0.262E-04    0.87      58.8  T
   5    -84.3168324 -0.127324E-08  0.103E-04    0.87     149.8  T
   6    -84.3168324 -0.102688E-09  0.243E-05    0.87     634.0  T
     SCC iter.                  ...        0 min,  0.021 sec
     gradient                   ...        0 min,  0.079 sec
 * total energy  :   -83.5916180 Eh     change       -0.1172779E-04 Eh
   gradient norm :     0.0015016 Eh/α   predicted    -0.7135470E-05 ( -39.16%)
   displ. norm   :     0.0982545 α      lambda       -0.2374077E-04
   maximum displ.:     0.0618183 α      in ANC's #2, #4, #7, ...

........................................................................
.............................. CYCLE   23 ..............................
........................................................................
   1    -84.3171346 -0.843171E+02  0.763E-03    0.87       0.0  T
   2    -84.3171354 -0.753996E-06  0.654E-03    0.86       2.4  T
   3    -84.3171374 -0.202400E-05  0.196E-03    0.86       7.9  T
   4    -84.3171376 -0.172581E-06  0.755E-04    0.86      20.4  T
   5    -84.3171376 -0.131470E-07  0.308E-04    0.86      50.1  T
   6    -84.3171376 -0.971852E-09  0.842E-05    0.86     183.2  T
   7    -84.3171376 -0.653841E-10  0.229E-05    0.86     673.3  T
     SCC iter.                  ...        0 min,  0.024 sec
     gradient                   ...        0 min,  0.079 sec
 * total energy  :   -83.5916359 Eh     change       -0.1789957E-04 Eh
   gradient norm :     0.0023623 Eh/α   predicted    -0.1305377E-04 ( -27.07%)
   displ. norm   :     0.0229237 α      lambda       -0.8041607E-05
   maximum displ.:     0.0155208 α      in ANC's #2, #4, #7, ...

........................................................................
.............................. CYCLE   24 ..............................
........................................................................
   1    -84.3171609 -0.843172E+02  0.172E-03    0.86       0.0  T
   2    -84.3171610 -0.795378E-07  0.109E-03    0.86      14.2  T
   3    -84.3171610 -0.421657E-07  0.501E-04    0.86      30.8  T
   4    -84.3171610 -0.884410E-08  0.264E-04    0.86      58.5  T
   5    -84.3171610 -0.220074E-08  0.736E-05    0.85     209.6  T
   6    -84.3171610 -0.397193E-10  0.242E-05    0.85     638.2  T
     SCC iter.                  ...        0 min,  0.021 sec
     gradient                   ...        0 min,  0.080 sec
 * total energy  :   -83.5916429 Eh     change       -0.6973247E-05 Eh
   gradient norm :     0.0017819 Eh/α   predicted    -0.4023303E-05 ( -42.30%)
   displ. norm   :     0.1191056 α      lambda       -0.2304278E-04
   maximum displ.:     0.0792554 α      in ANC's #2, #4, #1, ...

........................................................................
.............................. CYCLE   25 ..............................
........................................................................
   1    -84.3171879 -0.843172E+02  0.957E-03    0.85       0.0  T
   2    -84.3171903 -0.238797E-05  0.600E-03    0.84       2.6  T
   3    -84.3171916 -0.128595E-05  0.266E-03    0.84       5.8  T
   4    -84.3171919 -0.268287E-06  0.142E-03    0.84      10.8  T
   5    -84.3171919 -0.626253E-07  0.408E-04    0.83      37.8  T
   6    -84.3171919 -0.113361E-08  0.138E-04    0.83     112.1  T
   7    -84.3171919 -0.229718E-09  0.408E-05    0.83     378.0  T
     SCC iter.                  ...        0 min,  0.025 sec
     gradient                   ...        0 min,  0.080 sec
 * total energy  :   -83.5916595 Eh     change       -0.1656697E-04 Eh
   gradient norm :     0.0018992 Eh/α   predicted    -0.1165498E-04 ( -29.65%)
   displ. norm   :     0.0493404 α      lambda       -0.6074845E-05
   maximum displ.:     0.0329411 α      in ANC's #2, #4, #1, ...

........................................................................
.............................. CYCLE   26 ..............................
........................................................................
   1    -84.3172936 -0.843173E+02  0.281E-03    0.83       0.0  T
   2    -84.3172939 -0.284605E-06  0.109E-03    0.83      14.2  T
   3    -84.3172939 -0.357067E-07  0.720E-04    0.83      21.4  T
   4    -84.3172939 -0.177225E-07  0.351E-04    0.83      43.9  T
   5    -84.3172939 -0.479137E-08  0.155E-04    0.83      99.8  T
   6    -84.3172939 -0.362903E-09  0.516E-05    0.83     299.1  T
     SCC iter.                  ...        0 min,  0.021 sec
     gradient                   ...        0 min,  0.080 sec
 * total energy  :   -83.5916665 Eh     change       -0.7002484E-05 Eh
   gradient norm :     0.0011049 Eh/α   predicted    -0.3042838E-05 ( -56.55%)
   displ. norm   :     0.0830494 α      lambda       -0.8436564E-05
   maximum displ.:     0.0558473 α      in ANC's #2, #1, #4, ...

........................................................................
.............................. CYCLE   27 ..............................
........................................................................
   1    -84.3175037 -0.843175E+02  0.431E-03    0.83       0.0  T
   2    -84.3175045 -0.742679E-06  0.157E-03    0.83       9.8  T
   3    -84.3175046 -0.842840E-07  0.699E-04    0.82      22.1  T
   4    -84.3175046 -0.107595E-07  0.391E-04    0.82      39.4  T
   5    -84.3175046 -0.368331E-09  0.249E-04    0.82      61.9  T
   6    -84.3175046 -0.228749E-08  0.103E-04    0.82     149.3  T
   7    -84.3175046 -0.280792E-09  0.240E-05    0.82     642.2  T
     SCC iter.                  ...        0 min,  0.024 sec
     gradient                   ...        0 min,  0.080 sec
 * total energy  :   -83.5916741 Eh     change       -0.7612455E-05 Eh
   gradient norm :     0.0006233 Eh/α   predicted    -0.4235091E-05 ( -44.37%)
   displ. norm   :     0.0589412 α      lambda       -0.3661251E-05
   maximum displ.:     0.0378870 α      in ANC's #2, #1, #4, ...

........................................................................
.............................. CYCLE   28 ..............................
........................................................................
   1    -84.3175762 -0.843176E+02  0.266E-03    0.82       0.0  T
   2    -84.3175764 -0.182702E-06  0.161E-03    0.82       9.6  T
   3    -84.3175765 -0.816324E-07  0.890E-04    0.82      17.3  T
   4    -84.3175765 -0.383338E-07  0.337E-04    0.82      45.7  T
   5    -84.3175765 -0.267445E-08  0.129E-04    0.82     119.6  T
   6    -84.3175765 -0.176513E-09  0.495E-05    0.82     311.6  T
     SCC iter.                  ...        0 min,  0.021 sec
     gradient                   ...        0 min,  0.080 sec
 * total energy  :   -83.5916780 Eh     change       -0.3913453E-05 Eh
   gradient norm :     0.0007478 Eh/α   predicted    -0.1833776E-05 ( -53.14%)
   displ. norm   :     0.0728565 α      lambda       -0.4070422E-05
   maximum displ.:     0.0436345 α      in ANC's #2, #1, #16, ...

   *** GEOMETRY OPTIMIZATION CONVERGED AFTER 28 ITERATIONS ***

------------------------------------------------------------------------
 total energy gain   :        -0.0289024 Eh      -18.1366 kcal/mol
 total RMSD          :         0.5829678 a0        0.3085 Å
 total power (kW/mol):        -2.7101190 (step)  -18.2969 (real)
------------------------------------------------------------------------

 ANCopt (total)                0 d,  0 h,  0 min,  4.147 sec
 optimizer setup                ...        0 min,  0.001 sec (  0.022%)
 model hessian                  ...        0 min,  0.048 sec (  1.160%)
 ANC generation                 ...        0 min,  0.005 sec (  0.121%)
 coordinate transformation      ...        0 min,  0.001 sec (  0.032%)
 single point calculation       ...        0 min,  4.075 sec ( 98.250%)
 optimization log               ...        0 min,  0.009 sec (  0.213%)
 hessian update                 ...        0 min,  0.001 sec (  0.027%)
 rational function              ...        0 min,  0.004 sec (  0.106%)

================
 final structure:
================
42
 xtb: 6.5.1 (579679a)
C            6.48734249637463        2.25780594678153        0.36663779674085
O            5.36064080447458        1.57367144195141        0.88317588516320
C            4.48358519320663        1.08939171087834       -0.05109172419246
O            4.70711337945083        1.27894221297357       -1.24740713450547
C            3.35007744844917        0.37364879874058        0.48782970498151
N            2.49556442635153       -0.10992690489044       -0.49681829252840
C            1.45435189536706       -0.79108287896749       -0.15941930047840
C            0.54762000372550       -1.36886832927787       -1.24661053122285
C            1.00655538138727       -0.82751794563280       -2.60802976508748
C            0.68126100034006       -2.90308510551678       -1.25432880622720
N           -0.86668228898095       -1.00564070299894       -1.11577971151299
C           -1.57415265648480       -1.19834339791207        0.13670329482497
O           -1.11515419933798       -2.06536949293659        1.02150728998640
C           -2.72270961873938       -0.50248474066479        0.27402821349627
N           -3.64247562808462       -0.49659215522366        1.35057628425819
N           -4.56219110416097        0.37902686693727        0.95910210591332
C           -5.68979821931142        0.63923124390738        1.82098396020394
C           -4.34705507045356        0.91734193075360       -0.21830317854802
C           -5.17965254604607        1.91292834073071       -0.93829400945993
O           -3.19151342724720        0.42112197964234       -0.74864174019234
N            1.13860316739178       -1.08419507493909        1.13486055464051
C            1.86106327527814       -0.64360732282846        2.19084507409342
O            1.51830453395534       -0.89792547130083        3.35675212615740
C            3.10872464971720        0.15597818115641        1.86968580083337
O            3.82379069016166        0.56359166915816        2.81486789542483
H            6.18308386635549        3.12982152850089       -0.22245050332489
H            7.08587791143617        2.58405458515224        1.21699850666769
H            7.08782911020940        1.60022884140744       -0.27171399400521
H            0.36918094921813       -1.22084898291285       -3.39914779141874
H            2.03768795434739       -1.12219344887253       -2.80283917220223
H            0.95340363753877        0.26138203971819       -2.62070770246602
H            1.71563818849429       -3.18574906417388       -1.45186287556279
H            0.37659894037985       -3.32920821962162       -0.29915640796756
H            0.04743047632354       -3.31875284717953       -2.03760412170207
H           -1.02975532261525       -0.06671034802647       -1.46550744554698
H           -5.55745493122498        0.06349241233370        2.73456266161302
H           -5.74213519743485        1.70180344040607        2.05440145831406
H           -6.61087170644751        0.33756836034177        1.32378837581009
H           -4.75531085633639        2.08181969802968       -1.92579208275623
H           -5.21418033051812        2.86471778950471       -0.40379339001957
H           -6.20548115263716        1.55765535490836       -1.05042356154223
H            0.12524387614732       -1.60712294005477        1.22580425334536
 
 Bond Distances (Angstroems)
 ---------------------------
C1-O2=1.4157         C1-H26=1.0954        C1-H27=1.0899        C1-H28=1.0957        O2-C1=1.4157         O2-C3=1.3699         
C3-O2=1.3699         C3-O4=1.2317         C3-C5=1.4448         O4-C3=1.2317         C5-C3=1.4448         C5-N6=1.3905         
C5-C24=1.4196        N6-C5=1.3905         N6-C7=1.2892         C7-N6=1.2892         C7-C8=1.5290         C7-N21=1.3641        
C8-C7=1.5290         C8-C9=1.5353         C8-C10=1.5400        C8-N11=1.4660        C9-C8=1.5353         C9-H29=1.0894        
C9-H30=1.0900        C9-H31=1.0903        C10-C8=1.5400        C10-H32=1.0903       C10-H33=1.0894       C10-H34=1.0900       
N11-C8=1.4660        N11-C12=1.4513       N11-H35=1.0151       C12-N11=1.4513       C12-O13=1.3211       C12-C14=1.3499       
O13-C12=1.3211       C14-C12=1.3499       C14-N15=1.4160       C14-O20=1.4556       N15-C14=1.4160       N15-N16=1.3288       
N16-N15=1.3288       N16-C17=1.4429       N16-C18=1.3124       C17-N16=1.4429       C17-H36=1.0879       C17-H37=1.0892       
C17-H38=1.0893       C18-N16=1.3124       C18-C19=1.4842       C18-O20=1.3648       C19-C18=1.4842       C19-H39=1.0880       
C19-H40=1.0921       C19-H41=1.0914       O20-C14=1.4556       O20-C18=1.3648       N21-C7=1.3641        N21-C22=1.3532       
N21-H42=1.1440       C22-N21=1.3532       C22-O23=1.2416       C22-C24=1.5163       O23-C22=1.2416       C24-C5=1.4196        
C24-C22=1.5163       C24-O25=1.2533       O25-C24=1.2533       H26-C1=1.0954        H27-C1=1.0899        H28-C1=1.0957        
H29-C9=1.0894        H30-C9=1.0900        H31-C9=1.0903        H32-C10=1.0903       H33-C10=1.0894       H34-C10=1.0900       
H35-N11=1.0151       H36-C17=1.0879       H37-C17=1.0892       H38-C17=1.0893       H39-C19=1.0880       H40-C19=1.0921       
H41-C19=1.0914       H42-N21=1.1440       
 C  H  Rav=1.0906 sigma=0.0022  Rmin=1.0879  Rmax=1.0957    15
 C  C  Rav=1.4774 sigma=0.0634  Rmin=1.3499  Rmax=1.5400     8
 N  H  Rav=1.0795 sigma=0.0644  Rmin=1.0151  Rmax=1.1440     2
 N  C  Rav=1.3873 sigma=0.0589  Rmin=1.2892  Rmax=1.4660     9
 N  N  Rav=1.3288 sigma=0.0000  Rmin=1.3288  Rmax=1.3288     1
 O  C  Rav=1.3317 sigma=0.0785  Rmin=1.2317  Rmax=1.4556     8
 
 selected bond angles (degree)
 --------------------
H26-C1-O2=111.09               H27-C1-O2=107.28               H27-C1-H26=109.50              H28-C1-O2=111.02               
H28-C1-H26=108.46              H28-C1-H27=109.47              C3-O2-C1=115.56                O4-C3-O2=119.46                
C5-C3-O2=115.03                C5-C3-O4=125.51                N6-C5-C3=112.97                C24-C5-C3=124.92               
C24-C5-N6=122.11               C7-N6-C5=119.65                C8-C7-N6=119.51                N21-C7-N6=123.29               
N21-C7-C8=117.14               C9-C8-C7=108.66                C10-C8-C7=109.18               C10-C8-C9=108.72               
N11-C8-C7=114.52               N11-C8-C9=106.27               N11-C8-C10=109.33              H29-C9-C8=109.98               
H30-C9-C8=110.24               H30-C9-H29=109.03              H31-C9-C8=110.36               H31-C9-H29=108.88              
H31-C9-H30=108.30              H32-C10-C8=109.97              H33-C10-C8=111.16              H33-C10-H32=108.83             
H34-C10-C8=109.45              H34-C10-H32=108.82             H34-C10-H33=108.56             
 
 selected dihedral angles (degree)
 ---------------------------------
C3-O2-C1-H26= 60.19           C3-O2-C1-H27=179.84           C3-O2-C1-H28=299.40           O4-C3-O2-C1=359.34            
C5-C3-O2-C1=178.99            N6-C5-C3-O2=180.60            N6-C5-C3-O4=  0.22            C24-C5-C3-O2=  0.00           
C24-C5-C3-O4=179.62           C7-N6-C5-C3=178.69            C7-N6-C5-C24=359.27           C8-C7-N6-C5=182.44            
N21-C7-N6-C5=359.35           C9-C8-C7-N6=352.46            C9-C8-C7-N21=175.36           C10-C8-C7-N6=110.89           
C10-C8-C7-N21=293.79          N11-C8-C7-N6=233.84           N11-C8-C7-N21= 56.74          H29-C9-C8-C7=180.41           
H29-C9-C8-C10= 61.68          H29-C9-C8-N11=304.11          H30-C9-C8-C7= 60.15           H30-C9-C8-C10=301.43          
H30-C9-C8-N11=183.85          H31-C9-C8-C7=300.55           H31-C9-C8-C10=181.83          H31-C9-C8-N11= 64.26          
H32-C10-C8-C7=300.31          H32-C10-C8-C9= 58.71          H32-C10-C8-N11=174.32         H33-C10-C8-C7= 60.90          
H33-C10-C8-C9=179.29          H33-C10-C8-N11=294.91         H34-C10-C8-C7=180.81          H34-C10-C8-C9=299.21          
H34-C10-C8-N11= 54.82         
           -------------------------------------------------
          |                Final Singlepoint                |
           -------------------------------------------------

          ...................................................
          :                      SETUP                      :
          :.................................................:
          :  # basis functions                 134          :
          :  # atomic orbitals                 134          :
          :  # shells                           84          :
          :  # electrons                       136          :
          :  # halogen bonds                     0          :
          :  max. iterations                   250          :
          :  Hamiltonian                  GFN1-xTB          :
          :  restarted?                      false          :
          :  GBSA solvation                   true          :
          :  PC potential                    false          :
          :  electronic temp.          300.0000000     K    :
          :  accuracy                    1.0000000          :
          :  -> integral cutoff          0.2500000E+02      :
          :  -> integral neglect         0.1000000E-07      :
          :  -> SCF convergence          0.1000000E-05 Eh   :
          :  -> wf. convergence          0.2000000E-04 e    :
          :  Broyden damping             0.4000000          :
          ...................................................

 iter      E             dE          RMSdq      gap      omega  full diag
   1    -84.3175765 -0.843176E+02  0.143E-05    0.82       0.0  T
   2    -84.3175765 -0.105160E-11  0.937E-06    0.82    1646.6  T
   3    -84.3175765 -0.333955E-11  0.583E-06    0.82    2645.6  T

   *** convergence criteria satisfied after 3 iterations ***

         #    Occupation            Energy/Eh            Energy/eV
      -------------------------------------------------------------
         1        2.0000           -0.8065210             -21.9466
       ...           ...                  ...                  ...
        62        2.0000           -0.3832085             -10.4276
        63        2.0000           -0.3803926             -10.3510
        64        2.0000           -0.3772281             -10.2649
        65        2.0000           -0.3592046              -9.7745
        66        2.0000           -0.3386144              -9.2142
        67        2.0000           -0.3325931              -9.0503
        68        2.0000           -0.2698288              -7.3424 (HOMO)
        69        0.0000           -0.2397770              -6.5247 (LUMO)
        70                         -0.2289328              -6.2296
        71                         -0.1995952              -5.4313
        72                         -0.1651769              -4.4947
        73                         -0.1414653              -3.8495
       ...                                ...                  ...
       134                          0.7659862              20.8435
      -------------------------------------------------------------
                  HL-Gap            0.0300518 Eh            0.8178 eV
             Fermi-level           -0.2548029 Eh           -6.9335 eV

 SCC (total)                   0 d,  0 h,  0 min,  0.128 sec
 SCC setup                      ...        0 min,  0.002 sec (  1.443%)
 Dispersion                     ...        0 min,  0.000 sec (  0.268%)
 classical contributions        ...        0 min,  0.000 sec (  0.085%)
 integral evaluation            ...        0 min,  0.033 sec ( 26.194%)
 iterations                     ...        0 min,  0.011 sec (  8.975%)
 molecular gradient             ...        0 min,  0.080 sec ( 62.307%)
 printout                       ...        0 min,  0.001 sec (  0.691%)

         :::::::::::::::::::::::::::::::::::::::::::::::::::::
         ::                     SUMMARY                     ::
         :::::::::::::::::::::::::::::::::::::::::::::::::::::
         :: total energy             -83.591678015006 Eh    ::
         :: total w/o Gsasa/hb       -83.571914191524 Eh    ::
         :: gradient norm              0.000749045888 Eh/a0 ::
         :: HOMO-LUMO gap              0.817752253152 eV    ::
         ::.................................................::
         :: SCC energy               -84.317576543027 Eh    ::
         :: -> electrostatic           0.729164385260 Eh    ::
         :: -> Gsolv                  -0.297711905203 Eh    ::
         ::    -> Gelec               -0.277948081721 Eh    ::
         ::    -> Gsasa               -0.025034100783 Eh    ::
         ::    -> Ghb                 -0.002354001704 Eh    ::
         ::    -> Gshift               0.007624279005 Eh    ::
         :: repulsion energy           0.751375140629 Eh    ::
         :: dispersion energy         -0.025476612609 Eh    ::
         :: halogen bond corr.         0.000000000000 Eh    ::
         :: add. restraining           0.000000000000 Eh    ::
         :: total charge              -2.000000000003 e     ::
         :::::::::::::::::::::::::::::::::::::::::::::::::::::

           -------------------------------------------------
          |                Property Printout                |
           -------------------------------------------------

    * Orbital Energies and Occupations

         #    Occupation            Energy/Eh            Energy/eV
      -------------------------------------------------------------
         1        2.0000           -0.8065210             -21.9466
       ...           ...                  ...                  ...
        56        2.0000           -0.4425557             -12.0426
        57        2.0000           -0.4363070             -11.8725
        58        2.0000           -0.4197960             -11.4232
        59        2.0000           -0.4149613             -11.2917
        60        2.0000           -0.4084975             -11.1158
        61        2.0000           -0.3945231             -10.7355
        62        2.0000           -0.3832085             -10.4276
        63        2.0000           -0.3803926             -10.3510
        64        2.0000           -0.3772281             -10.2649
        65        2.0000           -0.3592046              -9.7745
        66        2.0000           -0.3386144              -9.2142
        67        2.0000           -0.3325931              -9.0503
        68        2.0000           -0.2698288              -7.3424 (HOMO)
        69        0.0000           -0.2397770              -6.5247 (LUMO)
        70                         -0.2289328              -6.2296
        71                         -0.1995952              -5.4313
        72                         -0.1651769              -4.4947
        73                         -0.1414653              -3.8495
        74                         -0.1258718              -3.4251
        75                         -0.1176907              -3.2025
        76                         -0.1136951              -3.0938
        77                         -0.0928695              -2.5271
        78                         -0.0905252              -2.4633
        79                         -0.0845910              -2.3018
       ...                                ...                  ...
       134                          0.7659862              20.8435
      -------------------------------------------------------------
                  HL-Gap            0.0300518 Eh            0.8178 eV
             Fermi-level           -0.2548029 Eh           -6.9335 eV

  Mulliken/CM5 charges         n(s)   n(p)   n(d)
     1C     0.17667  0.05783   0.967  2.857  0.000
     2O    -0.44183 -0.52391   1.690  4.752  0.000
     3C     0.53185  0.59531   0.982  2.487  0.000
     4O    -0.64547 -0.68861   1.739  4.906  0.000
     5C    -0.03022  0.04416   1.039  2.991  0.000
     6N    -0.42446 -0.60670   1.542  3.882  0.000
     7C     0.24658  0.39836   1.013  2.740  0.000
     8C     0.15440  0.19373   1.061  2.785  0.000
     9C    -0.08995 -0.22845   1.013  3.077  0.000
    10C    -0.08992 -0.22910   1.013  3.077  0.000
    11N    -0.43877 -0.77208   1.466  3.973  0.000
    12C     0.28843  0.37127   0.962  2.749  0.000
    13O    -0.72639 -0.82423   1.749  4.978  0.000
    14C     0.18389  0.28178   0.994  2.822  0.000
    15N    -0.43737 -0.52955   1.584  3.854  0.000
    16N     0.00713 -0.19358   1.417  3.576  0.000
    17C     0.03156 -0.04916   0.988  2.980  0.000
    18C     0.28121  0.38193   0.970  2.749  0.000
    19C    -0.10848 -0.24652   1.010  3.099  0.000
    20O    -0.45874 -0.50883   1.717  4.742  0.000
    21N    -0.37571 -0.67496   1.473  3.902  0.000
    22C     0.41375  0.52101   1.006  2.580  0.000
    23O    -0.66113 -0.69595   1.744  4.917  0.000
    24C     0.27089  0.31573   1.040  2.689  0.000
    25O    -0.66699 -0.70418   1.750  4.917  0.000
    26H     0.02529  0.08702   0.975  0.000  0.000
    27H     0.02556  0.08580   0.974  0.000  0.000
    28H     0.02491  0.08653   0.975  0.000  0.000
    29H     0.01752  0.07349   0.982  0.000  0.000
    30H     0.02011  0.07770   0.980  0.000  0.000
    31H     0.02418  0.08264   0.976  0.000  0.000
    32H     0.01012  0.06463   0.990  0.000  0.000
    33H     0.03552  0.09826   0.964  0.000  0.000
    34H     0.01540  0.07128   0.985  0.000  0.000
    35H     0.19452  0.39593   0.805  0.000  0.000
    36H     0.06108  0.12862   0.939  0.000  0.000
    37H     0.05069  0.11366   0.949  0.000  0.000
    38H     0.05067  0.11372   0.949  0.000  0.000
    39H     0.06350  0.11920   0.936  0.000  0.000
    40H     0.04933  0.10313   0.951  0.000  0.000
    41H     0.04727  0.10151   0.953  0.000  0.000
    42H     0.29338  0.51156   0.707  0.000  0.000

Wiberg/Mayer (AO) data.
largest (>0.10) Wiberg bond orders for each atom

 ---------------------------------------------------------------------------
     #   Z sym  total        # sym  WBO       # sym  WBO       # sym  WBO
 ---------------------------------------------------------------------------
     1   6 C    3.909 --    27 H    0.987    28 H    0.980    26 H    0.980
                             2 O    0.936
     2   8 O    2.140 --     3 C    1.018     1 C    0.936     4 O    0.101
     3   6 C    3.846 --     4 O    1.548     5 C    1.152     2 O    1.018
     4   8 O    1.829 --     3 C    1.548     2 O    0.101
     5   6 C    3.918 --    24 C    1.277     3 C    1.152     6 N    1.136
                            25 O    0.122
     6   7 N    3.011 --     7 C    1.604     5 C    1.136
     7   6 C    3.942 --     6 N    1.604    21 N    1.166     8 C    0.965
     8   6 C    3.966 --     9 C    0.999    10 C    0.985     7 C    0.965
                            11 N    0.961
     9   6 C    3.997 --     8 C    0.999    29 H    0.988    30 H    0.985
                            31 H    0.985
    10   6 C    3.994 --    32 H    0.989    34 H    0.987     8 C    0.985
                            33 H    0.979
    11   7 N    3.060 --     8 C    0.961    12 C    0.959    35 H    0.936
    12   6 C    3.912 --    14 C    1.591    13 O    1.155    11 N    0.959
    13   8 O    1.767 --    12 C    1.155    42 H    0.290    14 C    0.110
    14   6 C    3.752 --    12 C    1.591    15 N    1.075    20 O    0.848
                            13 O    0.110
    15   7 N    2.756 --    16 N    1.173    14 C    1.075    18 C    0.308
    16   7 N    3.639 --    18 C    1.394    15 N    1.173    17 C    0.950
    17   6 C    3.953 --    36 H    0.985    37 H    0.982    38 H    0.980
                            16 N    0.950
    18   6 C    3.869 --    16 N    1.394    20 O    1.035    19 C    1.025
                            15 N    0.308
    19   6 C    3.993 --    18 C    1.025    39 H    0.983    41 H    0.973
                            40 H    0.970
    20   8 O    2.120 --    18 C    1.035    14 C    0.848
    21   7 N    3.394 --    22 C    1.237     7 C    1.166    42 H    0.607
                            23 O    0.138
    22   6 C    3.899 --    23 O    1.520    21 N    1.237    24 C    0.972
    23   8 O    1.798 --    22 C    1.520    21 N    0.138
    24   6 C    3.940 --    25 O    1.492     5 C    1.277    22 C    0.972
    25   8 O    1.790 --    24 C    1.492     5 C    0.122
    26   1 H    1.017 --     1 C    0.980
    27   1 H    1.018 --     1 C    0.987
    28   1 H    1.017 --     1 C    0.980
    29   1 H    1.009 --     9 C    0.988
    30   1 H    1.019 --     9 C    0.985
    31   1 H    1.014 --     9 C    0.985
    32   1 H    1.009 --    10 C    0.989
    33   1 H    1.027 --    10 C    0.979
    34   1 H    1.012 --    10 C    0.987
    35   1 H    0.979 --    11 N    0.936
    36   1 H    1.013 --    17 C    0.985
    37   1 H    1.002 --    17 C    0.982
    38   1 H    1.003 --    17 C    0.980
    39   1 H    1.002 --    19 C    0.983
    40   1 H    1.003 --    19 C    0.970
    41   1 H    1.003 --    19 C    0.973
    42   1 H    0.938 --    21 N    0.607    13 O    0.290
 ---------------------------------------------------------------------------

Topologies differ in total number of bonds
Writing topology from bond orders to xtbtopo.mol

 dipole moment from electron density (au)
     X       Y       Z   
  -7.8879   3.1655  -5.4828  total (Debye):   25.708

           -------------------------------------------------
          |                Geometry Summary                 |
           -------------------------------------------------

      molecular mass/u    :      351.3152409
   center of mass at/Å    :        0.3812114      -0.0762767       0.3459136
  moments of inertia/u·Å² :        0.1280595E+04   0.4866157E+04   0.5059731E+04
rotational constants/cm⁻¹ :        0.1316391E-01   0.3464260E-02   0.3331725E-02

 * 33 selected distances

     #   Z          #   Z                                           value/Å
     1   6 C        2   8 O                                       1.4157361
     2   8 O        3   6 C                                       1.3698941
     3   6 C        4   8 O                                       1.2316920
     6   7 N        7   6 C                                       1.2891607
     8   6 C        9   6 C                                       1.5352995
     8   6 C       10   6 C                                       1.5400458 (max)
     8   6 C       11   7 N                                       1.4660499
    12   6 C       14   6 C                                       1.3499114
    15   7 N       16   7 N                                       1.3288482
    16   7 N       17   6 C                                       1.4429293
    16   7 N       18   6 C                                       1.3123834
    18   6 C       19   6 C                                       1.4841826
    18   6 C       20   8 O                                       1.3648333
     7   6 C       21   7 N                                       1.3641014
    21   7 N       22   6 C                                       1.3532072
    22   6 C       23   8 O                                       1.2415719
     5   6 C       24   6 C                                       1.4195627
     1   6 C       26   1 H                                       1.0954496
     1   6 C       27   1 H                                       1.0898607
     1   6 C       28   1 H                                       1.0956665
     9   6 C       29   1 H                                       1.0894143
     9   6 C       30   1 H                                       1.0899628
     9   6 C       31   1 H                                       1.0902703
    10   6 C       32   1 H                                       1.0903463
    10   6 C       33   1 H                                       1.0893826
    10   6 C       34   1 H                                       1.0899730
    11   7 N       35   1 H                                       1.0151319 (min)
    17   6 C       36   1 H                                       1.0879413
    17   6 C       37   1 H                                       1.0891661
    17   6 C       38   1 H                                       1.0893028
    19   6 C       39   1 H                                       1.0879995
    19   6 C       40   1 H                                       1.0921476
    19   6 C       41   1 H                                       1.0913828

 * 6 distinct bonds (by element types)

   Z      Z             #   av. dist./Å        max./Å        min./Å
   1 H    6 C          15     1.0905511     1.0956665     1.0879413
   6 C    6 C           5     1.4658004     1.5400458     1.3499114
   1 H    7 N           1     1.0151319     1.0151319     1.0151319
   6 C    7 N           6     1.3713053     1.4660499     1.2891607
   7 N    7 N           1     1.3288482     1.3288482     1.3288482
   6 C    8 O           5     1.3247455     1.4157361     1.2316920


optimized geometry written to: xtbopt.xyz


           -------------------------------------------------
          | TOTAL ENERGY              -83.591678015006 Eh   |
          | GRADIENT NORM               0.000749045888 Eh/α |
          | HOMO-LUMO GAP               0.817752253152 eV   |
           -------------------------------------------------

------------------------------------------------------------------------
 * finished run on 2023/06/21 at 17:22:16.911     
------------------------------------------------------------------------
 total:
 * wall-time:     0 d,  0 h,  0 min,  4.624 sec
 *  cpu-time:     0 d,  0 h,  0 min,  4.522 sec
 * ratio c/w:     0.978 speedup
 SCF:
 * wall-time:     0 d,  0 h,  0 min,  0.259 sec
 *  cpu-time:     0 d,  0 h,  0 min,  0.212 sec
 * ratio c/w:     0.816 speedup
 ANC optimizer:
 * wall-time:     0 d,  0 h,  0 min,  4.295 sec
 *  cpu-time:     0 d,  0 h,  0 min,  4.258 sec
 * ratio c/w:     0.991 speedup

