      -----------------------------------------------------------      
     |                   =====================                   |     
     |                           x T B                           |     
     |                   =====================                   |     
     |                         S. Grimme                         |     
     |          Mulliken Center for Theoretical Chemistry        |     
     |                    University of Bonn                     |     
      -----------------------------------------------------------      

   * xtb version 6.5.1 (579679a) compiled by 'ehlert@majestix' on 2022-07-11

   xtb is free software: you can redistribute it and/or modify it under
   the terms of the GNU Lesser General Public License as published by
   the Free Software Foundation, either version 3 of the License, or
   (at your option) any later version.
   
   xtb is distributed in the hope that it will be useful,
   but WITHOUT ANY WARRANTY; without even the implied warranty of
   MERCHANTABILITY or FITNESS FOR A PARTICULAR PURPOSE.  See the
   GNU Lesser General Public License for more details.
   
   Cite this work as:
   * C. Bannwarth, E. Caldeweyher, S. Ehlert, A. Hansen, P. Pracht,
     J. Seibert, S. Spicher, S. Grimme, WIREs Comput. Mol. Sci., 2020, 11,
     e01493. DOI: 10.1002/wcms.1493
   
   for GFN2-xTB:
   * C. Bannwarth, S. Ehlert and S. Grimme., J. Chem. Theory Comput., 2019,
     15, 1652-1671. DOI: 10.1021/acs.jctc.8b01176
   for GFN1-xTB:
   * S. Grimme, C. Bannwarth, P. Shushkov, J. Chem. Theory Comput., 2017,
     13, 1989-2009. DOI: 10.1021/acs.jctc.7b00118
   for GFN0-xTB:
   * P. Pracht, E. Caldeweyher, S. Ehlert, S. Grimme, ChemRxiv, 2019, preprint.
     DOI: 10.26434/chemrxiv.8326202.v1
   for GFN-FF:
   * S. Spicher and S. Grimme, Angew. Chem. Int. Ed., 2020, 59, 15665-15673.
     DOI: 10.1002/anie.202004239
   
   for ALPB and GBSA implicit solvation:
   * S. Ehlert, M. Stahn, S. Spicher, S. Grimme, J. Chem. Theory Comput.,
     2021, 17, 4250-4261. DOI: 10.1021/acs.jctc.1c00471
   
   for DFT-D4:
   * E. Caldeweyher, C. Bannwarth and S. Grimme, J. Chem. Phys., 2017,
     147, 034112. DOI: 10.1063/1.4993215
   * E. Caldeweyher, S. Ehlert, A. Hansen, H. Neugebauer, S. Spicher,
     C. Bannwarth and S. Grimme, J. Chem. Phys., 2019, 150, 154122.
     DOI: 10.1063/1.5090222
   * E. Caldeweyher, J.-M. Mewes, S. Ehlert and S. Grimme, Phys. Chem. Chem. Phys.
     2020, 22, 8499-8512. DOI: 10.1039/D0CP00502A
   
   for sTDA-xTB:
   * S. Grimme and C. Bannwarth, J. Chem. Phys., 2016, 145, 054103.
     DOI: 10.1063/1.4959605
   
   in the mass-spec context:
   * V. Asgeirsson, C. Bauer and S. Grimme, Chem. Sci., 2017, 8, 4879.
     DOI: 10.1039/c7sc00601b
   * J. Koopman and S. Grimme, ACS Omega 2019, 4, 12, 15120-15133.
     DOI: 10.1021/acsomega.9b02011
   
   for metadynamics refer to:
   * S. Grimme, J. Chem. Theory Comput., 2019, 155, 2847-2862
     DOI: 10.1021/acs.jctc.9b00143
   
   for SPH calculations refer to:
   * S. Spicher and S. Grimme, J. Chem. Theory Comput., 2021, 17, 1701-1714
     DOI: 10.1021/acs.jctc.0c01306
   
   with help from (in alphabetical order)
   P. Atkinson, C. Bannwarth, F. Bohle, G. Brandenburg, E. Caldeweyher
   M. Checinski, S. Dohm, S. Ehlert, S. Ehrlich, I. Gerasimov, C. Hölzer
   A. Katbashev, J. Koopman, C. Lavigne, S. Lehtola, F. März, M. Müller,
   F. Musil, H. Neugebauer, J. Pisarek, C. Plett, P. Pracht, F. Pultar,
   J. Seibert, P. Shushkov, S. Spicher, M. Stahn, M. Steiner, T. Strunk,
   J. Stückrath, T. Rose, and J. Unsleber
   
 * started run on 2023/06/20 at 15:10:35.388     

           -------------------------------------------------
          |                Calculation Setup                |
           -------------------------------------------------

          program call               : /lustre/hpc/kemi/ree/PhD/git/ReactivityQM/dep/xtb-6.5.1/bin/xtb --gfn 1 /lustre/hpc/kemi/ree/PhD/git/ReactivityQM/calculations/R02/reac01prodE10/conf16/R02_reac01prodE10_conf16_gfn1.xyz --opt --vfukui --chrg -1 --uhf 0 --alpb DMSO
          hostname                   : node315
          coordinate file            : /lustre/hpc/kemi/ree/PhD/git/ReactivityQM/calculations/R02/reac01prodE10/conf16/R02_reac01prodE10_conf16_gfn1.xyz
          omp threads                :                     1

   ID    Z sym.   atoms
    1    6 C      1, 3, 5, 7-10, 12, 14, 17-19, 22, 24
    2    8 O      2, 4, 13, 20, 23, 25
    3    7 N      6, 11, 15, 16, 21
    4    1 H      26-43

           -------------------------------------------------
          |                 G F N 1 - x T B                 |
           -------------------------------------------------

        Reference                      10.1021/acs.jctc.7b00118
      * Hamiltonian:
        H0-scaling (s, p, d)           1.850000    2.250000    2.000000
        zeta-weighting                 0.000000
      * Dispersion:
        s8                             2.400000
        a1                             0.630000
        a2                             5.000000
        s9                             0.000000
      * Repulsion:
        kExp                           1.500000
        rExp                           1.000000
      * Coulomb:
        alpha                          2.000000
        third order                    atomic
        anisotropic                    false
      * Halogen bond correction:
        rad-scale                      1.300000
        damping                        0.440000

      * Solvation model:               ALPB
        Solvent                        DMSO
        Parameter file                 internal GFN1-xTB/ALPB
        Dielectric constant                4.6680E+01
        Reference state                gsolv [1 M gas/solution]
        Free energy shift                  7.6243E-03 Eh       4.7843E+00 kcal/mol
        Temperature                        2.9815E+02 K
        Density                            1.1000E+00 kg/L
        Solvent mass                       7.8130E+01 g/mol
        Interaction kernel             P16
        Born radius scaling (c1)           1.7672E+00
        Born radii integrator          GBOBC
        Born offset                        0.0000E+00 a0       0.0000E+00 AA
        H-bond correction              true
        Ion screening                  false
        Surface tension                    1.0000E-05 Eh       1.5569E+01 dyn/cm
        Grid points                               230 per atom

          ...................................................
          :                      SETUP                      :
          :.................................................:
          :  # basis functions                 136          :
          :  # atomic orbitals                 136          :
          :  # shells                           86          :
          :  # electrons                       136          :
          :  # halogen bonds                     0          :
          :  max. iterations                   250          :
          :  Hamiltonian                  GFN1-xTB          :
          :  restarted?                      false          :
          :  GBSA solvation                   true          :
          :  PC potential                    false          :
          :  electronic temp.          300.0000000     K    :
          :  accuracy                    1.0000000          :
          :  -> integral cutoff          0.2500000E+02      :
          :  -> integral neglect         0.1000000E-07      :
          :  -> SCF convergence          0.1000000E-05 Eh   :
          :  -> wf. convergence          0.2000000E-04 e    :
          :  Broyden damping             0.4000000          :
          ...................................................

 iter      E             dE          RMSdq      gap      omega  full diag
   1    -84.2456842 -0.842457E+02  0.863E+00    0.07       0.0  T
   2    -84.3277832 -0.820991E-01  0.533E+00    0.60       1.0  T
   3    -83.1279292  0.119985E+01  0.372E+00    0.51       1.0  T
   4    -84.3571143 -0.122919E+01  0.185E+00    0.12       1.0  T
   5    -84.4064541 -0.493397E-01  0.107E+00    0.14       1.0  T
   6    -84.4740490 -0.675949E-01  0.970E-01    0.72       1.0  T
   7    -84.4987473 -0.246983E-01  0.746E-01    0.41       1.0  T
   8    -84.5007919 -0.204456E-02  0.715E-01    0.39       1.0  T
   9    -84.3653009  0.135491E+00  0.117E+00    0.39       1.0  T
  10    -84.5297012 -0.164400E+00  0.513E-01    0.12       1.0  T
  11    -84.4805338  0.491675E-01  0.725E-01    0.07       1.0  T
  12    -84.5463648 -0.658310E-01  0.348E-01    0.09       1.0  T
  13    -84.5339537  0.124111E-01  0.439E-01    0.03       1.0  T
  14    -84.5609446 -0.269909E-01  0.155E-01    0.06       1.0  T
  15    -84.5636251 -0.268047E-02  0.800E-02    0.02       1.0  T
  16    -84.5646312 -0.100611E-02  0.923E-03    0.03       1.7  T
  17    -84.5646337 -0.253005E-05  0.816E-03    0.03       1.9  T
  18    -84.5646442 -0.104648E-04  0.895E-04    0.03      17.0  T
  19    -84.5646442 -0.414091E-07  0.741E-04    0.03      20.6  T
  20    -84.5646443 -0.802343E-07  0.166E-04    0.03      91.6  T
  21    -84.5646443 -0.430151E-08  0.198E-05    0.03     771.2  T

   *** convergence criteria satisfied after 21 iterations ***

         #    Occupation            Energy/Eh            Energy/eV
      -------------------------------------------------------------
         1        2.0000           -0.8307670             -22.6063
       ...           ...                  ...                  ...
        62        2.0000           -0.4207727             -11.4498
        63        2.0000           -0.4143483             -11.2750
        64        2.0000           -0.4048366             -11.0162
        65        2.0000           -0.3995244             -10.8716
        66        2.0000           -0.3926324             -10.6841
        67        2.0000           -0.3790939             -10.3157
        68        1.3211           -0.2795104              -7.6059 (HOMO)
        69        0.6789           -0.2782455              -7.5714 (LUMO)
        70        0.0000           -0.2686793              -7.3111
        71                         -0.2400977              -6.5334
        72                         -0.1925263              -5.2389
        73                         -0.1527292              -4.1560
       ...                                ...                  ...
       136                          0.7408017              20.1582
      -------------------------------------------------------------
                  HL-Gap            0.0012649 Eh            0.0344 eV
             Fermi-level           -0.2788780 Eh           -7.5887 eV

 SCC (total)                   0 d,  0 h,  0 min,  0.201 sec
 SCC setup                      ...        0 min,  0.002 sec (  1.084%)
 Dispersion                     ...        0 min,  0.000 sec (  0.212%)
 classical contributions        ...        0 min,  0.000 sec (  0.071%)
 integral evaluation            ...        0 min,  0.035 sec ( 17.569%)
 iterations                     ...        0 min,  0.080 sec ( 39.917%)
 molecular gradient             ...        0 min,  0.082 sec ( 40.603%)
 printout                       ...        0 min,  0.001 sec (  0.516%)

         :::::::::::::::::::::::::::::::::::::::::::::::::::::
         ::                     SUMMARY                     ::
         :::::::::::::::::::::::::::::::::::::::::::::::::::::
         :: total energy             -83.812203704623 Eh    ::
         :: total w/o Gsasa/hb       -83.788576635163 Eh    ::
         :: gradient norm              0.143272849799 Eh/a0 ::
         :: HOMO-LUMO gap              0.034420371157 eV    ::
         ::.................................................::
         :: SCC energy               -84.564644292993 Eh    ::
         :: -> electrostatic           0.465174951615 Eh    ::
         :: -> Gsolv                  -0.122614364030 Eh    ::
         ::    -> Gelec               -0.098987294569 Eh    ::
         ::    -> Gsasa               -0.025232482305 Eh    ::
         ::    -> Ghb                 -0.006018866160 Eh    ::
         ::    -> Gshift               0.007624279005 Eh    ::
         :: repulsion energy           0.777812657058 Eh    ::
         :: dispersion energy         -0.025372068689 Eh    ::
         :: halogen bond corr.         0.000000000000 Eh    ::
         :: add. restraining           0.000000000000 Eh    ::
         :: total charge              -1.000000000000 e     ::
         :::::::::::::::::::::::::::::::::::::::::::::::::::::

      ----------------------------------------------------------- 
     |                   =====================                   |
     |                        A N C O P T                        |
     |                   =====================                   |
     |               Approximate Normal Coordinate               |
     |                Rational Function Optimizer                |
      ----------------------------------------------------------- 

          ...................................................
          :                      SETUP                      :
          :.................................................:
          :   optimization level            normal          :
          :   max. optcycles                   200          :
          :   ANC micro-cycles                  20          :
          :   degrees of freedom               123          :
          :.................................................:
          :   RF solver                   davidson          :
          :   write xtbopt.log                true          :
          :   linear?                        false          :
          :   energy convergence         0.5000000E-05 Eh   :
          :   grad. convergence          0.1000000E-02 Eh/α :
          :   maximium RF displ.         1.0000000          :
          :   Hlow (freq-cutoff)         0.1000000E-01      :
          :   Hmax (freq-cutoff)         5.0000000          :
          :   S6 in model hess.         20.0000000          :
          ...................................................

generating ANC from model Hessian ...
Using Lindh-Hessian (1995)
 Shifting diagonal of input Hessian by   9.834486793098259E-003
 Lowest  eigenvalues of input Hessian
    0.000000    0.000000    0.000000    0.000000    0.000000    0.000000
    0.010000    0.010169    0.010335    0.010730    0.011743    0.012293
    0.012744    0.014252    0.015145    0.015317    0.016001    0.017080
 Highest eigenvalues
    1.975541    2.054395    2.161938    2.231759    2.292139    2.411735
 

........................................................................
.............................. CYCLE    1 ..............................
........................................................................
   1    -84.5646443 -0.845646E+02  0.593E-06    0.03       0.0  T
   2    -84.5646443  0.528217E-10  0.245E-05    0.03     622.7  T
   3    -84.5646443  0.103384E-09  0.319E-05    0.03     478.4  T
     SCC iter.                  ...        0 min,  0.011 sec
     gradient                   ...        0 min,  0.082 sec
 * total energy  :   -83.8122037 Eh     change        0.1165290E-09 Eh
   gradient norm :     0.1432729 Eh/α   predicted     0.0000000E+00 (-100.00%)
   displ. norm   :     0.2298856 α      lambda       -0.1640140E-01
   maximum displ.:     0.0774829 α      in ANC's #31, #24, #26, ...

........................................................................
.............................. CYCLE    2 ..............................
........................................................................
   1    -84.5673125 -0.845673E+02  0.198E-01    0.04       0.0  T
   2    -84.4542266  0.113086E+00  0.867E-01    0.09       1.0  T
   3    -84.5115981 -0.573715E-01  0.672E-01    0.21       1.0  T
   4    -84.5609297 -0.493316E-01  0.240E-01    0.07       1.0  T
   5    -84.5698001 -0.887043E-02  0.388E-02    0.03       1.0  T
   6    -84.5697744  0.256897E-04  0.322E-02    0.03       1.0  T
   7    -84.5696488  0.125600E-03  0.439E-02    0.04       1.0  T
   8    -84.5699246 -0.275750E-03  0.458E-03    0.03       3.3  T
   9    -84.5699274 -0.280745E-05  0.161E-03    0.03       9.5  T
  10    -84.5699277 -0.340067E-06  0.491E-04    0.03      31.1  T
  11    -84.5699278 -0.294933E-07  0.624E-05    0.03     244.5  T
  12    -84.5699278 -0.380680E-09  0.289E-05    0.03     527.3  T
     SCC iter.                  ...        0 min,  0.043 sec
     gradient                   ...        0 min,  0.082 sec
 * total energy  :   -83.8242830 Eh     change       -0.1207933E-01 Eh
   gradient norm :     0.0719714 Eh/α   predicted    -0.8636764E-02 ( -28.50%)
   displ. norm   :     0.2561682 α      lambda       -0.8324265E-02
   maximum displ.:     0.0944642 α      in ANC's #31, #25, #24, ...

........................................................................
.............................. CYCLE    3 ..............................
........................................................................
   1    -84.5720152 -0.845720E+02  0.255E-01    0.06       0.0  T
   2    -84.3808932  0.191122E+00  0.117E+00    0.44       1.0  T
   3    -84.5639975 -0.183104E+00  0.331E-01    0.08       1.0  T
   4    -84.5636394  0.358136E-03  0.310E-01    0.01       1.0  T
   5    -84.5652282 -0.158879E-02  0.293E-01    0.08       1.0  T
   6    -84.5786792 -0.134510E-01  0.791E-03    0.03       1.9  T
   7    -84.5786664  0.127667E-04  0.939E-03    0.03       1.6  T
   8    -84.5786790 -0.125780E-04  0.217E-03    0.03       7.0  T
   9    -84.5786790  0.214079E-07  0.207E-03    0.03       7.4  T
  10    -84.5786796 -0.571058E-06  0.760E-04    0.03      20.1  T
  11    -84.5786796 -0.742446E-07  0.310E-04    0.03      49.2  T
  12    -84.5786796 -0.148435E-07  0.442E-05    0.03     345.2  T
  13    -84.5786796 -0.219686E-09  0.245E-05    0.03     623.1  T
     SCC iter.                  ...        0 min,  0.061 sec
     gradient                   ...        0 min,  0.078 sec
 * total energy  :   -83.8288189 Eh     change       -0.4535828E-02 Eh
   gradient norm :     0.0181087 Eh/α   predicted    -0.4436194E-02 (  -2.20%)
   displ. norm   :     0.1504120 α      lambda       -0.7145518E-03
   maximum displ.:     0.0672873 α      in ANC's #6, #7, #9, ...

........................................................................
.............................. CYCLE    4 ..............................
........................................................................
   1    -84.5785503 -0.845786E+02  0.927E-02    0.04       0.0  T
   2    -84.4032179  0.175332E+00  0.107E+00    0.19       1.0  T
   3    -84.5796220 -0.176404E+00  0.497E-02    0.03       1.0  T
   4    -84.5794877  0.134309E-03  0.429E-02    0.03       1.0  T
   5    -84.5797446 -0.256882E-03  0.110E-02    0.03       1.4  T
   6    -84.5797213  0.232752E-04  0.167E-02    0.03       1.0  T
   7    -84.5797631 -0.417809E-04  0.220E-03    0.03       6.9  T
   8    -84.5797638 -0.693856E-06  0.609E-04    0.03      25.0  T
   9    -84.5797638 -0.564711E-07  0.630E-05    0.03     241.9  T
  10    -84.5797638 -0.425288E-09  0.187E-05    0.03     813.4  T
     SCC iter.                  ...        0 min,  0.037 sec
     gradient                   ...        0 min,  0.078 sec
 * total energy  :   -83.8293934 Eh     change       -0.5745042E-03 Eh
   gradient norm :     0.0134994 Eh/α   predicted    -0.3659338E-03 ( -36.30%)
   displ. norm   :     0.2991926 α      lambda       -0.9242235E-03
   maximum displ.:     0.1509569 α      in ANC's #6, #7, #9, ...

........................................................................
.............................. CYCLE    5 ..............................
........................................................................
   1    -84.5758401 -0.845758E+02  0.179E-01    0.06       0.0  T
   2    -84.3800873  0.195753E+00  0.117E+00    0.41       1.0  T
   3    -84.5736274 -0.193540E+00  0.221E-01    0.01       1.0  T
   4    -84.5804671 -0.683970E-02  0.187E-02    0.03       1.0  T
   5    -84.5800931  0.374001E-03  0.517E-02    0.03       1.0  T
   6    -84.5795177  0.575431E-03  0.786E-02    0.05       1.0  T
   7    -84.5804243 -0.906641E-03  0.214E-02    0.03       1.0  T
   8    -84.5804936 -0.692720E-04  0.349E-03    0.04       4.4  T
   9    -84.5804955 -0.189846E-05  0.171E-04    0.03      89.2  T
  10    -84.5804955  0.156729E-07  0.357E-04    0.03      42.8  T
  11    -84.5804955 -0.192528E-07  0.569E-05    0.03     268.0  T
  12    -84.5804955 -0.503732E-09  0.928E-06    0.03    1644.0  T
     SCC iter.                  ...        0 min,  0.043 sec
     gradient                   ...        0 min,  0.053 sec
 * total energy  :   -83.8299619 Eh     change       -0.5685679E-03 Eh
   gradient norm :     0.0101131 Eh/α   predicted    -0.5035210E-03 ( -11.44%)
   displ. norm   :     0.1581696 α      lambda       -0.2287980E-03
   maximum displ.:     0.0949340 α      in ANC's #6, #7, #9, ...

........................................................................
.............................. CYCLE    6 ..............................
........................................................................
   1    -84.5803315 -0.845803E+02  0.831E-02    0.05       0.0  T
   2    -84.4049609  0.175371E+00  0.107E+00    0.18       1.0  T
   3    -84.5812008 -0.176240E+00  0.428E-02    0.03       1.0  T
   4    -84.5811842  0.165734E-04  0.348E-02    0.03       1.0  T
   5    -84.5813607 -0.176473E-03  0.759E-03    0.04       2.0  T
   6    -84.5813511  0.957906E-05  0.112E-02    0.03       1.4  T
   7    -84.5813690 -0.178672E-04  0.266E-03    0.03       5.7  T
   8    -84.5813701 -0.108600E-05  0.138E-04    0.04     110.6  T
   9    -84.5813701 -0.714948E-09  0.115E-04    0.04     132.6  T
  10    -84.5813701 -0.201555E-08  0.725E-06    0.04    2103.8  T
     SCC iter.                  ...        0 min,  0.037 sec
     gradient                   ...        0 min,  0.083 sec
 * total energy  :   -83.8301343 Eh     change       -0.1724030E-03 Eh
   gradient norm :     0.0073574 Eh/α   predicted    -0.1172647E-03 ( -31.98%)
   displ. norm   :     0.1993280 α      lambda       -0.2120967E-03
   maximum displ.:     0.1216764 α      in ANC's #6, #7, #9, ...

........................................................................
.............................. CYCLE    7 ..............................
........................................................................
   1    -84.5808408 -0.845808E+02  0.878E-02    0.05       0.0  T
   2    -84.3985974  0.182243E+00  0.109E+00    0.20       1.0  T
   3    -84.5815906 -0.182993E+00  0.575E-02    0.03       1.0  T
   4    -84.5819393 -0.348760E-03  0.263E-02    0.03       1.0  T
   5    -84.5820347 -0.953526E-04  0.796E-03    0.04       1.9  T
   6    -84.5820240  0.106728E-04  0.118E-02    0.03       1.3  T
   7    -84.5820449 -0.209161E-04  0.116E-03    0.04      13.1  T
   8    -84.5820451 -0.188489E-06  0.138E-04    0.04     110.6  T
   9    -84.5820451 -0.264841E-08  0.310E-05    0.04     491.6  T
     SCC iter.                  ...        0 min,  0.033 sec
     gradient                   ...        0 min,  0.081 sec
 * total energy  :   -83.8302749 Eh     change       -0.1405422E-03 Eh
   gradient norm :     0.0049206 Eh/α   predicted    -0.1102655E-03 ( -21.54%)
   displ. norm   :     0.1181324 α      lambda       -0.7396388E-04
   maximum displ.:     0.0694779 α      in ANC's #6, #9, #7, ...

........................................................................
.............................. CYCLE    8 ..............................
........................................................................
   1    -84.5820179 -0.845820E+02  0.445E-02    0.04       0.0  T
   2    -84.4702137  0.111804E+00  0.845E-01    0.09       1.0  T
   3    -84.5823121 -0.112098E+00  0.127E-02    0.03       1.2  T
   4    -84.5823351 -0.230522E-04  0.334E-03    0.04       4.6  T
   5    -84.5823349  0.245470E-06  0.287E-03    0.04       5.3  T
   6    -84.5823356 -0.697287E-06  0.170E-03    0.04       9.0  T
   7    -84.5823360 -0.428867E-06  0.682E-05    0.04     223.7  T
   8    -84.5823360 -0.626670E-09  0.115E-05    0.04    1321.7  T
     SCC iter.                  ...        0 min,  0.029 sec
     gradient                   ...        0 min,  0.081 sec
 * total energy  :   -83.8303266 Eh     change       -0.5167887E-04 Eh
   gradient norm :     0.0035635 Eh/α   predicted    -0.3750249E-04 ( -27.43%)
   displ. norm   :     0.0878980 α      lambda       -0.4422839E-04
   maximum displ.:     0.0458260 α      in ANC's #6, #1, #16, ...

........................................................................
.............................. CYCLE    9 ..............................
........................................................................
   1    -84.5826271 -0.845826E+02  0.276E-02    0.04       0.0  T
   2    -84.5363214  0.463058E-01  0.542E-01    0.04       1.0  T
   3    -84.5827282 -0.464069E-01  0.141E-02    0.04       1.1  T
   4    -84.5827399 -0.116833E-04  0.110E-03    0.04      13.9  T
   5    -84.5827399  0.127702E-07  0.103E-03    0.04      14.8  T
   6    -84.5827400 -0.736147E-07  0.213E-04    0.04      71.5  T
   7    -84.5827400 -0.133304E-08  0.288E-05    0.04     529.8  T
   8    -84.5827400 -0.139835E-10  0.119E-05    0.04    1278.2  T
     SCC iter.                  ...        0 min,  0.029 sec
     gradient                   ...        0 min,  0.082 sec
 * total energy  :   -83.8303572 Eh     change       -0.3060654E-04 Eh
   gradient norm :     0.0023924 Eh/α   predicted    -0.2228817E-04 ( -27.18%)
   displ. norm   :     0.0662536 α      lambda       -0.2487815E-04
   maximum displ.:     0.0310502 α      in ANC's #1, #6, #16, ...

........................................................................
.............................. CYCLE   10 ..............................
........................................................................
   1    -84.5828815 -0.845829E+02  0.169E-02    0.04       0.0  T
   2    -84.5693972  0.134843E-01  0.293E-01    0.01       1.0  T
   3    -84.5828952 -0.134980E-01  0.159E-02    0.04       1.0  T
   4    -84.5829185 -0.232926E-04  0.146E-03    0.04      10.4  T
   5    -84.5829186 -0.122986E-06  0.102E-03    0.04      15.0  T
   6    -84.5829187 -0.912217E-07  0.340E-04    0.04      44.9  T
   7    -84.5829187 -0.637181E-08  0.299E-05    0.04     509.6  T
   8    -84.5829187 -0.424620E-10  0.108E-05    0.04    1407.4  T
     SCC iter.                  ...        0 min,  0.029 sec
     gradient                   ...        0 min,  0.082 sec
 * total energy  :   -83.8303743 Eh     change       -0.1711585E-04 Eh
   gradient norm :     0.0016664 Eh/α   predicted    -0.1250477E-04 ( -26.94%)
   displ. norm   :     0.0732629 α      lambda       -0.1343323E-04
   maximum displ.:     0.0394922 α      in ANC's #1, #2, #5, ...

........................................................................
.............................. CYCLE   11 ..............................
........................................................................
   1    -84.5832068 -0.845832E+02  0.843E-03    0.04       0.0  T
   2    -84.5831609  0.458444E-04  0.195E-02    0.03       1.0  T
   3    -84.5824199  0.741002E-03  0.713E-02    0.05       1.0  T
   4    -84.5832107 -0.790783E-03  0.272E-03    0.04       5.6  T
   5    -84.5832116 -0.944086E-06  0.798E-04    0.04      19.1  T
   6    -84.5832116  0.641207E-07  0.743E-04    0.04      20.5  T
   7    -84.5832116 -0.769014E-07  0.325E-05    0.04     469.0  T
   8    -84.5832116 -0.232063E-10  0.148E-05    0.04    1029.8  T
     SCC iter.                  ...        0 min,  0.029 sec
     gradient                   ...        0 min,  0.082 sec
 * total energy  :   -83.8303853 Eh     change       -0.1099244E-04 Eh
   gradient norm :     0.0018361 Eh/α   predicted    -0.6745367E-05 ( -38.64%)
   displ. norm   :     0.0348214 α      lambda       -0.6036176E-05
   maximum displ.:     0.0210112 α      in ANC's #1, #2, #5, ...

........................................................................
.............................. CYCLE   12 ..............................
........................................................................
   1    -84.5829895 -0.845830E+02  0.550E-03    0.04       0.0  T
   2    -84.5829049  0.846693E-04  0.238E-02    0.04       1.0  T
   3    -84.5827589  0.145958E-03  0.390E-02    0.03       1.0  T
   4    -84.5829910 -0.232134E-03  0.225E-03    0.04       6.8  T
   5    -84.5829915 -0.424557E-06  0.138E-03    0.04      11.1  T
   6    -84.5829917 -0.259770E-06  0.159E-04    0.04      95.8  T
   7    -84.5829917 -0.303564E-08  0.353E-05    0.04     432.5  T
     SCC iter.                  ...        0 min,  0.027 sec
     gradient                   ...        0 min,  0.082 sec
 * total energy  :   -83.8303919 Eh     change       -0.6598367E-05 Eh
   gradient norm :     0.0012380 Eh/α   predicted    -0.3021629E-05 ( -54.21%)
   displ. norm   :     0.0730376 α      lambda       -0.9701201E-05
   maximum displ.:     0.0435038 α      in ANC's #1, #2, #12, ...

........................................................................
.............................. CYCLE   13 ..............................
........................................................................
   1    -84.5831163 -0.845831E+02  0.202E-02    0.03       0.0  T
   2    -84.5693274  0.137888E-01  0.298E-01    0.08       1.0  T
   3    -84.5831685 -0.138411E-01  0.106E-02    0.04       1.4  T
   4    -84.5831734 -0.486109E-05  0.336E-03    0.04       4.5  T
   5    -84.5831749 -0.154084E-05  0.720E-04    0.04      21.2  T
   6    -84.5831748  0.608963E-07  0.692E-04    0.04      22.0  T
   7    -84.5831749 -0.734476E-07  0.320E-05    0.04     476.9  T
   8    -84.5831749 -0.257785E-10  0.167E-05    0.04     912.3  T
     SCC iter.                  ...        0 min,  0.035 sec
     gradient                   ...        0 min,  0.081 sec
 * total energy  :   -83.8303999 Eh     change       -0.7999203E-05 Eh
   gradient norm :     0.0014891 Eh/α   predicted    -0.4865708E-05 ( -39.17%)
   displ. norm   :     0.0607273 α      lambda       -0.5063212E-05
   maximum displ.:     0.0381517 α      in ANC's #1, #2, #17, ...

........................................................................
.............................. CYCLE   14 ..............................
........................................................................
   1    -84.5829463 -0.845829E+02  0.322E-03    0.04       0.0  T
   2    -84.5828715  0.747349E-04  0.220E-02    0.04       1.0  T
   3    -84.5829168 -0.452350E-04  0.143E-02    0.03       1.1  T
   4    -84.5829468 -0.300344E-04  0.130E-03    0.04      11.7  T
   5    -84.5829470 -0.197573E-06  0.465E-04    0.04      32.8  T
   6    -84.5829470 -0.192776E-07  0.192E-04    0.04      79.4  T
   7    -84.5829470 -0.544864E-08  0.166E-05    0.04     920.7  T
     SCC iter.                  ...        0 min,  0.026 sec
     gradient                   ...        0 min,  0.082 sec
 * total energy  :   -83.8304057 Eh     change       -0.5860694E-05 Eh
   gradient norm :     0.0012343 Eh/α   predicted    -0.2542444E-05 ( -56.62%)
   displ. norm   :     0.0793578 α      lambda       -0.6155217E-05
   maximum displ.:     0.0520666 α      in ANC's #1, #2, #13, ...

........................................................................
.............................. CYCLE   15 ..............................
........................................................................
   1    -84.5829625 -0.845830E+02  0.406E-03    0.04       0.0  T
   2    -84.5820631  0.899345E-03  0.759E-02    0.05       1.0  T
   3    -84.5829648 -0.901705E-03  0.113E-03    0.04      13.5  T
   4    -84.5829649 -0.118974E-06  0.620E-04    0.04      24.6  T
   5    -84.5829650 -0.389872E-07  0.173E-04    0.04      88.2  T
   6    -84.5829650  0.587477E-09  0.963E-05    0.04     158.3  T
     SCC iter.                  ...        0 min,  0.015 sec
     gradient                   ...        0 min,  0.077 sec
 * total energy  :   -83.8304132 Eh     change       -0.7472820E-05 Eh
   gradient norm :     0.0010821 Eh/α   predicted    -0.3089921E-05 ( -58.65%)
   displ. norm   :     0.1105381 α      lambda       -0.7418411E-05
   maximum displ.:     0.0735457 α      in ANC's #1, #2, #13, ...

........................................................................
.............................. CYCLE   16 ..............................
........................................................................
   1    -84.5828418 -0.845828E+02  0.580E-03    0.04       0.0  T
   2    -84.5814066  0.143523E-02  0.960E-02    0.05       1.0  T
   3    -84.5828453 -0.143871E-02  0.348E-03    0.04       4.4  T
   4    -84.5828455 -0.249446E-06  0.234E-03    0.04       6.5  T
   5    -84.5828463 -0.799022E-06  0.417E-04    0.04      36.5  T
   6    -84.5828463 -0.724975E-08  0.269E-04    0.04      56.6  T
   7    -84.5828464 -0.100390E-07  0.640E-05    0.04     238.3  T
   8    -84.5828464 -0.550600E-09  0.908E-06    0.04    1680.3  T
     SCC iter.                  ...        0 min,  0.036 sec
     gradient                   ...        0 min,  0.083 sec
 * total energy  :   -83.8304220 Eh     change       -0.8811495E-05 Eh
   gradient norm :     0.0010770 Eh/α   predicted    -0.3731892E-05 ( -57.65%)
   displ. norm   :     0.1226095 α      lambda       -0.7359660E-05
   maximum displ.:     0.0825029 α      in ANC's #1, #2, #13, ...

........................................................................
.............................. CYCLE   17 ..............................
........................................................................
   1    -84.5829077 -0.845829E+02  0.128E-02    0.03       0.0  T
   2    -84.5755254  0.738232E-02  0.218E-01    0.07       1.0  T
   3    -84.5829314 -0.740599E-02  0.425E-03    0.04       3.6  T
   4    -84.5829300  0.136158E-05  0.427E-03    0.04       3.6  T
   5    -84.5829328 -0.271381E-05  0.615E-04    0.04      24.8  T
   6    -84.5829327  0.587390E-07  0.800E-04    0.04      19.1  T
   7    -84.5829328 -0.954653E-07  0.118E-04    0.04     129.2  T
   8    -84.5829328 -0.191243E-08  0.239E-05    0.04     639.1  T
     SCC iter.                  ...        0 min,  0.029 sec
     gradient                   ...        0 min,  0.082 sec
 * total energy  :   -83.8304308 Eh     change       -0.8739278E-05 Eh
   gradient norm :     0.0012508 Eh/α   predicted    -0.3705655E-05 ( -57.60%)
   displ. norm   :     0.1368482 α      lambda       -0.7854434E-05
   maximum displ.:     0.0920596 α      in ANC's #1, #2, #17, ...

........................................................................
.............................. CYCLE   18 ..............................
........................................................................
   1    -84.5827672 -0.845828E+02  0.104E-02    0.03       0.0  T
   2    -84.5776285  0.513861E-02  0.182E-01    0.06       1.0  T
   3    -84.5827831 -0.515457E-02  0.296E-03    0.04       5.2  T
   4    -84.5827824  0.756713E-06  0.292E-03    0.04       5.2  T
   5    -84.5827836 -0.123398E-05  0.577E-04    0.04      26.4  T
   6    -84.5827836 -0.690036E-09  0.479E-04    0.04      31.9  T
   7    -84.5827836 -0.342916E-07  0.681E-05    0.04     224.1  T
   8    -84.5827836 -0.606491E-09  0.704E-06    0.04    2167.6  T
     SCC iter.                  ...        0 min,  0.027 sec
     gradient                   ...        0 min,  0.073 sec
 * total energy  :   -83.8304404 Eh     change       -0.9691121E-05 Eh
   gradient norm :     0.0011173 Eh/α   predicted    -0.3962801E-05 ( -59.11%)
   displ. norm   :     0.1753317 α      lambda       -0.9758675E-05
   maximum displ.:     0.1169973 α      in ANC's #1, #2, #17, ...

........................................................................
.............................. CYCLE   19 ..............................
........................................................................
   1    -84.5827977 -0.845828E+02  0.106E-02    0.03       0.0  T
   2    -84.5772785  0.551915E-02  0.188E-01    0.06       1.0  T
   3    -84.5828148 -0.553629E-02  0.194E-03    0.04       7.9  T
   4    -84.5828147  0.841996E-07  0.186E-03    0.04       8.2  T
   5    -84.5828151 -0.433589E-06  0.489E-04    0.04      31.2  T
   6    -84.5828151  0.773881E-09  0.389E-04    0.04      39.2  T
   7    -84.5828152 -0.226484E-07  0.481E-05    0.04     317.2  T
   8    -84.5828152 -0.228980E-09  0.157E-05    0.04     970.7  T
     SCC iter.                  ...        0 min,  0.030 sec
     gradient                   ...        0 min,  0.082 sec
 * total energy  :   -83.8304520 Eh     change       -0.1155307E-04 Eh
   gradient norm :     0.0011423 Eh/α   predicted    -0.4948218E-05 ( -57.17%)
   displ. norm   :     0.1884123 α      lambda       -0.9475174E-05
   maximum displ.:     0.1265543 α      in ANC's #1, #2, #17, ...

........................................................................
.............................. CYCLE   20 ..............................
........................................................................
   1    -84.5827478 -0.845827E+02  0.235E-03    0.04       0.0  T
   2    -84.5826646  0.832019E-04  0.231E-02    0.04       1.0  T
   3    -84.5827442 -0.796504E-04  0.530E-03    0.04       2.9  T
   4    -84.5827481 -0.385312E-05  0.940E-04    0.04      16.2  T
   5    -84.5827482 -0.911363E-07  0.337E-04    0.04      45.3  T
   6    -84.5827482 -0.112440E-07  0.105E-04    0.04     145.1  T
   7    -84.5827482 -0.136632E-08  0.316E-05    0.04     482.7  T
     SCC iter.                  ...        0 min,  0.026 sec
     gradient                   ...        0 min,  0.082 sec
 * total energy  :   -83.8304629 Eh     change       -0.1086379E-04 Eh
   gradient norm :     0.0010659 Eh/α   predicted    -0.4814899E-05 ( -55.68%)
   displ. norm   :     0.1480162 α      lambda       -0.6457221E-05
   maximum displ.:     0.1010954 α      in ANC's #1, #2, #17, ...
 * RMSD in coord.:     0.2909849 α      energy gain  -0.1825916E-01 Eh

generating ANC from model Hessian ...
Using Lindh-Hessian (1995)
 Shifting diagonal of input Hessian by   9.820166649216486E-003
 Lowest  eigenvalues of input Hessian
    0.000000    0.000000    0.000000    0.000000    0.000000    0.000000
    0.010000    0.010187    0.010323    0.010744    0.011791    0.012223
    0.012874    0.014092    0.015190    0.015421    0.016069    0.017262
 Highest eigenvalues
    2.101830    2.142587    2.161211    2.231948    2.273788    2.360331
 

........................................................................
.............................. CYCLE   21 ..............................
........................................................................
   1    -84.5828920 -0.845829E+02  0.702E-03    0.04       0.0  T
   2    -84.5801168  0.277523E-02  0.133E-01    0.02       1.0  T
   3    -84.5828983 -0.278150E-02  0.349E-03    0.04       4.4  T
   4    -84.5828982  0.107684E-06  0.249E-03    0.04       6.1  T
   5    -84.5828990 -0.837768E-06  0.778E-04    0.04      19.6  T
   6    -84.5828991 -0.743593E-07  0.194E-04    0.04      78.7  T
   7    -84.5828991 -0.466174E-08  0.664E-05    0.04     229.5  T
     SCC iter.                  ...        0 min,  0.026 sec
     gradient                   ...        0 min,  0.082 sec
 * total energy  :   -83.8304700 Eh     change       -0.7176821E-05 Eh
   gradient norm :     0.0008365 Eh/α   predicted     0.0000000E+00 (-100.00%)
   displ. norm   :     0.0126626 α      lambda       -0.2004758E-05
   maximum displ.:     0.0070834 α      in ANC's #18, #1, #11, ...

........................................................................
.............................. CYCLE   22 ..............................
........................................................................
   1    -84.5830310 -0.845830E+02  0.298E-03    0.04       0.0  T
   2    -84.5825473  0.483628E-03  0.556E-02    0.03       1.0  T
   3    -84.5830318 -0.484498E-03  0.172E-03    0.04       8.9  T
   4    -84.5830322 -0.371851E-06  0.285E-04    0.04      53.5  T
   5    -84.5830322 -0.189064E-08  0.154E-04    0.04      99.2  T
   6    -84.5830322  0.345977E-09  0.690E-05    0.04     221.1  T
     SCC iter.                  ...        0 min,  0.023 sec
     gradient                   ...        0 min,  0.082 sec
 * total energy  :   -83.8304725 Eh     change       -0.2507524E-05 Eh
   gradient norm :     0.0003530 Eh/α   predicted    -0.1060993E-05 ( -57.69%)
   displ. norm   :     0.0366928 α      lambda       -0.3689847E-05
   maximum displ.:     0.0222645 α      in ANC's #18, #1, #11, ...

   *** GEOMETRY OPTIMIZATION CONVERGED AFTER 22 ITERATIONS ***

------------------------------------------------------------------------
 total energy gain   :        -0.0182688 Eh      -11.4639 kcal/mol
 total RMSD          :         0.2915100 a0        0.1543 Å
 total power (kW/mol):        -2.1802198 (step)  -14.4155 (real)
------------------------------------------------------------------------

 ANCopt (total)                0 d,  0 h,  0 min,  3.327 sec
 optimizer setup                ...        0 min,  0.001 sec (  0.027%)
 model hessian                  ...        0 min,  0.053 sec (  1.593%)
 ANC generation                 ...        0 min,  0.005 sec (  0.156%)
 coordinate transformation      ...        0 min,  0.001 sec (  0.028%)
 single point calculation       ...        0 min,  3.254 sec ( 97.784%)
 optimization log               ...        0 min,  0.007 sec (  0.224%)
 hessian update                 ...        0 min,  0.001 sec (  0.024%)
 rational function              ...        0 min,  0.003 sec (  0.093%)

================
 final structure:
================
43
 xtb: 6.5.1 (579679a)
C            6.10127083764975       -2.32714124362102       -0.35490392234739
O            4.88278150068488       -1.59801303296253       -0.34250953857549
C            4.84560496705815       -0.53091911591238        0.51264831648538
O            5.83126198272256       -0.25781588166214        1.22241974767232
C            3.61747921706924        0.20567617707562        0.50097989176477
N            2.60469235637805       -0.21967302474340       -0.34526667333760
C            1.49987210499717        0.43957446097293       -0.37341628210928
C            0.39941238328408        0.04233174853278       -1.34270127842276
C            0.49388764822388       -1.45979031805624       -1.64765549860769
C            0.61871248138307        0.87298183109349       -2.61952311192817
N           -0.87684087198083        0.38876449793987       -0.71373199031495
C           -2.09400458484902        0.04940629074635       -1.38440788258518
O           -2.15233524694158       -0.12203633432473       -2.63036720244985
C           -3.19590262519600       -0.00284942057817       -0.53145699933222
N           -4.51475744564319       -0.24482062775961       -0.84926991654134
N           -5.14208765299951       -0.19863552458170        0.32401638259865
C           -6.56981713586999       -0.41013681353287        0.36981688330223
C           -4.33893448048496        0.04060209394198        1.33654352727107
C           -4.68276684449650        0.16901811499630        2.77155486363738
O           -3.07573324227754        0.18245593978827        0.88234826486242
N            1.28679719249982        1.56110199527085        0.37880154491756
C            2.22669148260578        2.08764595027038        1.28364102490376
O            1.93288445867011        3.10394372908143        1.93208209452565
C            3.44006545429978        1.34333774363446        1.31610258287719
O            4.42541307361000        1.77085694930353        2.15714041939180
H            5.97285585446132       -3.15187683457816       -1.05545376497241
H            6.33003879645714       -2.72018728284075        0.64098912433779
H            6.93094346917665       -1.69126961645380       -0.68118531343615
H            0.30482683842304       -2.03616371803446       -0.74250963763662
H            1.49447410969773       -1.69620528097602       -2.00928726133812
H           -0.23583311188728       -1.73697651596162       -2.40687852992729
H           -0.09113351580436        0.58812418734699       -3.39368180706288
H            1.63055759093289        0.70597946354848       -2.98912065896879
H            0.49465900411406        1.93240091642472       -2.39703014203016
H           -0.90788652663711        0.08572143606189        0.25299467548343
H           -6.95251369411353       -0.34756089869481       -0.64613923001317
H           -6.78302410569926       -1.39387410750419        0.78635442474630
H           -7.02985926818935        0.35361471115293        0.99345388115394
H           -5.39667600396102        0.97939340714551        2.92706464984710
H           -5.13460148857695       -0.75025765658040        3.14654852229181
H           -3.77705957757859        0.37780799641793        3.33717583571465
H            0.39285692173192        2.02640271548859        0.32638825305278
H            5.19372969705778        1.15569889312430        2.05743473109963
 
 Bond Distances (Angstroems)
 ---------------------------
C1-O2=1.4200         C1-H26=1.0897        C1-H27=1.0948        C1-H28=1.0951        O2-C1=1.4200         O2-C3=1.3680         
C3-O2=1.3680         C3-O4=1.2449         C3-C5=1.4321         O4-C3=1.2449         C5-C3=1.4321         C5-N6=1.3866         
C5-C24=1.4107        N6-C5=1.3866         N6-C7=1.2869         C7-N6=1.2869         C7-C8=1.5193         C7-N21=1.3671        
C8-C7=1.5193         C8-C9=1.5357         C8-C10=1.5389        C8-N11=1.4644        C9-C8=1.5357         C9-H29=1.0896        
C9-H30=1.0899        C9-H31=1.0889        C10-C8=1.5389        C10-H32=1.0883       C10-H33=1.0901       C10-H34=1.0896       
N11-C8=1.4644        N11-C12=1.4305       N11-H35=1.0136       C12-N11=1.4305       C12-O13=1.2591       C12-C14=1.3944       
O13-C12=1.2591       C14-C12=1.3944       C14-N15=1.3780       C14-O20=1.4310       N15-C14=1.3780       N15-N16=1.3313       
N16-N15=1.3313       N16-C17=1.4440       N16-C18=1.3143       C17-N16=1.4440       C17-H36=1.0874       C17-H37=1.0894       
C17-H38=1.0881       C18-N16=1.3143       C18-C19=1.4812       C18-O20=1.3498       C19-C18=1.4812       C19-H39=1.0911       
C19-H40=1.0908       C19-H41=1.0880       O20-C14=1.4310       O20-C18=1.3498       N21-C7=1.3671        N21-C22=1.4069       
N21-H42=1.0091       C22-N21=1.4069       C22-O23=1.2408       C22-C24=1.4238       O23-C22=1.2408       C24-C5=1.4107        
C24-C22=1.4238       C24-O25=1.3642       O25-C24=1.3642       O25-H43=0.9893       H26-C1=1.0897        H27-C1=1.0948        
H28-C1=1.0951        H29-C9=1.0896        H30-C9=1.0899        H31-C9=1.0889        H32-C10=1.0883       H33-C10=1.0901       
H34-C10=1.0896       H35-N11=1.0136       H36-C17=1.0874       H37-C17=1.0894       H38-C17=1.0881       H39-C19=1.0911       
H40-C19=1.0908       H41-C19=1.0880       H42-N21=1.0091       H43-O25=0.9893       
 C  H  Rav=1.0901 sigma=0.0022  Rmin=1.0874  Rmax=1.0951    15
 C  C  Rav=1.4670 sigma=0.0552  Rmin=1.3944  Rmax=1.5389     8
 N  H  Rav=1.0114 sigma=0.0022  Rmin=1.0091  Rmax=1.0136     2
 N  C  Rav=1.3865 sigma=0.0551  Rmin=1.2869  Rmax=1.4644     9
 N  N  Rav=1.3313 sigma=0.0000  Rmin=1.3313  Rmax=1.3313     1
 O  H  Rav=0.9893 sigma=0.0000  Rmin=0.9893  Rmax=0.9893     1
 O  C  Rav=1.3347 sigma=0.0719  Rmin=1.2408  Rmax=1.4310     8
 
 selected bond angles (degree)
 --------------------
H26-C1-O2=107.04               H27-C1-O2=110.84               H27-C1-H26=109.74              H28-C1-O2=110.77               
H28-C1-H26=109.71              H28-C1-H27=108.73              C3-O2-C1=115.42                O4-C3-O2=120.40                
C5-C3-O2=114.80                C5-C3-O4=124.80                N6-C5-C3=118.26                C24-C5-C3=121.19               
C24-C5-N6=120.54               C7-N6-C5=118.90                C8-C7-N6=120.12                N21-C7-N6=122.82               
N21-C7-C8=116.91               C9-C8-C7=109.75                C10-C8-C7=106.56               C10-C8-C9=110.76               
N11-C8-C7=107.18               N11-C8-C9=111.73               N11-C8-C10=110.66              H29-C9-C8=109.99               
H30-C9-C8=109.55               H30-C9-H29=108.67              H31-C9-C8=110.26               H31-C9-H29=109.16              
H31-C9-H30=109.19              H32-C10-C8=110.85              H33-C10-C8=109.32              H33-C10-H32=108.91             
H34-C10-C8=109.83              H34-C10-H32=109.00             H34-C10-H33=108.90             
 
 selected dihedral angles (degree)
 ---------------------------------
C3-O2-C1-H26=178.57           C3-O2-C1-H27= 58.93           C3-O2-C1-H28=298.14           O4-C3-O2-C1=359.46            
C5-C3-O2-C1=179.18            N6-C5-C3-O2=  0.31            N6-C5-C3-O4=180.01            C24-C5-C3-O2=180.95           
C24-C5-C3-O4=  0.65           C7-N6-C5-C3=180.55            C7-N6-C5-C24=359.91           C8-C7-N6-C5=176.78            
N21-C7-N6-C5=  1.26           C9-C8-C7-N6= 27.95            C9-C8-C7-N21=203.72           C10-C8-C7-N6=267.97           
C10-C8-C7-N21= 83.75          N11-C8-C7-N6=149.47           N11-C8-C7-N21=325.24          H29-C9-C8-C7= 64.45           
H29-C9-C8-C10=181.83          H29-C9-C8-N11=305.70          H30-C9-C8-C7=305.07           H30-C9-C8-C10= 62.45          
H30-C9-C8-N11=186.32          H31-C9-C8-C7=184.89           H31-C9-C8-C10=302.26          H31-C9-C8-N11= 66.14          
H32-C10-C8-C7=175.74          H32-C10-C8-C9= 56.42          H32-C10-C8-N11=291.93         H33-C10-C8-C7= 55.66          
H33-C10-C8-C9=296.34          H33-C10-C8-N11=171.86         H34-C10-C8-C7=296.24          H34-C10-C8-C9=176.92          
H34-C10-C8-N11= 52.44         
           -------------------------------------------------
          |                Final Singlepoint                |
           -------------------------------------------------

          ...................................................
          :                      SETUP                      :
          :.................................................:
          :  # basis functions                 136          :
          :  # atomic orbitals                 136          :
          :  # shells                           86          :
          :  # electrons                       136          :
          :  # halogen bonds                     0          :
          :  max. iterations                   250          :
          :  Hamiltonian                  GFN1-xTB          :
          :  restarted?                      false          :
          :  GBSA solvation                   true          :
          :  PC potential                    false          :
          :  electronic temp.          300.0000000     K    :
          :  accuracy                    1.0000000          :
          :  -> integral cutoff          0.2500000E+02      :
          :  -> integral neglect         0.1000000E-07      :
          :  -> SCF convergence          0.1000000E-05 Eh   :
          :  -> wf. convergence          0.2000000E-04 e    :
          :  Broyden damping             0.4000000          :
          ...................................................

 iter      E             dE          RMSdq      gap      omega  full diag
   1    -84.5830322 -0.845830E+02  0.799E-06    0.04       0.0  T
   2    -84.5830322  0.179705E-08  0.107E-04    0.04     142.3  T
   3    -84.5830322 -0.180138E-08  0.337E-06    0.04    4520.1  T

   *** convergence criteria satisfied after 3 iterations ***

         #    Occupation            Energy/Eh            Energy/eV
      -------------------------------------------------------------
         1        2.0000           -0.8397227             -22.8500
       ...           ...                  ...                  ...
        62        2.0000           -0.4198182             -11.4238
        63        2.0000           -0.4134370             -11.2502
        64        2.0000           -0.4061545             -11.0520
        65        2.0000           -0.4024301             -10.9507
        66        2.0000           -0.3898299             -10.6078
        67        2.0000           -0.3819721             -10.3940
        68        1.3383           -0.2908010              -7.9131 (HOMO)
        69        0.6617           -0.2894628              -7.8767 (LUMO)
        70                         -0.2610834              -7.1044
        71                         -0.2360842              -6.4242
        72                         -0.1942004              -5.2845
        73                         -0.1533834              -4.1738
       ...                                ...                  ...
       136                          0.7066939              19.2301
      -------------------------------------------------------------
                  HL-Gap            0.0013382 Eh            0.0364 eV
             Fermi-level           -0.2901319 Eh           -7.8949 eV

 SCC (total)                   0 d,  0 h,  0 min,  0.132 sec
 SCC setup                      ...        0 min,  0.002 sec (  1.498%)
 Dispersion                     ...        0 min,  0.000 sec (  0.280%)
 classical contributions        ...        0 min,  0.000 sec (  0.090%)
 integral evaluation            ...        0 min,  0.034 sec ( 25.943%)
 iterations                     ...        0 min,  0.012 sec (  9.111%)
 molecular gradient             ...        0 min,  0.082 sec ( 62.266%)
 printout                       ...        0 min,  0.001 sec (  0.766%)

         :::::::::::::::::::::::::::::::::::::::::::::::::::::
         ::                     SUMMARY                     ::
         :::::::::::::::::::::::::::::::::::::::::::::::::::::
         :: total energy             -83.830472546099 Eh    ::
         :: total w/o Gsasa/hb       -83.806868295515 Eh    ::
         :: gradient norm              0.000359870916 Eh/a0 ::
         :: HOMO-LUMO gap              0.036415348054 eV    ::
         ::.................................................::
         :: SCC energy               -84.583032210642 Eh    ::
         :: -> electrostatic           0.479084630105 Eh    ::
         :: -> Gsolv                  -0.124986902704 Eh    ::
         ::    -> Gelec               -0.101382652120 Eh    ::
         ::    -> Gsasa               -0.025223225429 Eh    ::
         ::    -> Ghb                 -0.006005304159 Eh    ::
         ::    -> Gshift               0.007624279005 Eh    ::
         :: repulsion energy           0.778075476368 Eh    ::
         :: dispersion energy         -0.025515811825 Eh    ::
         :: halogen bond corr.         0.000000000000 Eh    ::
         :: add. restraining           0.000000000000 Eh    ::
         :: total charge              -1.000000000000 e     ::
         :::::::::::::::::::::::::::::::::::::::::::::::::::::

           -------------------------------------------------
          |                Property Printout                |
           -------------------------------------------------

    * Orbital Energies and Occupations

         #    Occupation            Energy/Eh            Energy/eV
      -------------------------------------------------------------
         1        2.0000           -0.8397227             -22.8500
       ...           ...                  ...                  ...
        56        2.0000           -0.4717079             -12.8358
        57        2.0000           -0.4648715             -12.6498
        58        2.0000           -0.4632754             -12.6064
        59        2.0000           -0.4474527             -12.1758
        60        2.0000           -0.4398748             -11.9696
        61        2.0000           -0.4360420             -11.8653
        62        2.0000           -0.4198182             -11.4238
        63        2.0000           -0.4134370             -11.2502
        64        2.0000           -0.4061545             -11.0520
        65        2.0000           -0.4024301             -10.9507
        66        2.0000           -0.3898299             -10.6078
        67        2.0000           -0.3819721             -10.3940
        68        1.3383           -0.2908010              -7.9131 (HOMO)
        69        0.6617           -0.2894628              -7.8767 (LUMO)
        70                         -0.2610834              -7.1044
        71                         -0.2360842              -6.4242
        72                         -0.1942004              -5.2845
        73                         -0.1533834              -4.1738
        74                         -0.1475836              -4.0160
        75                         -0.1387289              -3.7750
        76                         -0.1201319              -3.2690
        77                         -0.1105833              -3.0091
        78                         -0.1023758              -2.7858
        79                         -0.0991463              -2.6979
       ...                                ...                  ...
       136                          0.7066939              19.2301
      -------------------------------------------------------------
                  HL-Gap            0.0013382 Eh            0.0364 eV
             Fermi-level           -0.2901319 Eh           -7.8949 eV

  Mulliken/CM5 charges         n(s)   n(p)   n(d)
     1C     0.17328  0.05399   0.971  2.856  0.000
     2O    -0.44524 -0.52592   1.692  4.753  0.000
     3C     0.51017  0.56972   0.967  2.522  0.000
     4O    -0.64143 -0.70757   1.739  4.903  0.000
     5C     0.01933  0.09260   1.035  2.945  0.000
     6N    -0.40531 -0.58851   1.535  3.870  0.000
     7C     0.26688  0.41814   1.018  2.715  0.000
     8C     0.15707  0.19694   1.061  2.782  0.000
     9C    -0.09550 -0.23421   1.014  3.082  0.000
    10C    -0.08997 -0.22897   1.014  3.076  0.000
    11N    -0.42031 -0.76021   1.466  3.954  0.000
    12C     0.37480  0.46665   0.969  2.657  0.000
    13O    -0.68766 -0.73126   1.746  4.941  0.000
    14C     0.21927  0.32510   1.000  2.781  0.000
    15N    -0.35657 -0.45522   1.574  3.783  0.000
    16N     0.00810 -0.19287   1.419  3.573  0.000
    17C     0.02898 -0.05213   0.992  2.979  0.000
    18C     0.32171  0.42317   0.983  2.695  0.000
    19C    -0.11038 -0.24854   1.012  3.098  0.000
    20O    -0.41502 -0.46792   1.707  4.708  0.000
    21N    -0.32879 -0.66988   1.437  3.892  0.000
    22C     0.41092  0.50747   0.979  2.610  0.000
    23O    -0.65341 -0.69007   1.739  4.914  0.000
    24C     0.16875  0.20090   1.022  2.809  0.000
    25O    -0.55401 -0.73866   1.708  4.846  0.000
    26H     0.03181  0.09200   0.968  0.000  0.000
    27H     0.03449  0.09633   0.966  0.000  0.000
    28H     0.03336  0.09481   0.967  0.000  0.000
    29H     0.02599  0.08306   0.974  0.000  0.000
    30H     0.02651  0.08503   0.973  0.000  0.000
    31H     0.03987  0.09882   0.960  0.000  0.000
    32H     0.04705  0.10807   0.953  0.000  0.000
    33H     0.02135  0.07683   0.979  0.000  0.000
    34H     0.02537  0.08323   0.975  0.000  0.000
    35H     0.21431  0.42077   0.786  0.000  0.000
    36H     0.07403  0.14138   0.926  0.000  0.000
    37H     0.06706  0.13000   0.933  0.000  0.000
    38H     0.06272  0.12610   0.937  0.000  0.000
    39H     0.06657  0.12081   0.933  0.000  0.000
    40H     0.06663  0.12085   0.933  0.000  0.000
    41H     0.07844  0.13419   0.922  0.000  0.000
    42H     0.24939  0.45592   0.751  0.000  0.000
    43H     0.37938  0.56909   0.621  0.000  0.000

Wiberg/Mayer (AO) data.
largest (>0.10) Wiberg bond orders for each atom

 ---------------------------------------------------------------------------
     #   Z sym  total        # sym  WBO       # sym  WBO       # sym  WBO
 ---------------------------------------------------------------------------
     1   6 C    3.898 --    26 H    0.987    28 H    0.980    27 H    0.980
                             2 O    0.927
     2   8 O    2.108 --     3 C    1.021     1 C    0.927
     3   6 C    3.726 --     4 O    1.470     5 C    1.166     2 O    1.021
     4   8 O    1.785 --     3 C    1.470
     5   6 C    3.824 --    24 C    1.298     3 C    1.166     6 N    1.135
     6   7 N    2.995 --     7 C    1.610     5 C    1.135
     7   6 C    3.912 --     6 N    1.610    21 N    1.154     8 C    0.976
     8   6 C    3.957 --     9 C    0.988    10 C    0.980     7 C    0.976
                            11 N    0.956
     9   6 C    3.993 --     8 C    0.988    29 H    0.987    30 H    0.984
                            31 H    0.984
    10   6 C    3.991 --    33 H    0.988    34 H    0.987     8 C    0.980
                            32 H    0.977
    11   7 N    3.093 --    12 C    1.009     8 C    0.956    35 H    0.926
    12   6 C    3.804 --    13 O    1.395    14 C    1.302    11 N    1.009
    13   8 O    1.653 --    12 C    1.395
    14   6 C    3.563 --    12 C    1.302    15 N    1.200    20 O    0.880
    15   7 N    2.689 --    14 C    1.200    16 N    1.171    18 C    0.200
    16   7 N    3.638 --    18 C    1.398    15 N    1.171    17 C    0.940
    17   6 C    3.936 --    36 H    0.983    38 H    0.981    37 H    0.976
                            16 N    0.940
    18   6 C    3.772 --    16 N    1.398    20 O    1.067    19 C    1.029
                            15 N    0.200
    19   6 C    3.987 --    18 C    1.029    41 H    0.980    40 H    0.967
                            39 H    0.966
    20   8 O    2.115 --    18 C    1.067    14 C    0.880
    21   7 N    3.330 --     7 C    1.154    22 C    1.037    42 H    0.895
    22   6 C    3.825 --    23 O    1.486    24 C    1.196    21 N    1.037
    23   8 O    1.739 --    22 C    1.486
    24   6 C    3.726 --     5 C    1.298    22 C    1.196    25 O    1.052
    25   8 O    1.979 --    24 C    1.052    43 H    0.788
    26   1 H    1.016 --     1 C    0.987
    27   1 H    1.013 --     1 C    0.980
    28   1 H    1.012 --     1 C    0.980
    29   1 H    1.007 --     9 C    0.987
    30   1 H    1.018 --     9 C    0.984
    31   1 H    1.015 --     9 C    0.984
    32   1 H    1.024 --    10 C    0.977
    33   1 H    1.008 --    10 C    0.988
    34   1 H    1.008 --    10 C    0.987
    35   1 H    0.966 --    11 N    0.926
    36   1 H    1.006 --    17 C    0.983
    37   1 H    0.999 --    17 C    0.976
    38   1 H    0.999 --    17 C    0.981
    39   1 H    0.996 --    19 C    0.966
    40   1 H    0.996 --    19 C    0.967
    41   1 H    0.997 --    19 C    0.980
    42   1 H    0.956 --    21 N    0.895
    43   1 H    0.879 --    25 O    0.788
 ---------------------------------------------------------------------------

Topologies differ in total number of bonds
Writing topology from bond orders to xtbtopo.mol

 dipole moment from electron density (au)
     X       Y       Z   
  -6.3019  -2.9277   1.9707  total (Debye):   18.358

           -------------------------------------------------
          |                Geometry Summary                 |
           -------------------------------------------------

      molecular mass/u    :      352.3231817
   center of mass at/Å    :        0.3326677       0.1877721       0.0875016
  moments of inertia/u·Å² :        0.1198176E+04   0.5297460E+04   0.5819035E+04
rotational constants/cm⁻¹ :        0.1406941E-01   0.3182210E-02   0.2896981E-02

 * 39 selected distances

     #   Z          #   Z                                           value/Å
     1   6 C        2   8 O                                       1.4200346
     2   8 O        3   6 C                                       1.3679791
     3   6 C        4   8 O                                       1.2449421
     3   6 C        5   6 C                                       1.4321320
     6   7 N        7   6 C                                       1.2868674
     8   6 C        9   6 C                                       1.5356737
     8   6 C       10   6 C                                       1.5389433 (max)
     8   6 C       11   7 N                                       1.4643909
    12   6 C       14   6 C                                       1.3944302
    14   6 C       15   7 N                                       1.3780180
    15   7 N       16   7 N                                       1.3312691
    16   7 N       17   6 C                                       1.4440368
    16   7 N       18   6 C                                       1.3143444
    18   6 C       19   6 C                                       1.4812054
    18   6 C       20   8 O                                       1.3498495
     7   6 C       21   7 N                                       1.3671346
    21   7 N       22   6 C                                       1.4069061
    22   6 C       23   8 O                                       1.2408303
     5   6 C       24   6 C                                       1.4107356
    22   6 C       24   6 C                                       1.4238417
    24   6 C       25   8 O                                       1.3641949
     1   6 C       26   1 H                                       1.0897016
     1   6 C       27   1 H                                       1.0948165
     1   6 C       28   1 H                                       1.0950567
     9   6 C       29   1 H                                       1.0896052
     9   6 C       30   1 H                                       1.0898821
     9   6 C       31   1 H                                       1.0889189
    10   6 C       32   1 H                                       1.0882771
    10   6 C       33   1 H                                       1.0901022
    10   6 C       34   1 H                                       1.0896153
    11   7 N       35   1 H                                       1.0135875
    17   6 C       36   1 H                                       1.0874463
    17   6 C       37   1 H                                       1.0893576
    17   6 C       38   1 H                                       1.0880618
    19   6 C       39   1 H                                       1.0911269
    19   6 C       40   1 H                                       1.0907992
    19   6 C       41   1 H                                       1.0880378
    21   7 N       42   1 H                                       1.0091488
    25   8 O       43   1 H                                       0.9892782 (min)

 * 7 distinct bonds (by element types)

   Z      Z             #   av. dist./Å        max./Å        min./Å
   1 H    6 C          15     1.0900537     1.0950567     1.0874463
   6 C    6 C           7     1.4595660     1.5389433     1.3944302
   1 H    7 N           2     1.0113681     1.0135875     1.0091488
   6 C    7 N           7     1.3802426     1.4643909     1.2868674
   7 N    7 N           1     1.3312691     1.3312691     1.3312691
   1 H    8 O           1     0.9892782     0.9892782     0.9892782
   6 C    8 O           6     1.3313051     1.4200346     1.2408303


optimized geometry written to: xtbopt.xyz


           -------------------------------------------------
          | TOTAL ENERGY              -83.830472546099 Eh   |
          | GRADIENT NORM               0.000359870916 Eh/α |
          | HOMO-LUMO GAP               0.036415348054 eV   |
           -------------------------------------------------

------------------------------------------------------------------------
 * finished run on 2023/06/20 at 15:10:39.166     
------------------------------------------------------------------------
 total:
 * wall-time:     0 d,  0 h,  0 min,  3.778 sec
 *  cpu-time:     0 d,  0 h,  0 min,  3.706 sec
 * ratio c/w:     0.981 speedup
 SCF:
 * wall-time:     0 d,  0 h,  0 min,  0.202 sec
 *  cpu-time:     0 d,  0 h,  0 min,  0.201 sec
 * ratio c/w:     0.996 speedup
 ANC optimizer:
 * wall-time:     0 d,  0 h,  0 min,  3.465 sec
 *  cpu-time:     0 d,  0 h,  0 min,  3.454 sec
 * ratio c/w:     0.997 speedup

