      -----------------------------------------------------------      
     |                   =====================                   |     
     |                           x T B                           |     
     |                   =====================                   |     
     |                         S. Grimme                         |     
     |          Mulliken Center for Theoretical Chemistry        |     
     |                    University of Bonn                     |     
      -----------------------------------------------------------      

   * xtb version 6.5.1 (579679a) compiled by 'ehlert@majestix' on 2022-07-11

   xtb is free software: you can redistribute it and/or modify it under
   the terms of the GNU Lesser General Public License as published by
   the Free Software Foundation, either version 3 of the License, or
   (at your option) any later version.
   
   xtb is distributed in the hope that it will be useful,
   but WITHOUT ANY WARRANTY; without even the implied warranty of
   MERCHANTABILITY or FITNESS FOR A PARTICULAR PURPOSE.  See the
   GNU Lesser General Public License for more details.
   
   Cite this work as:
   * C. Bannwarth, E. Caldeweyher, S. Ehlert, A. Hansen, P. Pracht,
     J. Seibert, S. Spicher, S. Grimme, WIREs Comput. Mol. Sci., 2020, 11,
     e01493. DOI: 10.1002/wcms.1493
   
   for GFN2-xTB:
   * C. Bannwarth, S. Ehlert and S. Grimme., J. Chem. Theory Comput., 2019,
     15, 1652-1671. DOI: 10.1021/acs.jctc.8b01176
   for GFN1-xTB:
   * S. Grimme, C. Bannwarth, P. Shushkov, J. Chem. Theory Comput., 2017,
     13, 1989-2009. DOI: 10.1021/acs.jctc.7b00118
   for GFN0-xTB:
   * P. Pracht, E. Caldeweyher, S. Ehlert, S. Grimme, ChemRxiv, 2019, preprint.
     DOI: 10.26434/chemrxiv.8326202.v1
   for GFN-FF:
   * S. Spicher and S. Grimme, Angew. Chem. Int. Ed., 2020, 59, 15665-15673.
     DOI: 10.1002/anie.202004239
   
   for ALPB and GBSA implicit solvation:
   * S. Ehlert, M. Stahn, S. Spicher, S. Grimme, J. Chem. Theory Comput.,
     2021, 17, 4250-4261. DOI: 10.1021/acs.jctc.1c00471
   
   for DFT-D4:
   * E. Caldeweyher, C. Bannwarth and S. Grimme, J. Chem. Phys., 2017,
     147, 034112. DOI: 10.1063/1.4993215
   * E. Caldeweyher, S. Ehlert, A. Hansen, H. Neugebauer, S. Spicher,
     C. Bannwarth and S. Grimme, J. Chem. Phys., 2019, 150, 154122.
     DOI: 10.1063/1.5090222
   * E. Caldeweyher, J.-M. Mewes, S. Ehlert and S. Grimme, Phys. Chem. Chem. Phys.
     2020, 22, 8499-8512. DOI: 10.1039/D0CP00502A
   
   for sTDA-xTB:
   * S. Grimme and C. Bannwarth, J. Chem. Phys., 2016, 145, 054103.
     DOI: 10.1063/1.4959605
   
   in the mass-spec context:
   * V. Asgeirsson, C. Bauer and S. Grimme, Chem. Sci., 2017, 8, 4879.
     DOI: 10.1039/c7sc00601b
   * J. Koopman and S. Grimme, ACS Omega 2019, 4, 12, 15120-15133.
     DOI: 10.1021/acsomega.9b02011
   
   for metadynamics refer to:
   * S. Grimme, J. Chem. Theory Comput., 2019, 155, 2847-2862
     DOI: 10.1021/acs.jctc.9b00143
   
   for SPH calculations refer to:
   * S. Spicher and S. Grimme, J. Chem. Theory Comput., 2021, 17, 1701-1714
     DOI: 10.1021/acs.jctc.0c01306
   
   with help from (in alphabetical order)
   P. Atkinson, C. Bannwarth, F. Bohle, G. Brandenburg, E. Caldeweyher
   M. Checinski, S. Dohm, S. Ehlert, S. Ehrlich, I. Gerasimov, C. Hölzer
   A. Katbashev, J. Koopman, C. Lavigne, S. Lehtola, F. März, M. Müller,
   F. Musil, H. Neugebauer, J. Pisarek, C. Plett, P. Pracht, F. Pultar,
   J. Seibert, P. Shushkov, S. Spicher, M. Stahn, M. Steiner, T. Strunk,
   J. Stückrath, T. Rose, and J. Unsleber
   
 * started run on 2023/06/20 at 14:53:32.757     

           -------------------------------------------------
          |                Calculation Setup                |
           -------------------------------------------------

          program call               : /lustre/hpc/kemi/ree/PhD/git/ReactivityQM/dep/xtb-6.5.1/bin/xtb --gfn 1 /lustre/hpc/kemi/ree/PhD/git/ReactivityQM/calculations/RaltegravirCLI/reac01prodE05/conf10/RaltegravirCLI_reac01prodE05_conf10_gfn1.xyz --opt --vfukui --chrg -1 --uhf 0 --alpb DMSO
          hostname                   : node308
          coordinate file            : /lustre/hpc/kemi/ree/PhD/git/ReactivityQM/calculations/RaltegravirCLI/reac01prodE05/conf10/RaltegravirCLI_reac01prodE05_conf10_gfn1.xyz
          omp threads                :                     1

   ID    Z sym.   atoms
    1    6 C      1, 2, 5-7
    2    7 N      3, 4
    3    8 O      8, 10
    4   17 Cl     9
    5    1 H      11-16

           -------------------------------------------------
          |                 G F N 1 - x T B                 |
           -------------------------------------------------

        Reference                      10.1021/acs.jctc.7b00118
      * Hamiltonian:
        H0-scaling (s, p, d)           1.850000    2.250000    2.000000
        zeta-weighting                 0.000000
      * Dispersion:
        s8                             2.400000
        a1                             0.630000
        a2                             5.000000
        s9                             0.000000
      * Repulsion:
        kExp                           1.500000
        rExp                           1.000000
      * Coulomb:
        alpha                          2.000000
        third order                    atomic
        anisotropic                    false
      * Halogen bond correction:
        rad-scale                      1.300000
        damping                        0.440000

      * Solvation model:               ALPB
        Solvent                        DMSO
        Parameter file                 internal GFN1-xTB/ALPB
        Dielectric constant                4.6680E+01
        Reference state                gsolv [1 M gas/solution]
        Free energy shift                  7.6243E-03 Eh       4.7843E+00 kcal/mol
        Temperature                        2.9815E+02 K
        Density                            1.1000E+00 kg/L
        Solvent mass                       7.8130E+01 g/mol
        Interaction kernel             P16
        Born radius scaling (c1)           1.7672E+00
        Born radii integrator          GBOBC
        Born offset                        0.0000E+00 a0       0.0000E+00 AA
        H-bond correction              true
        Ion screening                  false
        Surface tension                    1.0000E-05 Eh       1.5569E+01 dyn/cm
        Grid points                               230 per atom

          ...................................................
          :                      SETUP                      :
          :.................................................:
          :  # basis functions                  58          :
          :  # atomic orbitals                  57          :
          :  # shells                           33          :
          :  # electrons                        56          :
          :  # halogen bonds                     4          :
          :  max. iterations                   250          :
          :  Hamiltonian                  GFN1-xTB          :
          :  restarted?                      false          :
          :  GBSA solvation                   true          :
          :  PC potential                    false          :
          :  electronic temp.          300.0000000     K    :
          :  accuracy                    1.0000000          :
          :  -> integral cutoff          0.2500000E+02      :
          :  -> integral neglect         0.1000000E-07      :
          :  -> SCF convergence          0.1000000E-05 Eh   :
          :  -> wf. convergence          0.2000000E-04 e    :
          :  Broyden damping             0.4000000          :
          ...................................................

 iter      E             dE          RMSdq      gap      omega  full diag
   1    -34.2144395 -0.342144E+02  0.842E+00    2.30       0.0  T
   2    -34.3394124 -0.124973E+00  0.516E+00    0.40       1.0  T
   3    -34.3257842  0.136281E-01  0.267E+00    1.61       1.0  T
   4    -34.3731521 -0.473679E-01  0.249E-01    0.64       1.0  T
   5    -34.3737593 -0.607171E-03  0.948E-02    0.62       1.0  T
   6    -34.3738271 -0.678238E-04  0.744E-02    0.68       1.0  T
   7    -34.3739304 -0.103250E-03  0.123E-02    0.64       2.0  T
   8    -34.3739294  0.916047E-06  0.102E-02    0.65       2.4  T
   9    -34.3739307 -0.123169E-05  0.264E-03    0.64       9.5  T
  10    -34.3739307 -0.590011E-07  0.509E-04    0.64      49.1  T
  11    -34.3739307 -0.222404E-08  0.746E-05    0.64     334.9  T
  12    -34.3739307 -0.614762E-10  0.177E-05    0.64    1409.5  T

   *** convergence criteria satisfied after 12 iterations ***

         #    Occupation            Energy/Eh            Energy/eV
      -------------------------------------------------------------
         1        2.0000           -0.8968477             -24.4045
       ...           ...                  ...                  ...
        22        2.0000           -0.4613642             -12.5544
        23        2.0000           -0.4523794             -12.3099
        24        2.0000           -0.4326868             -11.7740
        25        2.0000           -0.4164462             -11.3321
        26        2.0000           -0.3956241             -10.7655
        27        2.0000           -0.3574864              -9.7277
        28        2.0000           -0.2841134              -7.7311 (HOMO)
        29        0.0000           -0.2605022              -7.0886 (LUMO)
        30                         -0.1738618              -4.7310
        31                         -0.1633080              -4.4438
        32                         -0.1117728              -3.0415
        33                         -0.0981360              -2.6704
       ...                                ...                  ...
        57                          0.6860128              18.6674
      -------------------------------------------------------------
                  HL-Gap            0.0236112 Eh            0.6425 eV
             Fermi-level           -0.2723078 Eh           -7.4099 eV

 SCC (total)                   0 d,  0 h,  0 min,  0.057 sec
 SCC setup                      ...        0 min,  0.001 sec (  1.341%)
 Dispersion                     ...        0 min,  0.000 sec (  0.184%)
 classical contributions        ...        0 min,  0.000 sec (  0.084%)
 integral evaluation            ...        0 min,  0.009 sec ( 16.361%)
 iterations                     ...        0 min,  0.022 sec ( 38.997%)
 molecular gradient             ...        0 min,  0.024 sec ( 42.570%)
 printout                       ...        0 min,  0.000 sec (  0.393%)

         :::::::::::::::::::::::::::::::::::::::::::::::::::::
         ::                     SUMMARY                     ::
         :::::::::::::::::::::::::::::::::::::::::::::::::::::
         :: total energy             -34.123449261686 Eh    ::
         :: total w/o Gsasa/hb       -34.116084673941 Eh    ::
         :: gradient norm              0.125201203527 Eh/a0 ::
         :: HOMO-LUMO gap              0.642494191839 eV    ::
         ::.................................................::
         :: SCC energy               -34.373930730974 Eh    ::
         :: -> electrostatic           0.226601194006 Eh    ::
         :: -> Gsolv                  -0.090617620338 Eh    ::
         ::    -> Gelec               -0.083253032593 Eh    ::
         ::    -> Gsasa               -0.014442929498 Eh    ::
         ::    -> Ghb                 -0.000545937251 Eh    ::
         ::    -> Gshift               0.007624279005 Eh    ::
         :: repulsion energy           0.258424979381 Eh    ::
         :: dispersion energy         -0.007943510093 Eh    ::
         :: halogen bond corr.         0.000000000000 Eh    ::
         :: add. restraining           0.000000000000 Eh    ::
         :: total charge              -1.000000000000 e     ::
         :::::::::::::::::::::::::::::::::::::::::::::::::::::

      ----------------------------------------------------------- 
     |                   =====================                   |
     |                        A N C O P T                        |
     |                   =====================                   |
     |               Approximate Normal Coordinate               |
     |                Rational Function Optimizer                |
      ----------------------------------------------------------- 

          ...................................................
          :                      SETUP                      :
          :.................................................:
          :   optimization level            normal          :
          :   max. optcycles                   200          :
          :   ANC micro-cycles                  20          :
          :   degrees of freedom                42          :
          :.................................................:
          :   RF solver                   davidson          :
          :   write xtbopt.log                true          :
          :   linear?                        false          :
          :   energy convergence         0.5000000E-05 Eh   :
          :   grad. convergence          0.1000000E-02 Eh/α :
          :   maximium RF displ.         1.0000000          :
          :   Hlow (freq-cutoff)         0.1000000E-01      :
          :   Hmax (freq-cutoff)         5.0000000          :
          :   S6 in model hess.         20.0000000          :
          ...................................................

generating ANC from model Hessian ...
Using Lindh-Hessian (1995)
 Shifting diagonal of input Hessian by   6.797361867718843E-003
 Lowest  eigenvalues of input Hessian
    0.000000    0.000000    0.000000    0.000000    0.000000    0.000000
    0.010000    0.012986    0.015474    0.017703    0.017997    0.022774
    0.029868    0.042347    0.048169    0.053190    0.067846    0.072933
 Highest eigenvalues
    1.359729    1.409238    1.576303    1.818495    1.973867    2.119658
 

........................................................................
.............................. CYCLE    1 ..............................
........................................................................
   1    -34.3739307 -0.343739E+02  0.107E-06    0.64       0.0  T
   2    -34.3739307 -0.142109E-13  0.998E-07    0.64   25056.1  T
   3    -34.3739307 -0.213163E-13  0.330E-07    0.64   75686.0  T
     SCC iter.                  ...        0 min,  0.002 sec
     gradient                   ...        0 min,  0.018 sec
 * total energy  :   -34.1234493 Eh     change       -0.1513456E-11 Eh
   gradient norm :     0.1252011 Eh/α   predicted     0.0000000E+00 (-100.00%)
   displ. norm   :     0.3258388 α      lambda       -0.1482595E-01
   maximum displ.:     0.1641472 α      in ANC's #2, #8, #7, ...

........................................................................
.............................. CYCLE    2 ..............................
........................................................................
   1    -34.3742774 -0.343743E+02  0.426E-01    0.83       0.0  T
   2    -34.3746423 -0.364904E-03  0.422E-01    1.26       1.0  T
   3    -34.3787153 -0.407300E-02  0.808E-02    1.03       1.0  T
   4    -34.3787593 -0.439653E-04  0.478E-02    0.98       1.0  T
   5    -34.3787856 -0.263388E-04  0.175E-02    0.99       1.4  T
   6    -34.3787911 -0.550326E-05  0.414E-03    1.00       6.0  T
   7    -34.3787912 -0.509864E-07  0.259E-03    1.00       9.7  T
   8    -34.3787914 -0.177056E-06  0.308E-04    1.00      81.3  T
   9    -34.3787914 -0.432010E-09  0.100E-04    1.00     249.8  T
  10    -34.3787914 -0.112948E-09  0.243E-05    1.00    1028.3  T
     SCC iter.                  ...        0 min,  0.020 sec
     gradient                   ...        0 min,  0.025 sec
 * total energy  :   -34.1330326 Eh     change       -0.9583333E-02 Eh
   gradient norm :     0.0675228 Eh/α   predicted    -0.8200017E-02 ( -14.43%)
   displ. norm   :     0.2507058 α      lambda       -0.7621080E-02
   maximum displ.:     0.1207070 α      in ANC's #2, #7, #9, ...

........................................................................
.............................. CYCLE    3 ..............................
........................................................................
   1    -34.3874702 -0.343875E+02  0.223E-01    1.38       0.0  T
   2    -34.3880433 -0.573137E-03  0.171E-01    1.25       1.0  T
   3    -34.3884433 -0.400014E-03  0.487E-02    1.31       1.0  T
   4    -34.3884323  0.110644E-04  0.359E-02    1.30       1.0  T
   5    -34.3884478 -0.155518E-04  0.628E-03    1.31       4.0  T
   6    -34.3884481 -0.285650E-06  0.220E-03    1.31      11.4  T
   7    -34.3884481 -0.297972E-07  0.278E-04    1.31      89.9  T
   8    -34.3884481 -0.270582E-09  0.145E-04    1.31     172.9  T
   9    -34.3884481 -0.106262E-09  0.720E-06    1.31    3473.4  T
     SCC iter.                  ...        0 min,  0.006 sec
     gradient                   ...        0 min,  0.018 sec
 * total energy  :   -34.1376035 Eh     change       -0.4570946E-02 Eh
   gradient norm :     0.0178686 Eh/α   predicted    -0.4050046E-02 ( -11.40%)
   displ. norm   :     0.2869140 α      lambda       -0.2037327E-02
   maximum displ.:     0.1888010 α      in ANC's #2, #7, #5, ...

........................................................................
.............................. CYCLE    4 ..............................
........................................................................
   1    -34.3882310 -0.343882E+02  0.165E-01    1.44       0.0  T
   2    -34.3884354 -0.204437E-03  0.126E-01    1.59       1.0  T
   3    -34.3887518 -0.316376E-03  0.315E-02    1.52       1.0  T
   4    -34.3887528 -0.100432E-05  0.120E-02    1.53       2.1  T
   5    -34.3887534 -0.599153E-06  0.454E-03    1.53       5.5  T
   6    -34.3887536 -0.196266E-06  0.125E-03    1.53      20.0  T
   7    -34.3887536 -0.129460E-07  0.324E-04    1.53      77.1  T
   8    -34.3887536 -0.134995E-08  0.164E-04    1.53     152.0  T
   9    -34.3887536 -0.243524E-09  0.139E-05    1.53    1801.4  T
     SCC iter.                  ...        0 min,  0.006 sec
     gradient                   ...        0 min,  0.018 sec
 * total energy  :   -34.1390976 Eh     change       -0.1494024E-02 Eh
   gradient norm :     0.0174842 Eh/α   predicted    -0.1102524E-02 ( -26.20%)
   displ. norm   :     0.3547167 α      lambda       -0.1775243E-02
   maximum displ.:     0.2139996 α      in ANC's #2, #7, #5, ...

........................................................................
.............................. CYCLE    5 ..............................
........................................................................
   1    -34.3898674 -0.343899E+02  0.154E-01    1.79       0.0  T
   2    -34.3900814 -0.214028E-03  0.967E-02    1.90       1.0  T
   3    -34.3902402 -0.158757E-03  0.332E-02    1.85       1.0  T
   4    -34.3902441 -0.389605E-05  0.117E-02    1.86       2.1  T
   5    -34.3902444 -0.290188E-06  0.356E-03    1.86       7.0  T
   6    -34.3902444 -0.801108E-07  0.965E-04    1.86      25.9  T
   7    -34.3902444 -0.934737E-08  0.260E-04    1.86      96.0  T
   8    -34.3902444 -0.129042E-09  0.158E-04    1.86     158.0  T
   9    -34.3902444 -0.284452E-09  0.128E-05    1.86    1952.3  T
     SCC iter.                  ...        0 min,  0.006 sec
     gradient                   ...        0 min,  0.019 sec
 * total energy  :   -34.1403479 Eh     change       -0.1250372E-02 Eh
   gradient norm :     0.0193090 Eh/α   predicted    -0.9993196E-03 ( -20.08%)
   displ. norm   :     0.3156796 α      lambda       -0.1198456E-02
   maximum displ.:     0.1488415 α      in ANC's #2, #7, #5, ...

........................................................................
.............................. CYCLE    6 ..............................
........................................................................
   1    -34.3913932 -0.343914E+02  0.178E-01    2.11       0.0  T
   2    -34.3918331 -0.439918E-03  0.107E-01    2.24       1.0  T
   3    -34.3920390 -0.205953E-03  0.254E-02    2.19       1.0  T
   4    -34.3920408 -0.172756E-05  0.130E-02    2.19       1.9  T
   5    -34.3920410 -0.255211E-06  0.279E-03    2.19       9.0  T
   6    -34.3920411 -0.681047E-07  0.541E-04    2.19      46.2  T
   7    -34.3920411 -0.133811E-08  0.199E-04    2.19     125.3  T
   8    -34.3920411 -0.119861E-09  0.107E-04    2.19     232.7  T
     SCC iter.                  ...        0 min,  0.006 sec
     gradient                   ...        0 min,  0.018 sec
 * total energy  :   -34.1412729 Eh     change       -0.9249599E-03 Eh
   gradient norm :     0.0171233 Eh/α   predicted    -0.6589393E-03 ( -28.76%)
   displ. norm   :     0.3743955 α      lambda       -0.1278029E-02
   maximum displ.:     0.1513342 α      in ANC's #2, #1, #7, ...

........................................................................
.............................. CYCLE    7 ..............................
........................................................................
   1    -34.3937250 -0.343937E+02  0.240E-01    2.55       0.0  T
   2    -34.3945507 -0.825620E-03  0.100E-01    2.63       1.0  T
   3    -34.3947033 -0.152648E-03  0.362E-02    2.60       1.0  T
   4    -34.3947086 -0.525615E-05  0.180E-02    2.61       1.4  T
   5    -34.3947089 -0.344467E-06  0.324E-03    2.61       7.7  T
   6    -34.3947090 -0.829716E-07  0.777E-04    2.61      32.2  T
   7    -34.3947090 -0.355436E-08  0.358E-04    2.61      69.8  T
   8    -34.3947090 -0.600238E-09  0.119E-04    2.61     209.6  T
   9    -34.3947090 -0.735483E-10  0.289E-05    2.61     864.0  T
     SCC iter.                  ...        0 min,  0.006 sec
     gradient                   ...        0 min,  0.018 sec
 * total energy  :   -34.1423290 Eh     change       -0.1056152E-02 Eh
   gradient norm :     0.0165708 Eh/α   predicted    -0.7285869E-03 ( -31.01%)
   displ. norm   :     0.7183441 α      lambda       -0.2248751E-02
   maximum displ.:     0.2714846 α      in ANC's #2, #1, #7, ...

........................................................................
.............................. CYCLE    8 ..............................
........................................................................
   1    -34.3899126 -0.343899E+02  0.568E-01    3.08       0.0  T
   2    -34.3945608 -0.464827E-02  0.138E-01    2.99       1.0  T
   3    -34.3946743 -0.113407E-03  0.680E-02    2.99       1.0  T
   4    -34.3946858 -0.115127E-04  0.350E-02    2.98       1.0  T
   5    -34.3946885 -0.275923E-05  0.719E-03    2.98       3.5  T
   6    -34.3946889 -0.402879E-06  0.206E-03    2.98      12.1  T
   7    -34.3946890 -0.331212E-07  0.702E-04    2.98      35.6  T
   8    -34.3946890 -0.118231E-08  0.225E-04    2.98     111.0  T
   9    -34.3946890 -0.172477E-09  0.616E-05    2.98     406.0  T
  10    -34.3946890 -0.139337E-10  0.707E-06    2.98    3535.3  T
     SCC iter.                  ...        0 min,  0.007 sec
     gradient                   ...        0 min,  0.019 sec
 * total energy  :   -34.1452150 Eh     change       -0.2885974E-02 Eh
   gradient norm :     0.0420611 Eh/α   predicted    -0.1704601E-02 ( -40.93%)
   displ. norm   :     0.4042821 α      lambda       -0.4619256E-02
   maximum displ.:     0.1556256 α      in ANC's #1, #17, #15, ...

........................................................................
.............................. CYCLE    9 ..............................
........................................................................
   1    -34.4008498 -0.344008E+02  0.429E-01    3.19       0.0  T
   2    -34.4031778 -0.232799E-02  0.107E-01    3.07       1.0  T
   3    -34.4032235 -0.457051E-04  0.628E-02    3.06       1.0  T
   4    -34.4032272 -0.368805E-05  0.273E-02    3.05       1.0  T
   5    -34.4032290 -0.178468E-05  0.476E-03    3.05       5.3  T
   6    -34.4032291 -0.144548E-06  0.128E-03    3.05      19.5  T
   7    -34.4032291 -0.118927E-07  0.568E-04    3.05      44.0  T
   8    -34.4032291 -0.136756E-08  0.160E-04    3.05     156.5  T
   9    -34.4032291 -0.400959E-10  0.497E-05    3.05     502.6  T
     SCC iter.                  ...        0 min,  0.006 sec
     gradient                   ...        0 min,  0.019 sec
 * total energy  :   -34.1489160 Eh     change       -0.3700945E-02 Eh
   gradient norm :     0.0585440 Eh/α   predicted    -0.2687124E-02 ( -27.39%)
   displ. norm   :     0.5907146 α      lambda       -0.1043258E-01
   maximum displ.:     0.2997713 α      in ANC's #2, #7, #6, ...

........................................................................
.............................. CYCLE   10 ..............................
........................................................................
   1    -34.4055048 -0.344055E+02  0.412E-01    3.55       0.0  T
   2    -34.4079503 -0.244544E-02  0.141E-01    3.34       1.0  T
   3    -34.4081129 -0.162692E-03  0.634E-02    3.36       1.0  T
   4    -34.4081169 -0.392586E-05  0.343E-02    3.35       1.0  T
   5    -34.4081179 -0.979296E-06  0.377E-03    3.35       6.6  T
   6    -34.4081179 -0.810937E-07  0.119E-03    3.35      21.0  T
   7    -34.4081179 -0.509625E-08  0.397E-04    3.35      63.0  T
   8    -34.4081179 -0.533369E-09  0.134E-04    3.35     186.0  T
   9    -34.4081179 -0.391580E-10  0.442E-05    3.35     565.0  T
     SCC iter.                  ...        0 min,  0.006 sec
     gradient                   ...        0 min,  0.019 sec
 * total energy  :   -34.1389926 Eh     change        0.9923326E-02 Eh
   gradient norm :     0.1061901 Eh/α   predicted    -0.7036508E-02 (-170.91%)
   displ. norm   :     0.3389871 α      lambda       -0.2452709E-01
   maximum displ.:     0.1706596 α      in ANC's #8, #2, #7, ...

........................................................................
.............................. CYCLE   11 ..............................
........................................................................
   1    -34.4052188 -0.344052E+02  0.314E-01    2.96       0.0  T
   2    -34.4065720 -0.135319E-02  0.126E-01    3.12       1.0  T
   3    -34.4067229 -0.150943E-03  0.595E-02    3.09       1.0  T
   4    -34.4067264 -0.345347E-05  0.312E-02    3.10       1.0  T
   5    -34.4067269 -0.547798E-06  0.283E-03    3.10       8.8  T
   6    -34.4067270 -0.612363E-07  0.111E-03    3.10      22.4  T
   7    -34.4067270 -0.594120E-08  0.291E-04    3.10      85.9  T
   8    -34.4067270 -0.299359E-09  0.911E-05    3.10     274.4  T
   9    -34.4067270 -0.160938E-10  0.288E-05    3.10     867.0  T
     SCC iter.                  ...        0 min,  0.006 sec
     gradient                   ...        0 min,  0.019 sec
 * total energy  :   -34.1519812 Eh     change       -0.1298852E-01 Eh
   gradient norm :     0.0342072 Eh/α   predicted    -0.1367278E-01 (   5.27%)
   displ. norm   :     0.5471817 α      lambda       -0.4540294E-02
   maximum displ.:     0.3127948 α      in ANC's #2, #7, #1, ...

........................................................................
.............................. CYCLE   12 ..............................
........................................................................
   1    -34.3933407 -0.343933E+02  0.352E-01    3.16       0.0  T
   2    -34.3949844 -0.164371E-02  0.120E-01    3.11       1.0  T
   3    -34.3951269 -0.142563E-03  0.688E-02    3.09       1.0  T
   4    -34.3951333 -0.639689E-05  0.291E-02    3.09       1.0  T
   5    -34.3951345 -0.111496E-05  0.554E-03    3.08       4.5  T
   6    -34.3951347 -0.289515E-06  0.190E-03    3.08      13.2  T
   7    -34.3951348 -0.154594E-07  0.331E-04    3.08      75.6  T
   8    -34.3951348 -0.417266E-09  0.125E-04    3.08     199.9  T
   9    -34.3951348 -0.191491E-10  0.348E-05    3.08     718.8  T
     SCC iter.                  ...        0 min,  0.006 sec
     gradient                   ...        0 min,  0.019 sec
 * total energy  :   -34.1437195 Eh     change        0.8261645E-02 Eh
   gradient norm :     0.0971768 Eh/α   predicted    -0.2949840E-02 (-135.71%)
   displ. norm   :     0.3188793 α      lambda       -0.2234380E-01
   maximum displ.:     0.1176881 α      in ANC's #8, #17, #7, ...

........................................................................
.............................. CYCLE   13 ..............................
........................................................................
   1    -34.3973171 -0.343973E+02  0.342E-01    3.27       0.0  T
   2    -34.3988988 -0.158169E-02  0.120E-01    3.28       1.0  T
   3    -34.3990110 -0.112254E-03  0.689E-02    3.30       1.0  T
   4    -34.3990143 -0.331066E-05  0.301E-02    3.29       1.0  T
   5    -34.3990156 -0.126251E-05  0.352E-03    3.30       7.1  T
   6    -34.3990157 -0.120846E-06  0.160E-03    3.30      15.7  T
   7    -34.3990157 -0.114550E-07  0.217E-04    3.30     115.0  T
   8    -34.3990157 -0.300076E-09  0.904E-05    3.30     276.6  T
   9    -34.3990157 -0.112692E-10  0.224E-05    3.30    1116.6  T
     SCC iter.                  ...        0 min,  0.006 sec
     gradient                   ...        0 min,  0.019 sec
 * total energy  :   -34.1525270 Eh     change       -0.8807442E-02 Eh
   gradient norm :     0.0303943 Eh/α   predicted    -0.1230791E-01 (  39.74%)
   displ. norm   :     0.2893851 α      lambda       -0.3185363E-02
   maximum displ.:     0.1568173 α      in ANC's #2, #7, #5, ...

........................................................................
.............................. CYCLE   14 ..............................
........................................................................
   1    -34.4066399 -0.344066E+02  0.108E-01    3.11       0.0  T
   2    -34.4068285 -0.188595E-03  0.421E-02    3.16       1.0  T
   3    -34.4068411 -0.126414E-04  0.200E-02    3.17       1.2  T
   4    -34.4068415 -0.359663E-06  0.965E-03    3.17       2.6  T
   5    -34.4068416 -0.115702E-06  0.177E-03    3.17      14.1  T
   6    -34.4068416 -0.284785E-07  0.423E-04    3.17      59.1  T
   7    -34.4068416 -0.195511E-08  0.105E-04    3.17     237.5  T
   8    -34.4068416 -0.450626E-10  0.220E-05    3.17    1138.5  T
     SCC iter.                  ...        0 min,  0.006 sec
     gradient                   ...        0 min,  0.019 sec
 * total energy  :   -34.1528833 Eh     change       -0.3563103E-03 Eh
   gradient norm :     0.0272716 Eh/α   predicted    -0.1726060E-02 ( 384.43%)
   displ. norm   :     0.0992943 α      lambda       -0.1244735E-02
   maximum displ.:     0.0523038 α      in ANC's #2, #7, #6, ...

........................................................................
.............................. CYCLE   15 ..............................
........................................................................
   1    -34.4057964 -0.344058E+02  0.408E-02    3.28       0.0  T
   2    -34.4058218 -0.253207E-04  0.182E-02    3.26       1.4  T
   3    -34.4058227 -0.972691E-06  0.963E-03    3.26       2.6  T
   4    -34.4058228 -0.410890E-07  0.378E-03    3.26       6.6  T
   5    -34.4058228 -0.475937E-07  0.619E-04    3.26      40.4  T
   6    -34.4058228 -0.136006E-08  0.252E-04    3.26      99.3  T
   7    -34.4058228 -0.424649E-09  0.653E-05    3.26     382.7  T
   8    -34.4058228 -0.615330E-11  0.193E-05    3.26    1296.4  T
     SCC iter.                  ...        0 min,  0.006 sec
     gradient                   ...        0 min,  0.019 sec
 * total energy  :   -34.1535937 Eh     change       -0.7104439E-03 Eh
   gradient norm :     0.0100513 Eh/α   predicted    -0.6285040E-03 ( -11.53%)
   displ. norm   :     0.0526995 α      lambda       -0.1923463E-03
   maximum displ.:     0.0334614 α      in ANC's #2, #1, #6, ...

........................................................................
.............................. CYCLE   16 ..............................
........................................................................
   1    -34.4039620 -0.344040E+02  0.238E-02    3.27       0.0  T
   2    -34.4039643 -0.236832E-05  0.140E-02    3.27       1.8  T
   3    -34.4039646 -0.254095E-06  0.583E-03    3.27       4.3  T
   4    -34.4039647 -0.114097E-06  0.117E-03    3.27      21.3  T
   5    -34.4039647 -0.517298E-08  0.417E-04    3.27      60.0  T
   6    -34.4039647 -0.884434E-09  0.103E-04    3.27     243.5  T
   7    -34.4039647 -0.620162E-10  0.322E-05    3.27     777.4  T
     SCC iter.                  ...        0 min,  0.005 sec
     gradient                   ...        0 min,  0.020 sec
 * total energy  :   -34.1537215 Eh     change       -0.1278278E-03 Eh
   gradient norm :     0.0096141 Eh/α   predicted    -0.9643963E-04 ( -24.56%)
   displ. norm   :     0.0710763 α      lambda       -0.2322048E-03
   maximum displ.:     0.0431464 α      in ANC's #6, #8, #2, ...

........................................................................
.............................. CYCLE   17 ..............................
........................................................................
   1    -34.4049211 -0.344049E+02  0.536E-02    3.30       0.0  T
   2    -34.4049323 -0.112507E-04  0.227E-02    3.32       1.1  T
   3    -34.4049330 -0.692719E-06  0.672E-03    3.32       3.7  T
   4    -34.4049331 -0.134233E-06  0.206E-03    3.32      12.2  T
   5    -34.4049331 -0.185439E-07  0.696E-04    3.32      35.9  T
   6    -34.4049332 -0.213407E-08  0.233E-04    3.32     107.4  T
   7    -34.4049332 -0.190504E-09  0.397E-05    3.32     629.1  T
   8    -34.4049332 -0.128111E-10  0.176E-05    3.32    1423.1  T
     SCC iter.                  ...        0 min,  0.006 sec
     gradient                   ...        0 min,  0.019 sec
 * total energy  :   -34.1538793 Eh     change       -0.1577357E-03 Eh
   gradient norm :     0.0110796 Eh/α   predicted    -0.1166875E-03 ( -26.02%)
   displ. norm   :     0.0724540 α      lambda       -0.1897492E-03
   maximum displ.:     0.0393451 α      in ANC's #6, #8, #7, ...

........................................................................
.............................. CYCLE   18 ..............................
........................................................................
   1    -34.4054197 -0.344054E+02  0.668E-02    3.30       0.0  T
   2    -34.4054476 -0.278220E-04  0.248E-02    3.32       1.0  T
   3    -34.4054488 -0.122656E-05  0.924E-03    3.33       2.7  T
   4    -34.4054490 -0.186426E-06  0.235E-03    3.33      10.6  T
   5    -34.4054490 -0.226439E-07  0.884E-04    3.33      28.3  T
   6    -34.4054490 -0.251568E-08  0.316E-04    3.33      79.2  T
   7    -34.4054490 -0.557115E-09  0.494E-05    3.33     506.3  T
   8    -34.4054490 -0.312639E-10  0.159E-05    3.33    1574.4  T
     SCC iter.                  ...        0 min,  0.006 sec
     gradient                   ...        0 min,  0.019 sec
 * total energy  :   -34.1539983 Eh     change       -0.1190386E-03 Eh
   gradient norm :     0.0083215 Eh/α   predicted    -0.9537217E-04 ( -19.88%)
   displ. norm   :     0.0455173 α      lambda       -0.1035809E-03
   maximum displ.:     0.0201612 α      in ANC's #6, #8, #5, ...

........................................................................
.............................. CYCLE   19 ..............................
........................................................................
   1    -34.4069770 -0.344070E+02  0.485E-02    3.32       0.0  T
   2    -34.4069927 -0.157006E-04  0.177E-02    3.34       1.4  T
   3    -34.4069932 -0.546010E-06  0.648E-03    3.34       3.9  T
   4    -34.4069933 -0.920956E-07  0.212E-03    3.34      11.8  T
   5    -34.4069934 -0.202602E-07  0.625E-04    3.34      40.0  T
   6    -34.4069934 -0.138453E-08  0.249E-04    3.34     100.2  T
   7    -34.4069934 -0.281666E-09  0.474E-05    3.34     526.9  T
   8    -34.4069934 -0.157669E-10  0.137E-05    3.34    1827.8  T
     SCC iter.                  ...        0 min,  0.007 sec
     gradient                   ...        0 min,  0.020 sec
 * total energy  :   -34.1540646 Eh     change       -0.6625567E-04 Eh
   gradient norm :     0.0048760 Eh/α   predicted    -0.5189775E-04 ( -21.67%)
   displ. norm   :     0.0574444 α      lambda       -0.6517538E-04
   maximum displ.:     0.0386934 α      in ANC's #5, #4, #3, ...

........................................................................
.............................. CYCLE   20 ..............................
........................................................................
   1    -34.4075566 -0.344076E+02  0.356E-02    3.33       0.0  T
   2    -34.4075666 -0.999550E-05  0.133E-02    3.34       1.9  T
   3    -34.4075670 -0.357798E-06  0.550E-03    3.35       4.5  T
   4    -34.4075671 -0.137370E-06  0.212E-03    3.35      11.8  T
   5    -34.4075671 -0.124348E-07  0.548E-04    3.35      45.7  T
   6    -34.4075671 -0.689731E-09  0.214E-04    3.35     116.8  T
   7    -34.4075671 -0.187363E-09  0.349E-05    3.35     715.7  T
   8    -34.4075671 -0.481748E-11  0.794E-06    3.35    3147.4  T
     SCC iter.                  ...        0 min,  0.006 sec
     gradient                   ...        0 min,  0.019 sec
 * total energy  :   -34.1541098 Eh     change       -0.4523804E-04 Eh
   gradient norm :     0.0025473 Eh/α   predicted    -0.3269610E-04 ( -27.72%)
   displ. norm   :     0.0631140 α      lambda       -0.4484266E-04
   maximum displ.:     0.0462422 α      in ANC's #5, #4, #2, ...
 * RMSD in coord.:     0.6864333 α      energy gain  -0.3066054E-01 Eh

generating ANC from model Hessian ...
Using Lindh-Hessian (1995)
 Shifting diagonal of input Hessian by   6.290049865794520E-003
 Lowest  eigenvalues of input Hessian
    0.000000    0.000000    0.000000    0.000000    0.000000    0.000000
    0.010000    0.011700    0.014803    0.016531    0.019266    0.026823
    0.030042    0.042867    0.053904    0.056578    0.070589    0.077042
 Highest eigenvalues
    1.308977    1.470943    1.567477    1.802672    2.095655    2.186794
 

........................................................................
.............................. CYCLE   21 ..............................
........................................................................
   1    -34.4079322 -0.344079E+02  0.246E-02    3.34       0.0  T
   2    -34.4079372 -0.495138E-05  0.103E-02    3.35       2.4  T
   3    -34.4079374 -0.285145E-06  0.464E-03    3.35       5.4  T
   4    -34.4079375 -0.106489E-06  0.158E-03    3.35      15.8  T
   5    -34.4079376 -0.507578E-08  0.394E-04    3.35      63.4  T
   6    -34.4079376 -0.340997E-09  0.135E-04    3.35     184.6  T
   7    -34.4079376 -0.913332E-10  0.356E-05    3.35     702.7  T
     SCC iter.                  ...        0 min,  0.005 sec
     gradient                   ...        0 min,  0.019 sec
 * total energy  :   -34.1541393 Eh     change       -0.2951452E-04 Eh
   gradient norm :     0.0023619 Eh/α   predicted     0.0000000E+00 (-100.00%)
   displ. norm   :     0.0322801 α      lambda       -0.2047807E-04
   maximum displ.:     0.0246744 α      in ANC's #3, #1, #2, ...

........................................................................
.............................. CYCLE   22 ..............................
........................................................................
   1    -34.4081209 -0.344081E+02  0.267E-03    3.35       0.0  T
   2    -34.4081210 -0.798296E-07  0.861E-04    3.35      29.1  T
   3    -34.4081210 -0.276754E-08  0.393E-04    3.35      63.6  T
   4    -34.4081210 -0.214911E-09  0.188E-04    3.35     133.1  T
   5    -34.4081210 -0.661018E-10  0.442E-05    3.35     565.2  T
     SCC iter.                  ...        0 min,  0.004 sec
     gradient                   ...        0 min,  0.018 sec
 * total energy  :   -34.1541552 Eh     change       -0.1592051E-04 Eh
   gradient norm :     0.0013167 Eh/α   predicted    -0.1024881E-04 ( -35.63%)
   displ. norm   :     0.1172344 α      lambda       -0.3417224E-04
   maximum displ.:     0.0930010 α      in ANC's #3, #1, #5, ...

........................................................................
.............................. CYCLE   23 ..............................
........................................................................
   1    -34.4082759 -0.344083E+02  0.896E-03    3.36       0.0  T
   2    -34.4082768 -0.921843E-06  0.439E-03    3.36       5.7  T
   3    -34.4082769 -0.917155E-07  0.200E-03    3.36      12.5  T
   4    -34.4082770 -0.967302E-08  0.826E-04    3.36      30.3  T
   5    -34.4082770 -0.957677E-09  0.162E-04    3.36     154.3  T
   6    -34.4082770 -0.818048E-10  0.505E-05    3.36     495.2  T
     SCC iter.                  ...        0 min,  0.004 sec
     gradient                   ...        0 min,  0.019 sec
 * total energy  :   -34.1541881 Eh     change       -0.3290185E-04 Eh
   gradient norm :     0.0022838 Eh/α   predicted    -0.1719147E-04 ( -47.75%)
   displ. norm   :     0.0651742 α      lambda       -0.2239797E-04
   maximum displ.:     0.0497042 α      in ANC's #3, #1, #5, ...

........................................................................
.............................. CYCLE   24 ..............................
........................................................................
   1    -34.4081335 -0.344081E+02  0.296E-03    3.36       0.0  T
   2    -34.4081336 -0.962586E-07  0.171E-03    3.36      14.7  T
   3    -34.4081336 -0.184720E-07  0.741E-04    3.36      33.8  T
   4    -34.4081336 -0.441624E-09  0.212E-04    3.36     118.0  T
   5    -34.4081336 -0.747704E-10  0.503E-05    3.36     497.5  T
   6    -34.4081336 -0.984102E-11  0.147E-05    3.36    1706.3  T
     SCC iter.                  ...        0 min,  0.005 sec
     gradient                   ...        0 min,  0.019 sec
 * total energy  :   -34.1542093 Eh     change       -0.2111006E-04 Eh
   gradient norm :     0.0024532 Eh/α   predicted    -0.1124710E-04 ( -46.72%)
   displ. norm   :     0.2063851 α      lambda       -0.7695881E-04
   maximum displ.:     0.1584939 α      in ANC's #3, #1, #5, ...

........................................................................
.............................. CYCLE   25 ..............................
........................................................................
   1    -34.4072135 -0.344072E+02  0.876E-03    3.36       0.0  T
   2    -34.4072141 -0.603711E-06  0.496E-03    3.36       5.0  T
   3    -34.4072142 -0.125877E-06  0.231E-03    3.36      10.8  T
   4    -34.4072142 -0.586892E-08  0.483E-04    3.36      51.7  T
   5    -34.4072142 -0.458819E-09  0.113E-04    3.36     221.3  T
   6    -34.4072142 -0.655120E-10  0.313E-05    3.36     798.1  T
     SCC iter.                  ...        0 min,  0.005 sec
     gradient                   ...        0 min,  0.018 sec
 * total energy  :   -34.1542645 Eh     change       -0.5523051E-04 Eh
   gradient norm :     0.0040890 Eh/α   predicted    -0.4011615E-04 ( -27.37%)
   displ. norm   :     0.1172960 α      lambda       -0.4215383E-04
   maximum displ.:     0.0920553 α      in ANC's #3, #7, #1, ...

........................................................................
.............................. CYCLE   26 ..............................
........................................................................
   1    -34.4069537 -0.344070E+02  0.286E-03    3.36       0.0  T
   2    -34.4069538 -0.697638E-07  0.143E-03    3.36      17.5  T
   3    -34.4069538 -0.121797E-07  0.682E-04    3.36      36.6  T
   4    -34.4069538 -0.790067E-09  0.167E-04    3.36     149.3  T
   5    -34.4069538 -0.450768E-10  0.392E-05    3.36     637.1  T
     SCC iter.                  ...        0 min,  0.004 sec
     gradient                   ...        0 min,  0.018 sec
 * total energy  :   -34.1542981 Eh     change       -0.3362901E-04 Eh
   gradient norm :     0.0048015 Eh/α   predicted    -0.2136672E-04 ( -36.46%)
   displ. norm   :     0.2112930 α      lambda       -0.1169396E-03
   maximum displ.:     0.1682643 α      in ANC's #3, #7, #2, ...

........................................................................
.............................. CYCLE   27 ..............................
........................................................................
   1    -34.4070589 -0.344071E+02  0.479E-03    3.35       0.0  T
   2    -34.4070592 -0.304853E-06  0.227E-03    3.35      11.0  T
   3    -34.4070592 -0.194383E-07  0.115E-03    3.35      21.8  T
   4    -34.4070592 -0.178343E-08  0.498E-04    3.35      50.2  T
   5    -34.4070592 -0.406985E-09  0.756E-05    3.35     330.9  T
   6    -34.4070592 -0.371685E-10  0.238E-05    3.35    1050.2  T
     SCC iter.                  ...        0 min,  0.005 sec
     gradient                   ...        0 min,  0.019 sec
 * total energy  :   -34.1543725 Eh     change       -0.7436996E-04 Eh
   gradient norm :     0.0052306 Eh/α   predicted    -0.6108076E-04 ( -17.87%)
   displ. norm   :     0.0758771 α      lambda       -0.7349237E-04
   maximum displ.:     0.0485465 α      in ANC's #3, #7, #2, ...

........................................................................
.............................. CYCLE   28 ..............................
........................................................................
   1    -34.4085015 -0.344085E+02  0.987E-03    3.35       0.0  T
   2    -34.4085021 -0.642118E-06  0.592E-03    3.36       4.2  T
   3    -34.4085022 -0.131813E-06  0.288E-03    3.35       8.7  T
   4    -34.4085023 -0.837116E-08  0.535E-04    3.35      46.7  T
   5    -34.4085023 -0.522824E-09  0.884E-05    3.35     282.8  T
   6    -34.4085023 -0.323297E-10  0.124E-05    3.35    2023.7  T
     SCC iter.                  ...        0 min,  0.004 sec
     gradient                   ...        0 min,  0.019 sec
 * total energy  :   -34.1544161 Eh     change       -0.4357828E-04 Eh
   gradient norm :     0.0032568 Eh/α   predicted    -0.3695683E-04 ( -15.19%)
   displ. norm   :     0.3088160 α      lambda       -0.1118587E-03
   maximum displ.:     0.2547281 α      in ANC's #3, #7, #2, ...

........................................................................
.............................. CYCLE   29 ..............................
........................................................................
   1    -34.4064361 -0.344064E+02  0.181E-02    3.36       0.0  T
   2    -34.4064384 -0.225518E-05  0.978E-03    3.36       2.6  T
   3    -34.4064389 -0.522402E-06  0.502E-03    3.36       5.0  T
   4    -34.4064389 -0.214012E-07  0.668E-04    3.36      37.4  T
   5    -34.4064389 -0.110600E-08  0.199E-04    3.36     125.4  T
   6    -34.4064389 -0.100457E-09  0.292E-05    3.36     856.2  T
     SCC iter.                  ...        0 min,  0.004 sec
     gradient                   ...        0 min,  0.018 sec
 * total energy  :   -34.1544453 Eh     change       -0.2920958E-04 Eh
   gradient norm :     0.0074784 Eh/α   predicted    -0.6126337E-04 ( 109.74%)
   displ. norm   :     0.1204564 α      lambda       -0.9627106E-04
   maximum displ.:     0.0950554 α      in ANC's #3, #7, #2, ...

........................................................................
.............................. CYCLE   30 ..............................
........................................................................
   1    -34.4084810 -0.344085E+02  0.118E-02    3.36       0.0  T
   2    -34.4084812 -0.248942E-06  0.612E-03    3.36       4.1  T
   3    -34.4084812 -0.322899E-09  0.261E-03    3.36       9.6  T
   4    -34.4084813 -0.326300E-07  0.530E-04    3.36      47.2  T
   5    -34.4084813 -0.778073E-09  0.140E-04    3.36     179.2  T
   6    -34.4084813 -0.797726E-10  0.332E-05    3.36     752.1  T
     SCC iter.                  ...        0 min,  0.005 sec
     gradient                   ...        0 min,  0.019 sec
 * total energy  :   -34.1544808 Eh     change       -0.3554466E-04 Eh
   gradient norm :     0.0020251 Eh/α   predicted    -0.4883619E-04 (  37.39%)
   displ. norm   :     0.0747197 α      lambda       -0.2321108E-04
   maximum displ.:     0.0602422 α      in ANC's #3, #5, #2, ...

........................................................................
.............................. CYCLE   31 ..............................
........................................................................
   1    -34.4083363 -0.344083E+02  0.253E-03    3.36       0.0  T
   2    -34.4083363 -0.590753E-07  0.999E-04    3.36      25.0  T
   3    -34.4083363 -0.489356E-08  0.483E-04    3.36      51.8  T
   4    -34.4083363 -0.770918E-09  0.172E-04    3.36     145.4  T
   5    -34.4083363 -0.792326E-10  0.440E-05    3.36     568.5  T
     SCC iter.                  ...        0 min,  0.004 sec
     gradient                   ...        0 min,  0.018 sec
 * total energy  :   -34.1545013 Eh     change       -0.2044785E-04 Eh
   gradient norm :     0.0018005 Eh/α   predicted    -0.1166960E-04 ( -42.93%)
   displ. norm   :     0.5679964 α      lambda       -0.9738129E-04
   maximum displ.:     0.4686707 α      in ANC's #3, #5, #2, ...

........................................................................
.............................. CYCLE   32 ..............................
........................................................................
   1    -34.4021297 -0.344021E+02  0.361E-02    3.36       0.0  T
   2    -34.4021323 -0.265956E-05  0.177E-02    3.36       1.4  T
   3    -34.4021323  0.177912E-08  0.704E-03    3.35       3.6  T
   4    -34.4021326 -0.256660E-06  0.179E-03    3.35      14.0  T
   5    -34.4021326 -0.125514E-07  0.318E-04    3.35      78.6  T
   6    -34.4021326 -0.421323E-09  0.729E-05    3.35     342.8  T
   7    -34.4021326 -0.527791E-10  0.209E-05    3.35    1198.7  T
     SCC iter.                  ...        0 min,  0.005 sec
     gradient                   ...        0 min,  0.019 sec
 * total energy  :   -34.1541827 Eh     change        0.3185587E-03 Eh
   gradient norm :     0.0172962 Eh/α   predicted    -0.5567849E-04 (-117.48%)
   displ. norm   :     0.2689344 α      lambda       -0.7641282E-03
   maximum displ.:     0.2234650 α      in ANC's #3, #7, #2, ...

........................................................................
.............................. CYCLE   33 ..............................
........................................................................
   1    -34.4072908 -0.344073E+02  0.280E-02    3.36       0.0  T
   2    -34.4072917 -0.891323E-06  0.144E-02    3.36       1.7  T
   3    -34.4072917  0.547746E-07  0.542E-03    3.36       4.6  T
   4    -34.4072919 -0.192156E-06  0.122E-03    3.36      20.6  T
   5    -34.4072919 -0.409220E-08  0.144E-04    3.36     173.5  T
   6    -34.4072919 -0.105914E-09  0.391E-05    3.36     639.5  T
     SCC iter.                  ...        0 min,  0.003 sec
     gradient                   ...        0 min,  0.011 sec
 * total energy  :   -34.1545487 Eh     change       -0.3660440E-03 Eh
   gradient norm :     0.0039848 Eh/α   predicted    -0.4096953E-03 (  11.93%)
   displ. norm   :     0.0101881 α      lambda       -0.2306104E-04
   maximum displ.:     0.0047179 α      in ANC's #1, #24, #7, ...

........................................................................
.............................. CYCLE   34 ..............................
........................................................................
   1    -34.4080349 -0.344080E+02  0.413E-03    3.36       0.0  T
   2    -34.4080350 -0.425814E-07  0.213E-03    3.36      11.7  T
   3    -34.4080350 -0.415156E-08  0.110E-03    3.36      22.8  T
   4    -34.4080350 -0.455542E-08  0.181E-04    3.36     138.3  T
   5    -34.4080350 -0.104492E-09  0.297E-05    3.36     841.5  T
     SCC iter.                  ...        0 min,  0.003 sec
     gradient                   ...        0 min,  0.014 sec
 * total energy  :   -34.1545664 Eh     change       -0.1761726E-04 Eh
   gradient norm :     0.0021685 Eh/α   predicted    -0.1153039E-04 ( -34.55%)
   displ. norm   :     0.0343920 α      lambda       -0.2087825E-04
   maximum displ.:     0.0218460 α      in ANC's #3, #1, #24, ...

........................................................................
.............................. CYCLE   35 ..............................
........................................................................
   1    -34.4088251 -0.344088E+02  0.478E-03    3.36       0.0  T
   2    -34.4088252 -0.948756E-07  0.240E-03    3.36      10.4  T
   3    -34.4088252 -0.146245E-07  0.130E-03    3.36      19.2  T
   4    -34.4088252 -0.402838E-08  0.229E-04    3.36     109.0  T
   5    -34.4088252 -0.203649E-09  0.451E-05    3.36     554.9  T
   6    -34.4088252 -0.982681E-11  0.116E-05    3.36    2147.5  T
     SCC iter.                  ...        0 min,  0.004 sec
     gradient                   ...        0 min,  0.010 sec
 * total energy  :   -34.1545801 Eh     change       -0.1372409E-04 Eh
   gradient norm :     0.0007040 Eh/α   predicted    -0.1045107E-04 ( -23.85%)
   displ. norm   :     0.0845628 α      lambda       -0.1209407E-04
   maximum displ.:     0.0630842 α      in ANC's #3, #1, #4, ...

........................................................................
.............................. CYCLE   36 ..............................
........................................................................
   1    -34.4091796 -0.344092E+02  0.290E-03    3.36       0.0  T
   2    -34.4091796 -0.760865E-07  0.139E-03    3.36      18.0  T
   3    -34.4091796 -0.153580E-07  0.649E-04    3.36      38.5  T
   4    -34.4091796 -0.342837E-09  0.152E-04    3.36     164.1  T
   5    -34.4091796 -0.843130E-10  0.320E-05    3.36     780.9  T
     SCC iter.                  ...        0 min,  0.003 sec
     gradient                   ...        0 min,  0.014 sec
 * total energy  :   -34.1545955 Eh     change       -0.1540317E-04 Eh
   gradient norm :     0.0012541 Eh/α   predicted    -0.6066854E-05 ( -60.61%)
   displ. norm   :     0.4655490 α      lambda       -0.5777137E-04
   maximum displ.:     0.3610955 α      in ANC's #3, #4, #5, ...

........................................................................
.............................. CYCLE   37 ..............................
........................................................................
   1    -34.4057957 -0.344058E+02  0.219E-02    3.36       0.0  T
   2    -34.4057963 -0.663323E-06  0.115E-02    3.36       2.2  T
   3    -34.4057963  0.218715E-07  0.391E-03    3.36       6.4  T
   4    -34.4057964 -0.111527E-06  0.105E-03    3.36      23.9  T
   5    -34.4057964 -0.225786E-08  0.215E-04    3.36     116.1  T
   6    -34.4057964 -0.359407E-09  0.560E-05    3.36     446.0  T
   7    -34.4057964 -0.214300E-10  0.148E-05    3.36    1693.8  T
     SCC iter.                  ...        0 min,  0.004 sec
     gradient                   ...        0 min,  0.010 sec
 * total energy  :   -34.1545017 Eh     change        0.9381854E-04 Eh
   gradient norm :     0.0109193 Eh/α   predicted    -0.3166573E-04 (-133.75%)
   displ. norm   :     0.2313747 α      lambda       -0.3085306E-03
   maximum displ.:     0.1794590 α      in ANC's #3, #5, #4, ...

........................................................................
.............................. CYCLE   38 ..............................
........................................................................
   1    -34.4085560 -0.344086E+02  0.173E-02    3.36       0.0  T
   2    -34.4085563 -0.354325E-06  0.923E-03    3.37       2.7  T
   3    -34.4085563  0.242763E-07  0.323E-03    3.36       7.7  T
   4    -34.4085564 -0.824279E-07  0.797E-04    3.37      31.4  T
   5    -34.4085564 -0.111286E-08  0.127E-04    3.36     197.4  T
   6    -34.4085564 -0.122931E-09  0.382E-05    3.36     654.7  T
     SCC iter.                  ...        0 min,  0.003 sec
     gradient                   ...        0 min,  0.010 sec
 * total energy  :   -34.1546295 Eh     change       -0.1278586E-03 Eh
   gradient norm :     0.0020222 Eh/α   predicted    -0.1625193E-03 (  27.11%)
   displ. norm   :     0.0229503 α      lambda       -0.7705534E-05
   maximum displ.:     0.0149181 α      in ANC's #3, #4, #7, ...

........................................................................
.............................. CYCLE   39 ..............................
........................................................................
   1    -34.4086868 -0.344087E+02  0.190E-03    3.37       0.0  T
   2    -34.4086869 -0.339107E-07  0.966E-04    3.37      25.9  T
   3    -34.4086869 -0.756457E-08  0.413E-04    3.37      60.5  T
   4    -34.4086869 -0.591314E-10  0.106E-04    3.37     236.1  T
   5    -34.4086869 -0.245706E-10  0.154E-05    3.37    1620.8  T
     SCC iter.                  ...        0 min,  0.003 sec
     gradient                   ...        0 min,  0.010 sec
 * total energy  :   -34.1546360 Eh     change       -0.6504256E-05 Eh
   gradient norm :     0.0011649 Eh/α   predicted    -0.3855155E-05 ( -40.73%)
   displ. norm   :     0.1480308 α      lambda       -0.1914822E-04
   maximum displ.:     0.1001231 α      in ANC's #3, #4, #7, ...

........................................................................
.............................. CYCLE   40 ..............................
........................................................................
   1    -34.4087242 -0.344087E+02  0.718E-03    3.36       0.0  T
   2    -34.4087247 -0.538392E-06  0.328E-03    3.36       7.6  T
   3    -34.4087249 -0.122290E-06  0.119E-03    3.36      21.0  T
   4    -34.4087249 -0.521396E-09  0.373E-04    3.36      67.1  T
   5    -34.4087249 -0.202107E-09  0.375E-05    3.36     665.8  T
   6    -34.4087249 -0.916600E-11  0.129E-05    3.36    1933.2  T
     SCC iter.                  ...        0 min,  0.003 sec
     gradient                   ...        0 min,  0.010 sec
 * total energy  :   -34.1546522 Eh     change       -0.1613169E-04 Eh
   gradient norm :     0.0017482 Eh/α   predicted    -0.9665604E-05 ( -40.08%)
   displ. norm   :     0.0925798 α      lambda       -0.7074086E-05
   maximum displ.:     0.0600636 α      in ANC's #3, #4, #24, ...

........................................................................
.............................. CYCLE   41 ..............................
........................................................................
   1    -34.4083589 -0.344084E+02  0.249E-03    3.36       0.0  T
   2    -34.4083589 -0.141585E-07  0.135E-03    3.36      18.5  T
   3    -34.4083589 -0.288878E-09  0.500E-04    3.36      50.0  T
   4    -34.4083589 -0.179590E-08  0.143E-04    3.36     174.6  T
   5    -34.4083589 -0.417373E-10  0.385E-05    3.36     648.7  T
     SCC iter.                  ...        0 min,  0.002 sec
     gradient                   ...        0 min,  0.016 sec
 * total energy  :   -34.1546581 Eh     change       -0.5894410E-05 Eh
   gradient norm :     0.0018658 Eh/α   predicted    -0.3550898E-05 ( -39.76%)
   displ. norm   :     0.0477948 α      lambda       -0.6719096E-05
   maximum displ.:     0.0374787 α      in ANC's #4, #3, #24, ...

........................................................................
.............................. CYCLE   42 ..............................
........................................................................
   1    -34.4086035 -0.344086E+02  0.283E-03    3.36       0.0  T
   2    -34.4086036 -0.894777E-07  0.146E-03    3.36      17.1  T
   3    -34.4086036 -0.211171E-07  0.534E-04    3.36      46.8  T
   4    -34.4086036 -0.373248E-10  0.157E-04    3.36     158.9  T
   5    -34.4086036 -0.588329E-10  0.236E-05    3.36    1059.3  T
     SCC iter.                  ...        0 min,  0.010 sec
     gradient                   ...        0 min,  0.017 sec
 * total energy  :   -34.1546654 Eh     change       -0.7330069E-05 Eh
   gradient norm :     0.0010648 Eh/α   predicted    -0.3363715E-05 ( -54.11%)
   displ. norm   :     0.1119686 α      lambda       -0.6794037E-05
   maximum displ.:     0.0841489 α      in ANC's #4, #3, #24, ...
 * RMSD in coord.:     0.4976807 α      energy gain  -0.5555870E-03 Eh

generating ANC from model Hessian ...
Using Lindh-Hessian (1995)
 Shifting diagonal of input Hessian by   6.290664779946787E-003
 Lowest  eigenvalues of input Hessian
    0.000000    0.000000    0.000000    0.000000    0.000000    0.000000
    0.010000    0.011792    0.014834    0.016530    0.019372    0.026914
    0.030044    0.043036    0.054042    0.056913    0.070706    0.076990
 Highest eigenvalues
    1.303790    1.471028    1.569377    1.803655    2.100766    2.183279
 

........................................................................
.............................. CYCLE   43 ..............................
........................................................................
   1    -34.4086234 -0.344086E+02  0.263E-03    3.36       0.0  T
   2    -34.4086234 -0.667591E-07  0.123E-03    3.36      20.4  T
   3    -34.4086235 -0.129212E-07  0.508E-04    3.36      49.2  T
   4    -34.4086235 -0.229427E-09  0.180E-04    3.36     139.0  T
   5    -34.4086235 -0.746283E-10  0.376E-05    3.36     664.1  T
     SCC iter.                  ...        0 min,  0.004 sec
     gradient                   ...        0 min,  0.016 sec
 * total energy  :   -34.1546729 Eh     change       -0.7524634E-05 Eh
   gradient norm :     0.0011732 Eh/α   predicted     0.0000000E+00 (-100.00%)
   displ. norm   :     0.0118721 α      lambda       -0.3069535E-05
   maximum displ.:     0.0075764 α      in ANC's #1, #3, #4, ...

........................................................................
.............................. CYCLE   44 ..............................
........................................................................
   1    -34.4089399 -0.344089E+02  0.226E-03    3.36       0.0  T
   2    -34.4089400 -0.369908E-07  0.129E-03    3.36      19.4  T
   3    -34.4089400 -0.835239E-08  0.593E-04    3.36      42.2  T
   4    -34.4089400 -0.362988E-09  0.119E-04    3.36     210.6  T
   5    -34.4089400 -0.179625E-10  0.281E-05    3.36     889.0  T
     SCC iter.                  ...        0 min,  0.004 sec
     gradient                   ...        0 min,  0.016 sec
 * total energy  :   -34.1546753 Eh     change       -0.2344267E-05 Eh
   gradient norm :     0.0002467 Eh/α   predicted    -0.1535154E-05 ( -34.51%)
   displ. norm   :     0.0103002 α      lambda       -0.6279654E-06
   maximum displ.:     0.0071655 α      in ANC's #1, #3, #4, ...

   *** GEOMETRY OPTIMIZATION CONVERGED AFTER 44 ITERATIONS ***

------------------------------------------------------------------------
 total energy gain   :        -0.0312260 Eh      -19.5946 kcal/mol
 total RMSD          :         0.9802406 a0        0.5187 Å
 total power (kW/mol):        -1.8632693 (step)  -54.9464 (real)
------------------------------------------------------------------------

 ANCopt (total)                0 d,  0 h,  0 min,  1.492 sec
 optimizer setup                ...        0 min,  0.013 sec (  0.846%)
 model hessian                  ...        0 min,  0.014 sec (  0.918%)
 ANC generation                 ...        0 min,  0.001 sec (  0.084%)
 coordinate transformation      ...        0 min,  0.001 sec (  0.037%)
 single point calculation       ...        0 min,  1.423 sec ( 95.394%)
 optimization log               ...        0 min,  0.031 sec (  2.051%)
 hessian update                 ...        0 min,  0.001 sec (  0.040%)
 rational function              ...        0 min,  0.006 sec (  0.412%)

================
 final structure:
================
16
 xtb: 6.5.1 (579679a)
C           -2.63622111853485       -0.01067320343418        0.56530086461706
C           -1.22554348080539       -0.04850800934796        0.09993091682782
N           -0.84321598611693       -0.33177537385782       -1.07843773951649
N            0.57737498366093       -0.24444290714227       -1.10836505660786
C            0.96016428650992        0.10757939021601        0.29921798659402
C            1.93841224131672        1.23836312638156        0.49862061810028
C            1.32853083393993       -1.21412045347278       -0.26866457738557
O            2.43979198488577       -1.65455251851003       -0.58181365604011
Cl           0.13485630904327       -2.63586220142115        0.45497078617923
O           -0.25520909938310        0.25904335329310        1.00312723492890
H           -2.79557777184979       -0.77037898694228        1.33006409354560
H           -2.85646407293045        0.96075874022606        1.00502120471940
H           -3.30602148331799       -0.19323836704154       -0.27114837189202
H            2.20184874987215        1.31751508391716        1.55186849028795
H            2.83699934274652        1.03838540221486       -0.08215611726387
H            1.50027328096323        2.18190792492109        0.17434332290564
 
 Bond Distances (Angstroems)
 ---------------------------
C1-C2=1.4859         C1-H11=1.0897        C1-H12=1.0888        C1-H13=1.0870        C2-C1=1.4859         C2-N3=1.2708         
C2-O10=1.3608        N3-C2=1.2708         N3-N4=1.4236         N4-N3=1.4236         N4-C5=1.5006         N4-C7=1.4865         
C5-N4=1.5006         C5-C6=1.5084         C5-C7=1.4849         C5-O10=1.4126        C6-C5=1.5084         C6-H14=1.0886        
C6-H15=1.0885        C6-H16=1.0897        C7-N4=1.4865         C7-C5=1.4849         C7-O8=1.2357         C7-Cl9=1.9925        
O8-C7=1.2357         Cl9-C7=1.9925        O10-C2=1.3608        O10-C5=1.4126        H11-C1=1.0897        H12-C1=1.0888        
H13-C1=1.0870        H14-C6=1.0886        H15-C6=1.0885        H16-C6=1.0897        
 C  H  Rav=1.0887 sigma=0.0009  Rmin=1.0870  Rmax=1.0897     6
 C  C  Rav=1.4931 sigma=0.0108  Rmin=1.4849  Rmax=1.5084     3
 N  C  Rav=1.4193 sigma=0.1051  Rmin=1.2708  Rmax=1.5006     3
 N  N  Rav=1.4236 sigma=0.0000  Rmin=1.4236  Rmax=1.4236     1
 O  C  Rav=1.3364 sigma=0.0743  Rmin=1.2357  Rmax=1.4126     3
 Cl C  Rav=1.9925 sigma=0.0000  Rmin=1.9925  Rmax=1.9925     1
 
 selected bond angles (degree)
 --------------------
H11-C1-C2=109.93               H12-C1-C2=109.95               H12-C1-H11=108.00              H13-C1-C2=109.86               
H13-C1-H11=109.44              H13-C1-H12=109.63              N3-C2-C1=125.57                O10-C2-C1=117.60               
O10-C2-N3=116.83               N4-N3-C2=107.82                C5-N4-N3=104.43                C7-N4-N3=116.90                
C7-N4-C5= 59.62                C6-C5-N4=117.73                C7-C5-N4= 59.72                C7-C5-C6=123.84                
O10-C5-N4=105.85               O10-C5-C6=114.31               O10-C5-C7=119.96               H14-C6-C5=109.84               
H15-C6-C5=109.09               H15-C6-H14=109.26              H16-C6-C5=110.43               H16-C6-H14=108.80              
H16-C6-H15=109.40              C5-C7-N4= 60.66                O8-C7-N4=122.94                O8-C7-C5=129.59                
Cl9-C7-N4=111.59               Cl9-C7-C5=110.34               Cl9-C7-O8=112.12               C5-O10-C2=104.98               
 
 selected dihedral angles (degree)
 ---------------------------------
N3-C2-C1-H11=116.49           N3-C2-C1-H12=235.26           N3-C2-C1-H13=356.00           O10-C2-C1-H11=295.75          
O10-C2-C1-H12= 54.52          O10-C2-C1-H13=175.26          N4-N3-C2-C1=179.53            N4-N3-C2-O10=  0.26           
C5-N4-N3-C2=  1.62            C7-N4-N3-C2= 64.55            C6-C5-N4-N3=227.93            C6-C5-N4-C7=114.94            
C7-C5-N4-N3=112.99            O10-C5-N4-N3=357.18           O10-C5-N4-C7=244.19           H14-C6-C5-N4=185.73           
H14-C6-C5-C7=256.25           H14-C6-C5-O10= 60.55          H15-C6-C5-N4=305.46           H15-C6-C5-C7= 15.98           
H15-C6-C5-O10=180.29          H16-C6-C5-N4= 65.73           H16-C6-C5-C7=136.25           H16-C6-C5-O10=300.56          
C5-C7-N4-N3=268.48            O8-C7-N4-N3=148.02            O8-C7-N4-C5=239.55            Cl9-C7-N4-N3= 10.39           
Cl9-C7-N4-C5=101.91           N4-C7-C5-C6=255.10            N4-C7-C5-O10= 91.63           O8-C7-C5-N4=110.16            
O8-C7-C5-C6=  5.26            O8-C7-C5-O10=201.79           Cl9-C7-C5-N4=256.01           Cl9-C7-C5-C6=151.11           
Cl9-C7-C5-O10=347.64          C5-O10-C2-C1=178.53           C5-O10-C2-N3=357.86           C2-O10-C5-N4=  2.92           
C2-O10-C5-C6=134.15           C2-O10-C5-C7=299.11           
           -------------------------------------------------
          |                Final Singlepoint                |
           -------------------------------------------------

          ...................................................
          :                      SETUP                      :
          :.................................................:
          :  # basis functions                  58          :
          :  # atomic orbitals                  57          :
          :  # shells                           33          :
          :  # electrons                        56          :
          :  # halogen bonds                     4          :
          :  max. iterations                   250          :
          :  Hamiltonian                  GFN1-xTB          :
          :  restarted?                      false          :
          :  GBSA solvation                   true          :
          :  PC potential                    false          :
          :  electronic temp.          300.0000000     K    :
          :  accuracy                    1.0000000          :
          :  -> integral cutoff          0.2500000E+02      :
          :  -> integral neglect         0.1000000E-07      :
          :  -> SCF convergence          0.1000000E-05 Eh   :
          :  -> wf. convergence          0.2000000E-04 e    :
          :  Broyden damping             0.4000000          :
          ...................................................

 iter      E             dE          RMSdq      gap      omega  full diag
   1    -34.4089400 -0.344089E+02  0.792E-06    3.36       0.0  T
   2    -34.4089400 -0.419220E-12  0.289E-06    3.36    8644.1  T
   3    -34.4089400 -0.426326E-13  0.150E-06    3.36   16673.4  T

   *** convergence criteria satisfied after 3 iterations ***

         #    Occupation            Energy/Eh            Energy/eV
      -------------------------------------------------------------
         1        2.0000           -0.8411937             -22.8900
       ...           ...                  ...                  ...
        22        2.0000           -0.4456000             -12.1254
        23        2.0000           -0.4403162             -11.9816
        24        2.0000           -0.4346588             -11.8277
        25        2.0000           -0.4292860             -11.6815
        26        2.0000           -0.4208300             -11.4514
        27        2.0000           -0.4068709             -11.0715
        28        2.0000           -0.3492486              -9.5035 (HOMO)
        29                         -0.2256466              -6.1402 (LUMO)
        30                         -0.1980248              -5.3885
        31                         -0.1266583              -3.4465
        32                         -0.1172011              -3.1892
        33                         -0.0829313              -2.2567
       ...                                ...                  ...
        57                          0.6556131              17.8401
      -------------------------------------------------------------
                  HL-Gap            0.1236020 Eh            3.3634 eV
             Fermi-level           -0.2874476 Eh           -7.8218 eV

 SCC (total)                   0 d,  0 h,  0 min,  0.030 sec
 SCC setup                      ...        0 min,  0.001 sec (  2.171%)
 Dispersion                     ...        0 min,  0.000 sec (  0.233%)
 classical contributions        ...        0 min,  0.000 sec (  0.088%)
 integral evaluation            ...        0 min,  0.009 sec ( 30.115%)
 iterations                     ...        0 min,  0.002 sec (  7.637%)
 molecular gradient             ...        0 min,  0.017 sec ( 58.606%)
 printout                       ...        0 min,  0.000 sec (  1.033%)

         :::::::::::::::::::::::::::::::::::::::::::::::::::::
         ::                     SUMMARY                     ::
         :::::::::::::::::::::::::::::::::::::::::::::::::::::
         :: total energy             -34.154675261528 Eh    ::
         :: total w/o Gsasa/hb       -34.147447256613 Eh    ::
         :: gradient norm              0.000252076066 Eh/a0 ::
         :: HOMO-LUMO gap              3.363381755624 eV    ::
         ::.................................................::
         :: SCC energy               -34.408939995413 Eh    ::
         :: -> electrostatic           0.236402199944 Eh    ::
         :: -> Gsolv                  -0.097799232853 Eh    ::
         ::    -> Gelec               -0.090571227937 Eh    ::
         ::    -> Gsasa               -0.013995896386 Eh    ::
         ::    -> Ghb                 -0.000856387534 Eh    ::
         ::    -> Gshift               0.007624279005 Eh    ::
         :: repulsion energy           0.262042630621 Eh    ::
         :: dispersion energy         -0.007777896737 Eh    ::
         :: halogen bond corr.         0.000000000000 Eh    ::
         :: add. restraining           0.000000000000 Eh    ::
         :: total charge              -1.000000000000 e     ::
         :::::::::::::::::::::::::::::::::::::::::::::::::::::

           -------------------------------------------------
          |                Property Printout                |
           -------------------------------------------------

    * Orbital Energies and Occupations

         #    Occupation            Energy/Eh            Energy/eV
      -------------------------------------------------------------
         1        2.0000           -0.8411937             -22.8900
       ...           ...                  ...                  ...
        16        2.0000           -0.5178814             -14.0923
        17        2.0000           -0.5131435             -13.9633
        18        2.0000           -0.5045203             -13.7287
        19        2.0000           -0.5001417             -13.6095
        20        2.0000           -0.4946027             -13.4588
        21        2.0000           -0.4721435             -12.8477
        22        2.0000           -0.4456000             -12.1254
        23        2.0000           -0.4403162             -11.9816
        24        2.0000           -0.4346588             -11.8277
        25        2.0000           -0.4292860             -11.6815
        26        2.0000           -0.4208300             -11.4514
        27        2.0000           -0.4068709             -11.0715
        28        2.0000           -0.3492486              -9.5035 (HOMO)
        29                         -0.2256466              -6.1402 (LUMO)
        30                         -0.1980248              -5.3885
        31                         -0.1266583              -3.4465
        32                         -0.1172011              -3.1892
        33                         -0.0829313              -2.2567
        34                         -0.0605382              -1.6473
        35                         -0.0587894              -1.5997
        36                         -0.0520503              -1.4164
        37                         -0.0487807              -1.3274
        38                          0.0049969               0.1360
        39                          0.0249792               0.6797
       ...                                ...                  ...
        57                          0.6556131              17.8401
      -------------------------------------------------------------
                  HL-Gap            0.1236020 Eh            3.3634 eV
             Fermi-level           -0.2874476 Eh           -7.8218 eV

  Mulliken/CM5 charges         n(s)   n(p)   n(d)
     1C    -0.10686 -0.24395   1.008  3.099  0.000
     2C     0.39820  0.51015   0.999  2.603  0.000
     3N    -0.31989 -0.43782   1.574  3.746  0.000
     4N    -0.30456 -0.43379   1.579  3.726  0.000
     5C     0.27376  0.34376   1.013  2.713  0.000
     6C    -0.09895 -0.23685   1.010  3.089  0.000
     7C     0.47915  0.57007   0.986  2.535  0.000
     8O    -0.67860 -0.71685   1.734  4.945  0.000
     9Cl   -0.49544 -0.48531   1.980  5.521 -0.006
    10O    -0.43682 -0.49272   1.704  4.733  0.000
    11H     0.06131  0.11606   0.939  0.000  0.000
    12H     0.05656  0.11150   0.943  0.000  0.000
    13H     0.04874  0.10490   0.951  0.000  0.000
    14H     0.04147  0.09602   0.959  0.000  0.000
    15H     0.04461  0.10177   0.955  0.000  0.000
    16H     0.03731  0.09305   0.963  0.000  0.000

Wiberg/Mayer (AO) data.
largest (>0.10) Wiberg bond orders for each atom

 ---------------------------------------------------------------------------
     #   Z sym  total        # sym  WBO       # sym  WBO       # sym  WBO
 ---------------------------------------------------------------------------
     1   6 C    3.993 --     2 C    1.020    13 H    0.986    12 H    0.972
                            11 H    0.968
     2   6 C    3.897 --     3 N    1.759    10 O    1.026     1 C    1.020
     3   7 N    2.973 --     2 C    1.759     4 N    1.003    10 O    0.112
     4   7 N    2.948 --     3 N    1.003     5 C    0.876     7 C    0.846
     5   6 C    3.812 --     6 C    0.996    10 O    0.914     7 C    0.895
                             4 N    0.876
     6   6 C    3.995 --     5 C    0.996    15 H    0.984    14 H    0.982
                            16 H    0.982
     7   6 C    3.870 --     8 O    1.478     5 C    0.895     4 N    0.846
                             9 Cl   0.569
     8   8 O    1.792 --     7 C    1.478     9 Cl   0.119
     9  17 Cl   0.756 --     7 C    0.569     8 O    0.119
    10   8 O    2.150 --     2 C    1.026     5 C    0.914     3 N    0.112
    11   1 H    1.003 --     1 C    0.968
    12   1 H    1.002 --     1 C    0.972
    13   1 H    1.004 --     1 C    0.986
    14   1 H    1.007 --     6 C    0.982
    15   1 H    1.008 --     6 C    0.984
    16   1 H    1.008 --     6 C    0.982
 ---------------------------------------------------------------------------

Topologies differ in total number of bonds
Writing topology from bond orders to xtbtopo.mol

 dipole moment from electron density (au)
     X       Y       Z   
  -2.6131   3.9586   1.4414  total (Debye):   12.601

           -------------------------------------------------
          |                Geometry Summary                 |
           -------------------------------------------------

      molecular mass/u    :      161.5664778
   center of mass at/Å    :        0.2349461      -0.7328493       0.0638997
  moments of inertia/u·Å² :        0.3142758E+03   0.4090961E+03   0.5809123E+03
rotational constants/cm⁻¹ :        0.5363962E-01   0.4120702E-01   0.2901924E-01

 * 13 selected distances

     #   Z          #   Z                                           value/Å
     1   6 C        2   6 C                                       1.4859382
     2   6 C        3   7 N                                       1.2708138
     5   6 C        6   6 C                                       1.5084438 (max)
     5   6 C        7   6 C                                       1.4849496
     7   6 C        8   8 O                                       1.2356959
     2   6 C       10   8 O                                       1.3608455
     5   6 C       10   8 O                                       1.4126438
     1   6 C       11   1 H                                       1.0896836
     1   6 C       12   1 H                                       1.0888256
     1   6 C       13   1 H                                       1.0870189 (min)
     6   6 C       14   1 H                                       1.0885748
     6   6 C       15   1 H                                       1.0884630
     6   6 C       16   1 H                                       1.0896782

 * 4 distinct bonds (by element types)

   Z      Z             #   av. dist./Å        max./Å        min./Å
   1 H    6 C           6     1.0887074     1.0896836     1.0870189
   6 C    6 C           3     1.4931106     1.5084438     1.4849496
   6 C    7 N           1     1.2708138     1.2708138     1.2708138
   6 C    8 O           3     1.3363951     1.4126438     1.2356959


optimized geometry written to: xtbopt.xyz


           -------------------------------------------------
          | TOTAL ENERGY              -34.154675261528 Eh   |
          | GRADIENT NORM               0.000252076066 Eh/α |
          | HOMO-LUMO GAP               3.363381755624 eV   |
           -------------------------------------------------

------------------------------------------------------------------------
 * finished run on 2023/06/20 at 14:53:34.433     
------------------------------------------------------------------------
 total:
 * wall-time:     0 d,  0 h,  0 min,  1.676 sec
 *  cpu-time:     0 d,  0 h,  0 min,  1.487 sec
 * ratio c/w:     0.888 speedup
 SCF:
 * wall-time:     0 d,  0 h,  0 min,  0.058 sec
 *  cpu-time:     0 d,  0 h,  0 min,  0.038 sec
 * ratio c/w:     0.669 speedup
 ANC optimizer:
 * wall-time:     0 d,  0 h,  0 min,  1.540 sec
 *  cpu-time:     0 d,  0 h,  0 min,  1.429 sec
 * ratio c/w:     0.928 speedup

