43
 energy: -83.845296737701 gnorm: 0.000416314544 xtb: 6.5.1 (579679a)
C            5.51150358958423        0.99459261032703       -2.53196301397226
O            4.43887602921064        0.70103418267229       -1.64196878339223
C            4.70078161696727       -0.21813270164849       -0.68917174337693
O            5.80508397294073       -0.76088339891572       -0.60499946939728
C            3.58542822182685       -0.49920913395007        0.19804017170095
N            2.40526566530112        0.17882624651678       -0.02064628661819
C            1.40278693353877       -0.05565698180536        0.75586676928409
C            0.08976517265452        0.67379277898362        0.58071526025807
C           -0.06140827307187        1.14813269091767       -0.87127093818229
C            0.06401757719565        1.86333350935103        1.55020458895163
N           -0.97327481465555       -0.28942701180082        0.94985699974066
C           -2.31192787193597        0.19465531653379        0.78416830584140
O           -2.80659944694997        1.04330033722017        1.76186859339236
C           -3.76637386300380        0.48288181547710        2.65549575360866
C           -3.06174575318149       -0.33828377419217       -0.23329005023389
N           -2.58590692665319       -1.16303904687511       -1.18899948437678
N           -3.65717519568353       -1.45713237843851       -2.00111886292209
C           -4.68368618237036       -0.83286474034227       -1.53988988832851
C           -6.06529156655901       -0.83786193958383       -2.08524273691378
O           -4.40570740096390       -0.09601310721555       -0.42076394656961
N            1.46697675975260       -0.94587390778390        1.78939319882386
C            2.59159919055812       -1.70407919950879        2.10331772349422
O            2.55753111897028       -2.49951609653327        3.04337407397455
C            3.70549777312946       -1.43172472310018        1.22894376407075
O            4.84881040103225       -2.11689416202135        1.46145981412463
H            5.83104784971827        0.09007698878089       -3.05727014941841
H            5.13936512785529        1.72841102326582       -3.24509221300390
H            6.36276565328951        1.40569863535123       -1.98213169860952
H           -0.14239328512084        0.28899645850899       -1.53800072848276
H            0.80887554391853        1.73769633325500       -1.15716573531324
H           -0.95688425740448        1.75939999143179       -0.97471051894855
H           -0.83807113121106        2.45396147007496        1.40050462088436
H            0.93313745865000        2.49806211873057        1.38024322748598
H            0.07998344747042        1.50331566474624        2.57825760281751
H           -0.88029263093258       -1.09857161275520        0.33054541170369
H           -4.67448986364746        0.18431472006548        2.11874761889584
H           -4.01614469101430        1.25800141953183        3.38172079901294
H           -3.35787186228955       -0.38889818541705        3.18037361486597
H           -6.38503096130190        0.17689523924201       -2.32427267609237
H           -6.76383395722079       -1.24610894149052       -1.35400134474480
H           -6.09596333298868       -1.44564542759237       -2.98672495598321
H            0.63224444380436       -1.09880078944270        2.34016597645361
H            5.52873072076528       -1.84076229060517        0.80328633545011
