      -----------------------------------------------------------      
     |                   =====================                   |     
     |                           x T B                           |     
     |                   =====================                   |     
     |                         S. Grimme                         |     
     |          Mulliken Center for Theoretical Chemistry        |     
     |                    University of Bonn                     |     
      -----------------------------------------------------------      

   * xtb version 6.5.1 (579679a) compiled by 'ehlert@majestix' on 2022-07-11

   xtb is free software: you can redistribute it and/or modify it under
   the terms of the GNU Lesser General Public License as published by
   the Free Software Foundation, either version 3 of the License, or
   (at your option) any later version.
   
   xtb is distributed in the hope that it will be useful,
   but WITHOUT ANY WARRANTY; without even the implied warranty of
   MERCHANTABILITY or FITNESS FOR A PARTICULAR PURPOSE.  See the
   GNU Lesser General Public License for more details.
   
   Cite this work as:
   * C. Bannwarth, E. Caldeweyher, S. Ehlert, A. Hansen, P. Pracht,
     J. Seibert, S. Spicher, S. Grimme, WIREs Comput. Mol. Sci., 2020, 11,
     e01493. DOI: 10.1002/wcms.1493
   
   for GFN2-xTB:
   * C. Bannwarth, S. Ehlert and S. Grimme., J. Chem. Theory Comput., 2019,
     15, 1652-1671. DOI: 10.1021/acs.jctc.8b01176
   for GFN1-xTB:
   * S. Grimme, C. Bannwarth, P. Shushkov, J. Chem. Theory Comput., 2017,
     13, 1989-2009. DOI: 10.1021/acs.jctc.7b00118
   for GFN0-xTB:
   * P. Pracht, E. Caldeweyher, S. Ehlert, S. Grimme, ChemRxiv, 2019, preprint.
     DOI: 10.26434/chemrxiv.8326202.v1
   for GFN-FF:
   * S. Spicher and S. Grimme, Angew. Chem. Int. Ed., 2020, 59, 15665-15673.
     DOI: 10.1002/anie.202004239
   
   for ALPB and GBSA implicit solvation:
   * S. Ehlert, M. Stahn, S. Spicher, S. Grimme, J. Chem. Theory Comput.,
     2021, 17, 4250-4261. DOI: 10.1021/acs.jctc.1c00471
   
   for DFT-D4:
   * E. Caldeweyher, C. Bannwarth and S. Grimme, J. Chem. Phys., 2017,
     147, 034112. DOI: 10.1063/1.4993215
   * E. Caldeweyher, S. Ehlert, A. Hansen, H. Neugebauer, S. Spicher,
     C. Bannwarth and S. Grimme, J. Chem. Phys., 2019, 150, 154122.
     DOI: 10.1063/1.5090222
   * E. Caldeweyher, J.-M. Mewes, S. Ehlert and S. Grimme, Phys. Chem. Chem. Phys.
     2020, 22, 8499-8512. DOI: 10.1039/D0CP00502A
   
   for sTDA-xTB:
   * S. Grimme and C. Bannwarth, J. Chem. Phys., 2016, 145, 054103.
     DOI: 10.1063/1.4959605
   
   in the mass-spec context:
   * V. Asgeirsson, C. Bauer and S. Grimme, Chem. Sci., 2017, 8, 4879.
     DOI: 10.1039/c7sc00601b
   * J. Koopman and S. Grimme, ACS Omega 2019, 4, 12, 15120-15133.
     DOI: 10.1021/acsomega.9b02011
   
   for metadynamics refer to:
   * S. Grimme, J. Chem. Theory Comput., 2019, 155, 2847-2862
     DOI: 10.1021/acs.jctc.9b00143
   
   for SPH calculations refer to:
   * S. Spicher and S. Grimme, J. Chem. Theory Comput., 2021, 17, 1701-1714
     DOI: 10.1021/acs.jctc.0c01306
   
   with help from (in alphabetical order)
   P. Atkinson, C. Bannwarth, F. Bohle, G. Brandenburg, E. Caldeweyher
   M. Checinski, S. Dohm, S. Ehlert, S. Ehrlich, I. Gerasimov, C. Hölzer
   A. Katbashev, J. Koopman, C. Lavigne, S. Lehtola, F. März, M. Müller,
   F. Musil, H. Neugebauer, J. Pisarek, C. Plett, P. Pracht, F. Pultar,
   J. Seibert, P. Shushkov, S. Spicher, M. Stahn, M. Steiner, T. Strunk,
   J. Stückrath, T. Rose, and J. Unsleber
   
 * started run on 2023/06/20 at 15:11:38.203     

           -------------------------------------------------
          |                Calculation Setup                |
           -------------------------------------------------

          program call               : /lustre/hpc/kemi/ree/PhD/git/ReactivityQM/dep/xtb-6.5.1/bin/xtb --gfn 1 /lustre/hpc/kemi/ree/PhD/git/ReactivityQM/calculations/R01/reac02prodN11/conf12/R01_reac02prodN11_conf12_gfn1.xyz --opt --vfukui --chrg 1 --uhf 0 --alpb DMSO
          hostname                   : node312
          coordinate file            : /lustre/hpc/kemi/ree/PhD/git/ReactivityQM/calculations/R01/reac02prodN11/conf12/R01_reac02prodN11_conf12_gfn1.xyz
          omp threads                :                     1

   ID    Z sym.   atoms
    1    6 C      1, 3, 5, 6, 8, 11-15
    2    8 O      2, 4, 7, 9
    3    7 N      10, 16, 17
    4    1 H      18-33

           -------------------------------------------------
          |                 G F N 1 - x T B                 |
           -------------------------------------------------

        Reference                      10.1021/acs.jctc.7b00118
      * Hamiltonian:
        H0-scaling (s, p, d)           1.850000    2.250000    2.000000
        zeta-weighting                 0.000000
      * Dispersion:
        s8                             2.400000
        a1                             0.630000
        a2                             5.000000
        s9                             0.000000
      * Repulsion:
        kExp                           1.500000
        rExp                           1.000000
      * Coulomb:
        alpha                          2.000000
        third order                    atomic
        anisotropic                    false
      * Halogen bond correction:
        rad-scale                      1.300000
        damping                        0.440000

      * Solvation model:               ALPB
        Solvent                        DMSO
        Parameter file                 internal GFN1-xTB/ALPB
        Dielectric constant                4.6680E+01
        Reference state                gsolv [1 M gas/solution]
        Free energy shift                  7.6243E-03 Eh       4.7843E+00 kcal/mol
        Temperature                        2.9815E+02 K
        Density                            1.1000E+00 kg/L
        Solvent mass                       7.8130E+01 g/mol
        Interaction kernel             P16
        Born radius scaling (c1)           1.7672E+00
        Born radii integrator          GBOBC
        Born offset                        0.0000E+00 a0       0.0000E+00 AA
        H-bond correction              true
        Ion screening                  false
        Surface tension                    1.0000E-05 Eh       1.5569E+01 dyn/cm
        Grid points                               230 per atom

          ...................................................
          :                      SETUP                      :
          :.................................................:
          :  # basis functions                 100          :
          :  # atomic orbitals                 100          :
          :  # shells                           66          :
          :  # electrons                        94          :
          :  # halogen bonds                     0          :
          :  max. iterations                   250          :
          :  Hamiltonian                  GFN1-xTB          :
          :  restarted?                      false          :
          :  GBSA solvation                   true          :
          :  PC potential                    false          :
          :  electronic temp.          300.0000000     K    :
          :  accuracy                    1.0000000          :
          :  -> integral cutoff          0.2500000E+02      :
          :  -> integral neglect         0.1000000E-07      :
          :  -> SCF convergence          0.1000000E-05 Eh   :
          :  -> wf. convergence          0.2000000E-04 e    :
          :  Broyden damping             0.4000000          :
          ...................................................

 iter      E             dE          RMSdq      gap      omega  full diag
   1    -58.0703460 -0.580703E+02  0.805E+00    1.85       0.0  T
   2    -58.3383875 -0.268041E+00  0.484E+00    1.07       1.0  T
   3    -58.3273156  0.110719E-01  0.185E+00    1.07       1.0  T
   4    -58.3588569 -0.315413E-01  0.181E-01    0.90       1.0  T
   5    -58.3596753 -0.818426E-03  0.649E-02    0.93       1.0  T
   6    -58.3597632 -0.878545E-04  0.189E-02    0.95       1.0  T
   7    -58.3597692 -0.609266E-05  0.567E-03    0.95       3.1  T
   8    -58.3597696 -0.354732E-06  0.232E-03    0.95       7.5  T
   9    -58.3597697 -0.116639E-06  0.649E-04    0.95      26.8  T
  10    -58.3597697 -0.555738E-08  0.132E-04    0.95     131.4  T
  11    -58.3597697 -0.206967E-09  0.425E-05    0.95     409.5  T

   *** convergence criteria satisfied after 11 iterations ***

         #    Occupation            Energy/Eh            Energy/eV
      -------------------------------------------------------------
         1        2.0000           -0.9179261             -24.9780
       ...           ...                  ...                  ...
        41        2.0000           -0.5210429             -14.1783
        42        2.0000           -0.5133175             -13.9681
        43        2.0000           -0.5085611             -13.8387
        44        2.0000           -0.5040251             -13.7152
        45        2.0000           -0.4960239             -13.4975
        46        2.0000           -0.4803408             -13.0707
        47        2.0000           -0.4404847             -11.9862 (HOMO)
        48                         -0.4055259             -11.0349 (LUMO)
        49                         -0.3378090              -9.1923
        50                         -0.3027993              -8.2396
        51                         -0.2185793              -5.9478
        52                         -0.1792246              -4.8769
       ...                                ...                  ...
       100                          0.6835681              18.6008
      -------------------------------------------------------------
                  HL-Gap            0.0349587 Eh            0.9513 eV
             Fermi-level           -0.4230053 Eh          -11.5106 eV

 SCC (total)                   0 d,  0 h,  0 min,  0.133 sec
 SCC setup                      ...        0 min,  0.002 sec (  1.203%)
 Dispersion                     ...        0 min,  0.000 sec (  0.219%)
 classical contributions        ...        0 min,  0.000 sec (  0.068%)
 integral evaluation            ...        0 min,  0.052 sec ( 38.667%)
 iterations                     ...        0 min,  0.022 sec ( 16.684%)
 molecular gradient             ...        0 min,  0.057 sec ( 42.632%)
 printout                       ...        0 min,  0.001 sec (  0.487%)

         :::::::::::::::::::::::::::::::::::::::::::::::::::::
         ::                     SUMMARY                     ::
         :::::::::::::::::::::::::::::::::::::::::::::::::::::
         :: total energy             -57.793808650281 Eh    ::
         :: total w/o Gsasa/hb       -57.771706264348 Eh    ::
         :: gradient norm              0.110345159236 Eh/a0 ::
         :: HOMO-LUMO gap              0.951275507139 eV    ::
         ::.................................................::
         :: SCC energy               -58.359769720994 Eh    ::
         :: -> electrostatic           0.320322939346 Eh    ::
         :: -> Gsolv                  -0.109754681853 Eh    ::
         ::    -> Gelec               -0.087652295921 Eh    ::
         ::    -> Gsasa               -0.018222620587 Eh    ::
         ::    -> Ghb                 -0.011504044350 Eh    ::
         ::    -> Gshift               0.007624279005 Eh    ::
         :: repulsion energy           0.585511318983 Eh    ::
         :: dispersion energy         -0.019550248270 Eh    ::
         :: halogen bond corr.         0.000000000000 Eh    ::
         :: add. restraining           0.000000000000 Eh    ::
         :: total charge               1.000000000000 e     ::
         :::::::::::::::::::::::::::::::::::::::::::::::::::::

      ----------------------------------------------------------- 
     |                   =====================                   |
     |                        A N C O P T                        |
     |                   =====================                   |
     |               Approximate Normal Coordinate               |
     |                Rational Function Optimizer                |
      ----------------------------------------------------------- 

          ...................................................
          :                      SETUP                      :
          :.................................................:
          :   optimization level            normal          :
          :   max. optcycles                   200          :
          :   ANC micro-cycles                  20          :
          :   degrees of freedom                93          :
          :.................................................:
          :   RF solver                   davidson          :
          :   write xtbopt.log                true          :
          :   linear?                        false          :
          :   energy convergence         0.5000000E-05 Eh   :
          :   grad. convergence          0.1000000E-02 Eh/α :
          :   maximium RF displ.         1.0000000          :
          :   Hlow (freq-cutoff)         0.1000000E-01      :
          :   Hmax (freq-cutoff)         5.0000000          :
          :   S6 in model hess.         20.0000000          :
          ...................................................

generating ANC from model Hessian ...
Using Lindh-Hessian (1995)
 Shifting diagonal of input Hessian by   9.367899240590212E-003
 Lowest  eigenvalues of input Hessian
    0.000000    0.000000    0.000000    0.000000    0.000000    0.000000
    0.010000    0.010791    0.011100    0.011848    0.013599    0.014828
    0.015263    0.016174    0.018455    0.018917    0.019272    0.019888
 Highest eigenvalues
    1.777906    1.895597    1.956599    2.161557    2.299821    2.369050
 

........................................................................
.............................. CYCLE    1 ..............................
........................................................................
   1    -58.3597697 -0.583598E+02  0.155E-05    0.95       0.0  T
   2    -58.3597697 -0.176215E-11  0.653E-06    0.95    2664.2  T
   3    -58.3597697 -0.241585E-12  0.404E-06    0.95    4308.2  T
     SCC iter.                  ...        0 min,  0.006 sec
     gradient                   ...        0 min,  0.052 sec
 * total energy  :   -57.7938087 Eh     change       -0.2106049E-10 Eh
   gradient norm :     0.1103446 Eh/α   predicted     0.0000000E+00 (-100.00%)
   displ. norm   :     0.3104421 α      lambda       -0.1699048E-01
   maximum displ.:     0.1192715 α      in ANC's #21, #25, #19, ...

........................................................................
.............................. CYCLE    2 ..............................
........................................................................
   1    -58.3762930 -0.583763E+02  0.888E-02    1.09       0.0  T
   2    -58.3764818 -0.188750E-03  0.451E-02    1.10       1.0  T
   3    -58.3765162 -0.344301E-04  0.194E-02    1.10       1.0  T
   4    -58.3765177 -0.147614E-05  0.893E-03    1.10       1.9  T
   5    -58.3765182 -0.488623E-06  0.233E-03    1.11       7.5  T
   6    -58.3765183 -0.137810E-06  0.376E-04    1.11      46.3  T
   7    -58.3765183 -0.163603E-08  0.120E-04    1.11     145.1  T
   8    -58.3765183 -0.715445E-10  0.360E-05    1.11     483.2  T
     SCC iter.                  ...        0 min,  0.012 sec
     gradient                   ...        0 min,  0.031 sec
 * total energy  :   -57.8060662 Eh     change       -0.1225760E-01 Eh
   gradient norm :     0.0547422 Eh/α   predicted    -0.9318686E-02 ( -23.98%)
   displ. norm   :     0.3078956 α      lambda       -0.7171033E-02
   maximum displ.:     0.1289680 α      in ANC's #21, #25, #19, ...

........................................................................
.............................. CYCLE    3 ..............................
........................................................................
   1    -58.3872750 -0.583873E+02  0.764E-02    1.22       0.0  T
   2    -58.3874163 -0.141324E-03  0.367E-02    1.22       1.0  T
   3    -58.3874329 -0.165947E-04  0.167E-02    1.22       1.0  T
   4    -58.3874341 -0.116503E-05  0.816E-03    1.22       2.1  T
   5    -58.3874345 -0.375862E-06  0.194E-03    1.22       9.0  T
   6    -58.3874346 -0.111909E-06  0.343E-04    1.22      50.8  T
   7    -58.3874346 -0.176684E-08  0.126E-04    1.22     137.9  T
   8    -58.3874346 -0.804192E-10  0.413E-05    1.22     421.0  T
     SCC iter.                  ...        0 min,  0.016 sec
     gradient                   ...        0 min,  0.058 sec
 * total energy  :   -57.8102728 Eh     change       -0.4206583E-02 Eh
   gradient norm :     0.0167813 Eh/α   predicted    -0.3926479E-02 (  -6.66%)
   displ. norm   :     0.1672998 α      lambda       -0.8737962E-03
   maximum displ.:     0.0806358 α      in ANC's #4, #21, #12, ...

........................................................................
.............................. CYCLE    4 ..............................
........................................................................
   1    -58.3888970 -0.583889E+02  0.212E-02    1.24       0.0  T
   2    -58.3889067 -0.975019E-05  0.852E-03    1.24       2.0  T
   3    -58.3889073 -0.564604E-06  0.525E-03    1.24       3.3  T
   4    -58.3889074 -0.168745E-06  0.214E-03    1.24       8.1  T
   5    -58.3889075 -0.493513E-07  0.429E-04    1.24      40.6  T
   6    -58.3889075 -0.296911E-08  0.107E-04    1.24     162.8  T
   7    -58.3889075 -0.157037E-09  0.454E-05    1.24     383.1  T
     SCC iter.                  ...        0 min,  0.014 sec
     gradient                   ...        0 min,  0.041 sec
 * total energy  :   -57.8108935 Eh     change       -0.6206908E-03 Eh
   gradient norm :     0.0094651 Eh/α   predicted    -0.4491329E-03 ( -27.64%)
   displ. norm   :     0.1905618 α      lambda       -0.4919627E-03
   maximum displ.:     0.1138969 α      in ANC's #4, #3, #12, ...

........................................................................
.............................. CYCLE    5 ..............................
........................................................................
   1    -58.3893358 -0.583893E+02  0.172E-02    1.24       0.0  T
   2    -58.3893434 -0.755386E-05  0.819E-03    1.24       2.1  T
   3    -58.3893451 -0.171461E-05  0.426E-03    1.24       4.1  T
   4    -58.3893452 -0.130242E-06  0.170E-03    1.24      10.3  T
   5    -58.3893452 -0.334386E-08  0.341E-04    1.24      51.0  T
   6    -58.3893452 -0.153862E-08  0.866E-05    1.24     201.0  T
   7    -58.3893452 -0.105373E-09  0.400E-05    1.24     434.8  T
     SCC iter.                  ...        0 min,  0.010 sec
     gradient                   ...        0 min,  0.034 sec
 * total energy  :   -57.8112148 Eh     change       -0.3213098E-03 Eh
   gradient norm :     0.0054899 Eh/α   predicted    -0.2549149E-03 ( -20.66%)
   displ. norm   :     0.1503654 α      lambda       -0.1812311E-03
   maximum displ.:     0.0959014 α      in ANC's #4, #3, #7, ...

........................................................................
.............................. CYCLE    6 ..............................
........................................................................
   1    -58.3893990 -0.583894E+02  0.779E-03    1.24       0.0  T
   2    -58.3894004 -0.138713E-05  0.407E-03    1.24       4.3  T
   3    -58.3894009 -0.444050E-06  0.197E-03    1.24       8.8  T
   4    -58.3894009 -0.223648E-07  0.683E-04    1.24      25.5  T
   5    -58.3894009 -0.689198E-09  0.198E-04    1.24      87.7  T
   6    -58.3894009 -0.667129E-09  0.470E-05    1.24     370.0  T
     SCC iter.                  ...        0 min,  0.008 sec
     gradient                   ...        0 min,  0.030 sec
 * total energy  :   -57.8113495 Eh     change       -0.1346201E-03 Eh
   gradient norm :     0.0051698 Eh/α   predicted    -0.9271097E-04 ( -31.13%)
   displ. norm   :     0.1963602 α      lambda       -0.1800162E-03
   maximum displ.:     0.1218694 α      in ANC's #4, #3, #7, ...

........................................................................
.............................. CYCLE    7 ..............................
........................................................................
   1    -58.3892038 -0.583892E+02  0.693E-03    1.24       0.0  T
   2    -58.3892045 -0.672010E-06  0.322E-03    1.24       5.4  T
   3    -58.3892046 -0.978817E-07  0.197E-03    1.24       8.8  T
   4    -58.3892046 -0.355260E-07  0.571E-04    1.24      30.5  T
   5    -58.3892046 -0.127706E-08  0.176E-04    1.24      98.9  T
   6    -58.3892046 -0.637392E-09  0.499E-05    1.24     348.9  T
     SCC iter.                  ...        0 min,  0.008 sec
     gradient                   ...        0 min,  0.030 sec
 * total energy  :   -57.8114815 Eh     change       -0.1320149E-03 Eh
   gradient norm :     0.0050822 Eh/α   predicted    -0.9360083E-04 ( -29.10%)
   displ. norm   :     0.2057755 α      lambda       -0.1514535E-03
   maximum displ.:     0.1177205 α      in ANC's #4, #3, #2, ...

........................................................................
.............................. CYCLE    8 ..............................
........................................................................
   1    -58.3890776 -0.583891E+02  0.692E-03    1.24       0.0  T
   2    -58.3890783 -0.714232E-06  0.302E-03    1.24       5.8  T
   3    -58.3890783 -0.445177E-07  0.179E-03    1.24       9.7  T
   4    -58.3890784 -0.231718E-07  0.587E-04    1.24      29.7  T
   5    -58.3890784 -0.412113E-08  0.133E-04    1.24     130.5  T
   6    -58.3890784 -0.298556E-09  0.564E-05    1.24     308.8  T
     SCC iter.                  ...        0 min,  0.008 sec
     gradient                   ...        0 min,  0.030 sec
 * total energy  :   -57.8115879 Eh     change       -0.1064529E-03 Eh
   gradient norm :     0.0044818 Eh/α   predicted    -0.7893442E-04 ( -25.85%)
   displ. norm   :     0.1704746 α      lambda       -0.9985585E-04
   maximum displ.:     0.0826987 α      in ANC's #4, #3, #2, ...

........................................................................
.............................. CYCLE    9 ..............................
........................................................................
   1    -58.3891933 -0.583892E+02  0.608E-03    1.25       0.0  T
   2    -58.3891941 -0.773224E-06  0.306E-03    1.25       5.7  T
   3    -58.3891942 -0.172500E-06  0.167E-03    1.25      10.4  T
   4    -58.3891943 -0.241013E-07  0.505E-04    1.25      34.5  T
   5    -58.3891943 -0.750575E-09  0.116E-04    1.25     150.6  T
   6    -58.3891943 -0.853362E-10  0.455E-05    1.25     383.0  T
     SCC iter.                  ...        0 min,  0.008 sec
     gradient                   ...        0 min,  0.031 sec
 * total energy  :   -57.8116594 Eh     change       -0.7152410E-04 Eh
   gradient norm :     0.0037807 Eh/α   predicted    -0.5138094E-04 ( -28.16%)
   displ. norm   :     0.1587695 α      lambda       -0.7625358E-04
   maximum displ.:     0.0897127 α      in ANC's #2, #3, #15, ...

........................................................................
.............................. CYCLE   10 ..............................
........................................................................
   1    -58.3893781 -0.583894E+02  0.527E-03    1.26       0.0  T
   2    -58.3893786 -0.519633E-06  0.259E-03    1.26       6.7  T
   3    -58.3893788 -0.118418E-06  0.151E-03    1.26      11.5  T
   4    -58.3893788 -0.236784E-07  0.413E-04    1.26      42.2  T
   5    -58.3893788 -0.354227E-09  0.119E-04    1.26     146.5  T
   6    -58.3893788 -0.963354E-10  0.445E-05    1.26     391.4  T
     SCC iter.                  ...        0 min,  0.008 sec
     gradient                   ...        0 min,  0.030 sec
 * total energy  :   -57.8117167 Eh     change       -0.5722459E-04 Eh
   gradient norm :     0.0033526 Eh/α   predicted    -0.3908871E-04 ( -31.69%)
   displ. norm   :     0.1743904 α      lambda       -0.8572333E-04
   maximum displ.:     0.1147303 α      in ANC's #2, #3, #15, ...

........................................................................
.............................. CYCLE   11 ..............................
........................................................................
   1    -58.3897435 -0.583897E+02  0.594E-03    1.27       0.0  T
   2    -58.3897440 -0.537117E-06  0.283E-03    1.27       6.1  T
   3    -58.3897441 -0.783290E-07  0.177E-03    1.27       9.8  T
   4    -58.3897441 -0.358060E-07  0.448E-04    1.27      38.8  T
   5    -58.3897441 -0.128670E-08  0.163E-04    1.27     106.6  T
   6    -58.3897441 -0.224460E-09  0.587E-05    1.27     296.4  T
     SCC iter.                  ...        0 min,  0.008 sec
     gradient                   ...        0 min,  0.035 sec
 * total energy  :   -57.8117853 Eh     change       -0.6861187E-04 Eh
   gradient norm :     0.0032675 Eh/α   predicted    -0.4416592E-04 ( -35.63%)
   displ. norm   :     0.2925472 α      lambda       -0.1294476E-03
   maximum displ.:     0.1967980 α      in ANC's #2, #3, #15, ...

........................................................................
.............................. CYCLE   12 ..............................
........................................................................
   1    -58.3885563 -0.583886E+02  0.939E-03    1.29       0.0  T
   2    -58.3885578 -0.147962E-05  0.406E-03    1.30       4.3  T
   3    -58.3885578 -0.873918E-07  0.211E-03    1.30       8.3  T
   4    -58.3885579 -0.168671E-07  0.715E-04    1.31      24.4  T
   5    -58.3885579 -0.888312E-08  0.267E-04    1.31      65.1  T
   6    -58.3885579 -0.105885E-08  0.855E-05    1.31     203.7  T
   7    -58.3885579 -0.650502E-10  0.342E-05    1.31     508.9  T
     SCC iter.                  ...        0 min,  0.013 sec
     gradient                   ...        0 min,  0.046 sec
 * total energy  :   -57.8118805 Eh     change       -0.9522933E-04 Eh
   gradient norm :     0.0065257 Eh/α   predicted    -0.7026789E-04 ( -26.21%)
   displ. norm   :     0.3991682 α      lambda       -0.2360088E-03
   maximum displ.:     0.2901058 α      in ANC's #2, #1, #15, ...

........................................................................
.............................. CYCLE   13 ..............................
........................................................................
   1    -58.3892377 -0.583892E+02  0.129E-02    1.34       0.0  T
   2    -58.3892415 -0.379351E-05  0.619E-03    1.34       2.8  T
   3    -58.3892417 -0.238450E-06  0.353E-03    1.35       4.9  T
   4    -58.3892417 -0.305192E-07  0.105E-03    1.35      16.6  T
   5    -58.3892417 -0.147070E-07  0.387E-04    1.35      45.0  T
   6    -58.3892417 -0.232366E-08  0.138E-04    1.35     126.4  T
   7    -58.3892417 -0.200565E-09  0.538E-05    1.35     323.8  T
     SCC iter.                  ...        0 min,  0.010 sec
     gradient                   ...        0 min,  0.050 sec
 * total energy  :   -57.8120228 Eh     change       -0.1422516E-03 Eh
   gradient norm :     0.0076219 Eh/α   predicted    -0.1368069E-03 (  -3.83%)
   displ. norm   :     0.4304786 α      lambda       -0.2088309E-03
   maximum displ.:     0.3131868 α      in ANC's #2, #15, #3, ...

........................................................................
.............................. CYCLE   14 ..............................
........................................................................
   1    -58.3850226 -0.583850E+02  0.234E-02    1.38       0.0  T
   2    -58.3850293 -0.677629E-05  0.946E-03    1.40       1.8  T
   3    -58.3850297 -0.399388E-06  0.434E-03    1.41       4.0  T
   4    -58.3850299 -0.110202E-06  0.174E-03    1.41      10.0  T
   5    -58.3850299 -0.174042E-07  0.302E-04    1.41      57.6  T
   6    -58.3850299 -0.134517E-08  0.134E-04    1.41     129.6  T
   7    -58.3850299 -0.288274E-09  0.540E-05    1.41     322.3  T
     SCC iter.                  ...        0 min,  0.014 sec
     gradient                   ...        0 min,  0.055 sec
 * total energy  :   -57.8121364 Eh     change       -0.1136703E-03 Eh
   gradient norm :     0.0127784 Eh/α   predicted    -0.1237652E-03 (   8.88%)
   displ. norm   :     0.2101004 α      lambda       -0.3480664E-03
   maximum displ.:     0.1567745 α      in ANC's #2, #7, #1, ...

........................................................................
.............................. CYCLE   15 ..............................
........................................................................
   1    -58.3874173 -0.583874E+02  0.126E-02    1.43       0.0  T
   2    -58.3874211 -0.379251E-05  0.600E-03    1.43       2.9  T
   3    -58.3874216 -0.486642E-06  0.331E-03    1.44       5.3  T
   4    -58.3874217 -0.485603E-07  0.132E-03    1.44      13.2  T
   5    -58.3874217 -0.838796E-08  0.334E-04    1.44      52.1  T
   6    -58.3874217 -0.331654E-08  0.867E-05    1.44     200.8  T
   7    -58.3874217 -0.103348E-09  0.365E-05    1.44     477.0  T
     SCC iter.                  ...        0 min,  0.014 sec
     gradient                   ...        0 min,  0.055 sec
 * total energy  :   -57.8124116 Eh     change       -0.2751718E-03 Eh
   gradient norm :     0.0084972 Eh/α   predicted    -0.1817181E-03 ( -33.96%)
   displ. norm   :     0.4914073 α      lambda       -0.4790923E-03
   maximum displ.:     0.3898724 α      in ANC's #2, #15, #1, ...

........................................................................
.............................. CYCLE   16 ..............................
........................................................................
   1    -58.3864545 -0.583865E+02  0.264E-02    1.48       0.0  T
   2    -58.3864712 -0.166702E-04  0.932E-03    1.50       1.9  T
   3    -58.3864724 -0.124300E-05  0.549E-03    1.51       3.2  T
   4    -58.3864727 -0.225291E-06  0.250E-03    1.51       7.0  T
   5    -58.3864727 -0.107405E-07  0.430E-04    1.51      40.5  T
   6    -58.3864727 -0.295871E-08  0.200E-04    1.51      86.9  T
   7    -58.3864727 -0.839407E-09  0.794E-05    1.51     219.2  T
   8    -58.3864727 -0.335092E-10  0.212E-05    1.51     821.5  T
     SCC iter.                  ...        0 min,  0.016 sec
     gradient                   ...        0 min,  0.056 sec
 * total energy  :   -57.8128039 Eh     change       -0.3922948E-03 Eh
   gradient norm :     0.0072772 Eh/α   predicted    -0.2973963E-03 ( -24.19%)
   displ. norm   :     0.5685446 α      lambda       -0.5627489E-03
   maximum displ.:     0.4569143 α      in ANC's #2, #15, #1, ...

........................................................................
.............................. CYCLE   17 ..............................
........................................................................
   1    -58.3857939 -0.583858E+02  0.395E-02    1.58       0.0  T
   2    -58.3858349 -0.409764E-04  0.125E-02    1.62       1.4  T
   3    -58.3858372 -0.235562E-05  0.733E-03    1.63       2.4  T
   4    -58.3858376 -0.432302E-06  0.360E-03    1.63       4.8  T
   5    -58.3858377 -0.277840E-07  0.586E-04    1.64      29.7  T
   6    -58.3858377 -0.398312E-08  0.211E-04    1.64      82.6  T
   7    -58.3858377 -0.595143E-09  0.104E-04    1.64     167.0  T
   8    -58.3858377 -0.985878E-10  0.385E-05    1.64     451.8  T
     SCC iter.                  ...        0 min,  0.016 sec
     gradient                   ...        0 min,  0.055 sec
 * total energy  :   -57.8132665 Eh     change       -0.4626108E-03 Eh
   gradient norm :     0.0097635 Eh/α   predicted    -0.3723323E-03 ( -19.51%)
   displ. norm   :     0.6142004 α      lambda       -0.6579633E-03
   maximum displ.:     0.4889723 α      in ANC's #2, #15, #5, ...

........................................................................
.............................. CYCLE   18 ..............................
........................................................................
   1    -58.3830463 -0.583830E+02  0.664E-02    1.73       0.0  T
   2    -58.3831658 -0.119541E-03  0.183E-02    1.80       1.0  T
   3    -58.3831711 -0.529106E-05  0.104E-02    1.82       1.7  T
   4    -58.3831720 -0.852808E-06  0.538E-03    1.82       3.2  T
   5    -58.3831721 -0.942224E-07  0.895E-04    1.83      19.4  T
   6    -58.3831721 -0.747882E-08  0.310E-04    1.83      56.2  T
   7    -58.3831721 -0.902823E-09  0.157E-04    1.83     110.9  T
   8    -58.3831721 -0.218328E-09  0.584E-05    1.83     298.2  T
     SCC iter.                  ...        0 min,  0.016 sec
     gradient                   ...        0 min,  0.055 sec
 * total energy  :   -57.8137047 Eh     change       -0.4382165E-03 Eh
   gradient norm :     0.0183949 Eh/α   predicted    -0.4530919E-03 (   3.39%)
   displ. norm   :     0.4896533 α      lambda       -0.1184174E-02
   maximum displ.:     0.2368872 α      in ANC's #3, #2, #4, ...

........................................................................
.............................. CYCLE   19 ..............................
........................................................................
   1    -58.3945136 -0.583945E+02  0.844E-02    1.95       0.0  T
   2    -58.3947529 -0.239277E-03  0.258E-02    2.03       1.0  T
   3    -58.3947625 -0.966168E-05  0.158E-02    2.05       1.1  T
   4    -58.3947635 -0.962739E-06  0.851E-03    2.06       2.0  T
   5    -58.3947638 -0.299071E-06  0.131E-03    2.06      13.3  T
   6    -58.3947638 -0.220928E-07  0.495E-04    2.06      35.1  T
   7    -58.3947638 -0.236341E-08  0.281E-04    2.06      62.0  T
   8    -58.3947638 -0.662553E-09  0.658E-05    2.06     264.6  T
   9    -58.3947638 -0.779394E-10  0.218E-05    2.06     797.2  T
     SCC iter.                  ...        0 min,  0.017 sec
     gradient                   ...        0 min,  0.055 sec
 * total energy  :   -57.8134778 Eh     change        0.2268907E-03 Eh
   gradient norm :     0.0437747 Eh/α   predicted    -0.7340527E-03 (-423.53%)
   displ. norm   :     0.3518019 α      lambda       -0.2770874E-02
   maximum displ.:     0.2235349 α      in ANC's #2, #15, #17, ...

........................................................................
.............................. CYCLE   20 ..............................
........................................................................
   1    -58.3877845 -0.583878E+02  0.130E-01    2.13       0.0  T
   2    -58.3881216 -0.337060E-03  0.356E-02    2.17       1.0  T
   3    -58.3881342 -0.125712E-04  0.158E-02    2.18       1.1  T
   4    -58.3881353 -0.114346E-05  0.746E-03    2.18       2.3  T
   5    -58.3881356 -0.298197E-06  0.133E-03    2.18      13.1  T
   6    -58.3881356 -0.176027E-07  0.442E-04    2.18      39.4  T
   7    -58.3881356 -0.340412E-08  0.261E-04    2.18      66.8  T
   8    -58.3881356 -0.641755E-09  0.731E-05    2.18     238.1  T
   9    -58.3881356 -0.613625E-10  0.213E-05    2.18     818.1  T
     SCC iter.                  ...        0 min,  0.017 sec
     gradient                   ...        0 min,  0.055 sec
 * total energy  :   -57.8153116 Eh     change       -0.1833751E-02 Eh
   gradient norm :     0.0337473 Eh/α   predicted    -0.1556910E-02 ( -15.10%)
   displ. norm   :     0.4192147 α      lambda       -0.4493316E-02
   maximum displ.:     0.2349631 α      in ANC's #4, #6, #9, ...
 * RMSD in coord.:     0.7619814 α      energy gain  -0.2150294E-01 Eh

generating ANC from model Hessian ...
Using Lindh-Hessian (1995)
 Shifting diagonal of input Hessian by   9.304726527317647E-003
 Lowest  eigenvalues of input Hessian
    0.000000    0.000000    0.000000    0.000000    0.000000    0.000000
    0.010000    0.011307    0.011549    0.012392    0.013565    0.015140
    0.015748    0.017831    0.019038    0.019316    0.019634    0.020798
 Highest eigenvalues
    1.728082    1.917163    2.011636    2.232908    2.334491    2.439359
 

........................................................................
.............................. CYCLE   21 ..............................
........................................................................
   1    -58.3826722 -0.583827E+02  0.230E-01    2.26       0.0  T
   2    -58.3839838 -0.131155E-02  0.557E-02    2.29       1.0  T
   3    -58.3840339 -0.501202E-04  0.264E-02    2.30       1.0  T
   4    -58.3840365 -0.263069E-05  0.126E-02    2.30       1.4  T
   5    -58.3840375 -0.101828E-05  0.256E-03    2.30       6.8  T
   6    -58.3840376 -0.782683E-07  0.832E-04    2.30      20.9  T
   7    -58.3840376 -0.976181E-08  0.510E-04    2.30      34.2  T
   8    -58.3840376 -0.250277E-08  0.138E-04    2.30     126.3  T
   9    -58.3840376 -0.159545E-09  0.411E-05    2.30     423.7  T
     SCC iter.                  ...        0 min,  0.018 sec
     gradient                   ...        0 min,  0.056 sec
 * total energy  :   -57.8184677 Eh     change       -0.3156130E-02 Eh
   gradient norm :     0.0587622 Eh/α   predicted     0.0000000E+00 (-100.00%)
   displ. norm   :     0.1662361 α      lambda       -0.4837899E-02
   maximum displ.:     0.0700124 α      in ANC's #6, #22, #4, ...

........................................................................
.............................. CYCLE   22 ..............................
........................................................................
   1    -58.3874290 -0.583874E+02  0.355E-02    2.31       0.0  T
   2    -58.3874754 -0.463902E-04  0.127E-02    2.32       1.4  T
   3    -58.3874775 -0.203959E-05  0.777E-03    2.32       2.2  T
   4    -58.3874776 -0.145751E-06  0.403E-03    2.32       4.3  T
   5    -58.3874777 -0.954382E-07  0.899E-04    2.32      19.4  T
   6    -58.3874777 -0.169734E-07  0.313E-04    2.32      55.6  T
   7    -58.3874777 -0.881151E-09  0.108E-04    2.32     160.6  T
   8    -58.3874777 -0.141775E-09  0.335E-05    2.32     519.3  T
     SCC iter.                  ...        0 min,  0.016 sec
     gradient                   ...        0 min,  0.055 sec
 * total energy  :   -57.8222499 Eh     change       -0.3782142E-02 Eh
   gradient norm :     0.0345112 Eh/α   predicted    -0.2485935E-02 ( -34.27%)
   displ. norm   :     0.3242744 α      lambda       -0.5591010E-02
   maximum displ.:     0.1537014 α      in ANC's #6, #22, #7, ...

........................................................................
.............................. CYCLE   23 ..............................
........................................................................
   1    -58.3911581 -0.583912E+02  0.995E-02    2.36       0.0  T
   2    -58.3914973 -0.339180E-03  0.247E-02    2.38       1.0  T
   3    -58.3915114 -0.140417E-04  0.131E-02    2.38       1.3  T
   4    -58.3915122 -0.860896E-06  0.825E-03    2.38       2.1  T
   5    -58.3915128 -0.591828E-06  0.155E-03    2.38      11.2  T
   6    -58.3915128 -0.244336E-07  0.537E-04    2.38      32.4  T
   7    -58.3915128 -0.163651E-08  0.164E-04    2.38     106.0  T
   8    -58.3915128 -0.169358E-09  0.782E-05    2.38     222.5  T
     SCC iter.                  ...        0 min,  0.016 sec
     gradient                   ...        0 min,  0.055 sec
 * total energy  :   -57.8262780 Eh     change       -0.4028154E-02 Eh
   gradient norm :     0.0405519 Eh/α   predicted    -0.3090416E-02 ( -23.28%)
   displ. norm   :     0.3858430 α      lambda       -0.4905517E-02
   maximum displ.:     0.2028102 α      in ANC's #6, #22, #7, ...

........................................................................
.............................. CYCLE   24 ..............................
........................................................................
   1    -58.3940626 -0.583941E+02  0.141E-01    2.44       0.0  T
   2    -58.3946513 -0.588692E-03  0.376E-02    2.46       1.0  T
   3    -58.3946788 -0.275138E-04  0.176E-02    2.46       1.0  T
   4    -58.3946804 -0.160329E-05  0.116E-02    2.47       1.5  T
   5    -58.3946817 -0.126786E-05  0.169E-03    2.46      10.3  T
   6    -58.3946817 -0.193067E-07  0.631E-04    2.46      27.6  T
   7    -58.3946817 -0.312994E-08  0.226E-04    2.46      77.1  T
   8    -58.3946817 -0.247731E-09  0.798E-05    2.46     218.0  T
   9    -58.3946817 -0.374882E-10  0.175E-05    2.46     995.3  T
     SCC iter.                  ...        0 min,  0.018 sec
     gradient                   ...        0 min,  0.056 sec
 * total energy  :   -57.8303662 Eh     change       -0.4088224E-02 Eh
   gradient norm :     0.0550982 Eh/α   predicted    -0.2817924E-02 ( -31.07%)
   displ. norm   :     0.5620353 α      lambda       -0.8811842E-02
   maximum displ.:     0.2713306 α      in ANC's #6, #22, #17, ...

........................................................................
.............................. CYCLE   25 ..............................
........................................................................
   1    -58.4058444 -0.584058E+02  0.168E-01    2.59       0.0  T
   2    -58.4067668 -0.922375E-03  0.601E-02    2.60       1.0  T
   3    -58.4068270 -0.602532E-04  0.276E-02    2.60       1.0  T
   4    -58.4068345 -0.741120E-05  0.199E-02    2.60       1.0  T
   5    -58.4068371 -0.260024E-05  0.446E-03    2.60       3.9  T
   6    -58.4068371 -0.740850E-07  0.102E-03    2.60      17.1  T
   7    -58.4068371 -0.119127E-07  0.465E-04    2.60      37.5  T
   8    -58.4068371 -0.215491E-08  0.154E-04    2.60     113.3  T
   9    -58.4068371 -0.115179E-09  0.391E-05    2.60     445.5  T
     SCC iter.                  ...        0 min,  0.018 sec
     gradient                   ...        0 min,  0.031 sec
 * total energy  :   -57.8349582 Eh     change       -0.4591926E-02 Eh
   gradient norm :     0.0499802 Eh/α   predicted    -0.5797681E-02 (  26.26%)
   displ. norm   :     0.2020837 α      lambda       -0.5553041E-02
   maximum displ.:     0.0730234 α      in ANC's #17, #22, #18, ...

........................................................................
.............................. CYCLE   26 ..............................
........................................................................
   1    -58.4113480 -0.584113E+02  0.281E-02    2.60       0.0  T
   2    -58.4113580 -0.100499E-04  0.114E-02    2.60       1.5  T
   3    -58.4113586 -0.597121E-06  0.554E-03    2.60       3.1  T
   4    -58.4113588 -0.216845E-06  0.193E-03    2.60       9.0  T
   5    -58.4113588 -0.200661E-07  0.377E-04    2.60      46.2  T
   6    -58.4113588 -0.111749E-08  0.884E-05    2.60     196.9  T
   7    -58.4113588 -0.137227E-09  0.322E-05    2.60     540.9  T
     SCC iter.                  ...        0 min,  0.010 sec
     gradient                   ...        0 min,  0.030 sec
 * total energy  :   -57.8389484 Eh     change       -0.3990229E-02 Eh
   gradient norm :     0.0343031 Eh/α   predicted    -0.2889907E-02 ( -27.58%)
   displ. norm   :     0.4919339 α      lambda       -0.6672801E-02
   maximum displ.:     0.2001611 α      in ANC's #6, #17, #15, ...

........................................................................
.............................. CYCLE   27 ..............................
........................................................................
   1    -58.4172595 -0.584173E+02  0.914E-02    2.65       0.0  T
   2    -58.4174916 -0.232129E-03  0.389E-02    2.65       1.0  T
   3    -58.4175185 -0.268606E-04  0.148E-02    2.65       1.2  T
   4    -58.4175204 -0.194027E-05  0.832E-03    2.65       2.1  T
   5    -58.4175208 -0.326707E-06  0.257E-03    2.65       6.8  T
   6    -58.4175208 -0.241751E-07  0.457E-04    2.65      38.1  T
   7    -58.4175208 -0.506921E-08  0.173E-04    2.65     100.7  T
   8    -58.4175208 -0.337778E-09  0.508E-05    2.65     342.6  T
     SCC iter.                  ...        0 min,  0.011 sec
     gradient                   ...        0 min,  0.030 sec
 * total energy  :   -57.8440118 Eh     change       -0.5063366E-02 Eh
   gradient norm :     0.0362166 Eh/α   predicted    -0.4143856E-02 ( -18.16%)
   displ. norm   :     0.5605817 α      lambda       -0.5086077E-02
   maximum displ.:     0.2465505 α      in ANC's #6, #17, #3, ...

........................................................................
.............................. CYCLE   28 ..............................
........................................................................
   1    -58.4180091 -0.584180E+02  0.949E-02    2.70       0.0  T
   2    -58.4183219 -0.312816E-03  0.407E-02    2.69       1.0  T
   3    -58.4183658 -0.438248E-04  0.120E-02    2.69       1.5  T
   4    -58.4183666 -0.794220E-06  0.744E-03    2.69       2.3  T
   5    -58.4183668 -0.282904E-06  0.207E-03    2.69       8.4  T
   6    -58.4183669 -0.156449E-07  0.435E-04    2.69      40.0  T
   7    -58.4183669 -0.526806E-08  0.144E-04    2.69     121.2  T
   8    -58.4183669 -0.236327E-09  0.421E-05    2.69     413.5  T
     SCC iter.                  ...        0 min,  0.012 sec
     gradient                   ...        0 min,  0.030 sec
 * total energy  :   -57.8479476 Eh     change       -0.3935874E-02 Eh
   gradient norm :     0.0342341 Eh/α   predicted    -0.3342197E-02 ( -15.08%)
   displ. norm   :     0.5474604 α      lambda       -0.4081782E-02
   maximum displ.:     0.2246564 α      in ANC's #3, #6, #17, ...

........................................................................
.............................. CYCLE   29 ..............................
........................................................................
   1    -58.4231193 -0.584231E+02  0.850E-02    2.73       0.0  T
   2    -58.4233736 -0.254271E-03  0.359E-02    2.72       1.0  T
   3    -58.4234120 -0.384824E-04  0.985E-03    2.72       1.8  T
   4    -58.4234124 -0.354399E-06  0.611E-03    2.72       2.8  T
   5    -58.4234125 -0.150203E-06  0.104E-03    2.72      16.7  T
   6    -58.4234126 -0.982541E-08  0.324E-04    2.72      53.8  T
   7    -58.4234126 -0.265922E-08  0.998E-05    2.72     174.3  T
   8    -58.4234126 -0.100073E-09  0.293E-05    2.72     594.5  T
     SCC iter.                  ...        0 min,  0.013 sec
     gradient                   ...        0 min,  0.054 sec
 * total energy  :   -57.8510603 Eh     change       -0.3112626E-02 Eh
   gradient norm :     0.0273669 Eh/α   predicted    -0.2652584E-02 ( -14.78%)
   displ. norm   :     0.5000137 α      lambda       -0.3074282E-02
   maximum displ.:     0.2461114 α      in ANC's #3, #17, #7, ...

........................................................................
.............................. CYCLE   30 ..............................
........................................................................
   1    -58.4259091 -0.584259E+02  0.661E-02    2.74       0.0  T
   2    -58.4260611 -0.152028E-03  0.272E-02    2.73       1.0  T
   3    -58.4260848 -0.237066E-04  0.768E-03    2.73       2.3  T
   4    -58.4260850 -0.227459E-06  0.440E-03    2.73       4.0  T
   5    -58.4260851 -0.627845E-07  0.612E-04    2.73      28.4  T
   6    -58.4260851 -0.514918E-08  0.204E-04    2.73      85.5  T
   7    -58.4260851 -0.533809E-09  0.592E-05    2.73     294.2  T
   8    -58.4260851 -0.347029E-10  0.158E-05    2.73    1102.6  T
     SCC iter.                  ...        0 min,  0.011 sec
     gradient                   ...        0 min,  0.039 sec
 * total energy  :   -57.8532601 Eh     change       -0.2199832E-02 Eh
   gradient norm :     0.0192319 Eh/α   predicted    -0.1921448E-02 ( -12.65%)
   displ. norm   :     0.4446347 α      lambda       -0.1994704E-02
   maximum displ.:     0.2381552 α      in ANC's #3, #2, #7, ...

........................................................................
.............................. CYCLE   31 ..............................
........................................................................
   1    -58.4312191 -0.584312E+02  0.417E-02    2.75       0.0  T
   2    -58.4312773 -0.581653E-04  0.166E-02    2.75       1.0  T
   3    -58.4312851 -0.780933E-05  0.576E-03    2.75       3.0  T
   4    -58.4312852 -0.902845E-07  0.309E-03    2.75       5.6  T
   5    -58.4312852 -0.276687E-07  0.401E-04    2.75      43.4  T
   6    -58.4312852 -0.330240E-08  0.106E-04    2.75     164.7  T
   7    -58.4312852 -0.163929E-09  0.350E-05    2.75     496.7  T
     SCC iter.                  ...        0 min,  0.014 sec
     gradient                   ...        0 min,  0.055 sec
 * total energy  :   -57.8545768 Eh     change       -0.1316718E-02 Eh
   gradient norm :     0.0175431 Eh/α   predicted    -0.1194536E-02 (  -9.28%)
   displ. norm   :     0.4814209 α      lambda       -0.1467669E-02
   maximum displ.:     0.2737610 α      in ANC's #3, #2, #1, ...

........................................................................
.............................. CYCLE   32 ..............................
........................................................................
   1    -58.4309406 -0.584309E+02  0.386E-02    2.76       0.0  T
   2    -58.4309896 -0.489718E-04  0.147E-02    2.76       1.2  T
   3    -58.4309956 -0.602949E-05  0.553E-03    2.76       3.2  T
   4    -58.4309958 -0.107845E-06  0.301E-03    2.76       5.8  T
   5    -58.4309958 -0.333950E-07  0.316E-04    2.76      55.1  T
   6    -58.4309958 -0.167484E-08  0.106E-04    2.76     163.8  T
   7    -58.4309958 -0.179682E-09  0.375E-05    2.76     464.3  T
     SCC iter.                  ...        0 min,  0.014 sec
     gradient                   ...        0 min,  0.044 sec
 * total energy  :   -57.8556791 Eh     change       -0.1102330E-02 Eh
   gradient norm :     0.0137661 Eh/α   predicted    -0.9039148E-03 ( -18.00%)
   displ. norm   :     0.5831040 α      lambda       -0.1510513E-02
   maximum displ.:     0.3311342 α      in ANC's #3, #1, #2, ...

........................................................................
.............................. CYCLE   33 ..............................
........................................................................
   1    -58.4326179 -0.584326E+02  0.226E-02    2.78       0.0  T
   2    -58.4326366 -0.186247E-04  0.818E-03    2.78       2.1  T
   3    -58.4326379 -0.138174E-05  0.378E-03    2.78       4.6  T
   4    -58.4326380 -0.395483E-07  0.181E-03    2.78       9.6  T
   5    -58.4326380 -0.630619E-08  0.271E-04    2.78      64.2  T
   6    -58.4326380 -0.125908E-08  0.694E-05    2.78     251.0  T
   7    -58.4326380 -0.874252E-10  0.307E-05    2.78     567.1  T
     SCC iter.                  ...        0 min,  0.013 sec
     gradient                   ...        0 min,  0.055 sec
 * total energy  :   -57.8568953 Eh     change       -0.1216182E-02 Eh
   gradient norm :     0.0145707 Eh/α   predicted    -0.1012068E-02 ( -16.78%)
   displ. norm   :     0.6437740 α      lambda       -0.1714095E-02
   maximum displ.:     0.3352875 α      in ANC's #3, #1, #2, ...

........................................................................
.............................. CYCLE   34 ..............................
........................................................................
   1    -58.4315429 -0.584315E+02  0.402E-02    2.81       0.0  T
   2    -58.4315995 -0.565363E-04  0.137E-02    2.81       1.3  T
   3    -58.4316036 -0.415164E-05  0.570E-03    2.81       3.1  T
   4    -58.4316037 -0.629519E-07  0.329E-03    2.81       5.3  T
   5    -58.4316037 -0.764339E-07  0.416E-04    2.81      41.9  T
   6    -58.4316037 -0.324319E-08  0.138E-04    2.81     126.3  T
   7    -58.4316037 -0.203364E-09  0.448E-05    2.81     388.3  T
     SCC iter.                  ...        0 min,  0.014 sec
     gradient                   ...        0 min,  0.047 sec
 * total energy  :   -57.8580480 Eh     change       -0.1152717E-02 Eh
   gradient norm :     0.0198652 Eh/α   predicted    -0.1212248E-02 (   5.16%)
   displ. norm   :     0.5814919 α      lambda       -0.1539731E-02
   maximum displ.:     0.3622364 α      in ANC's #1, #3, #2, ...

........................................................................
.............................. CYCLE   35 ..............................
........................................................................
   1    -58.4361719 -0.584362E+02  0.292E-02    2.83       0.0  T
   2    -58.4362234 -0.514403E-04  0.147E-02    2.83       1.2  T
   3    -58.4362288 -0.537803E-05  0.595E-03    2.83       2.9  T
   4    -58.4362288 -0.216841E-07  0.363E-03    2.83       4.8  T
   5    -58.4362288 -0.502496E-07  0.427E-04    2.83      40.8  T
   6    -58.4362288 -0.443806E-08  0.145E-04    2.83     119.9  T
   7    -58.4362288 -0.349011E-09  0.430E-05    2.83     405.1  T
     SCC iter.                  ...        0 min,  0.010 sec
     gradient                   ...        0 min,  0.030 sec
 * total energy  :   -57.8591408 Eh     change       -0.1092738E-02 Eh
   gradient norm :     0.0162651 Eh/α   predicted    -0.1030184E-02 (  -5.72%)
   displ. norm   :     0.6035899 α      lambda       -0.1420191E-02
   maximum displ.:     0.3635616 α      in ANC's #1, #3, #2, ...

........................................................................
.............................. CYCLE   36 ..............................
........................................................................
   1    -58.4301711 -0.584302E+02  0.312E-02    2.84       0.0  T
   2    -58.4301915 -0.203955E-04  0.116E-02    2.84       1.5  T
   3    -58.4301928 -0.131189E-05  0.680E-03    2.84       2.6  T
   4    -58.4301929 -0.875199E-07  0.240E-03    2.84       7.3  T
   5    -58.4301930 -0.745439E-07  0.211E-04    2.84      82.3  T
   6    -58.4301930 -0.852005E-09  0.726E-05    2.84     239.8  T
   7    -58.4301930 -0.128864E-09  0.261E-05    2.84     666.0  T
     SCC iter.                  ...        0 min,  0.010 sec
     gradient                   ...        0 min,  0.030 sec
 * total energy  :   -57.8599201 Eh     change       -0.7793417E-03 Eh
   gradient norm :     0.0199336 Eh/α   predicted    -0.9688095E-03 (  24.31%)
   displ. norm   :     0.4873713 α      lambda       -0.1667284E-02
   maximum displ.:     0.3117054 α      in ANC's #1, #2, #3, ...

........................................................................
.............................. CYCLE   37 ..............................
........................................................................
   1    -58.4397422 -0.584397E+02  0.254E-02    2.86       0.0  T
   2    -58.4397565 -0.143377E-04  0.118E-02    2.86       1.5  T
   3    -58.4397571 -0.594027E-06  0.670E-03    2.86       2.6  T
   4    -58.4397571  0.120755E-07  0.218E-03    2.86       8.0  T
   5    -58.4397572 -0.989366E-07  0.252E-04    2.86      69.0  T
   6    -58.4397572 -0.746418E-09  0.937E-05    2.86     185.8  T
   7    -58.4397572 -0.848459E-10  0.356E-05    2.86     489.5  T
     SCC iter.                  ...        0 min,  0.010 sec
     gradient                   ...        0 min,  0.031 sec
 * total energy  :   -57.8609861 Eh     change       -0.1065934E-02 Eh
   gradient norm :     0.0150244 Eh/α   predicted    -0.1031658E-02 (  -3.22%)
   displ. norm   :     0.6037307 α      lambda       -0.1154737E-02
   maximum displ.:     0.3769312 α      in ANC's #1, #3, #2, ...

........................................................................
.............................. CYCLE   38 ..............................
........................................................................
   1    -58.4351833 -0.584352E+02  0.209E-02    2.85       0.0  T
   2    -58.4351918 -0.849302E-05  0.849E-03    2.85       2.1  T
   3    -58.4351925 -0.659538E-06  0.474E-03    2.85       3.7  T
   4    -58.4351925 -0.448898E-07  0.141E-03    2.85      12.3  T
   5    -58.4351926 -0.215496E-07  0.277E-04    2.85      62.8  T
   6    -58.4351926 -0.165082E-08  0.982E-05    2.85     177.3  T
   7    -58.4351926 -0.157158E-09  0.266E-05    2.85     655.3  T
     SCC iter.                  ...        0 min,  0.011 sec
     gradient                   ...        0 min,  0.040 sec
 * total energy  :   -57.8617652 Eh     change       -0.7791095E-03 Eh
   gradient norm :     0.0164053 Eh/α   predicted    -0.7878160E-03 (   1.12%)
   displ. norm   :     0.4741534 α      lambda       -0.9560116E-03
   maximum displ.:     0.3530154 α      in ANC's #1, #2, #3, ...

........................................................................
.............................. CYCLE   39 ..............................
........................................................................
   1    -58.4400944 -0.584401E+02  0.145E-02    2.89       0.0  T
   2    -58.4400992 -0.479368E-05  0.585E-03    2.89       3.0  T
   3    -58.4400998 -0.567024E-06  0.304E-03    2.89       5.7  T
   4    -58.4400998 -0.399531E-07  0.122E-03    2.89      14.3  T
   5    -58.4400998 -0.643138E-08  0.224E-04    2.89      77.8  T
   6    -58.4400998 -0.687571E-09  0.677E-05    2.89     257.3  T
   7    -58.4400998 -0.859544E-10  0.213E-05    2.89     818.6  T
     SCC iter.                  ...        0 min,  0.014 sec
     gradient                   ...        0 min,  0.054 sec
 * total energy  :   -57.8625035 Eh     change       -0.7383117E-03 Eh
   gradient norm :     0.0123031 Eh/α   predicted    -0.5854722E-03 ( -20.70%)
   displ. norm   :     0.6193736 α      lambda       -0.9536429E-03
   maximum displ.:     0.4429514 α      in ANC's #1, #2, #3, ...

........................................................................
.............................. CYCLE   40 ..............................
........................................................................
   1    -58.4398088 -0.584398E+02  0.194E-02    2.90       0.0  T
   2    -58.4398207 -0.118745E-04  0.548E-03    2.90       3.2  T
   3    -58.4398211 -0.430483E-06  0.285E-03    2.90       6.1  T
   4    -58.4398211 -0.128874E-07  0.120E-03    2.90      14.6  T
   5    -58.4398212 -0.890842E-08  0.299E-04    2.90      58.2  T
   6    -58.4398212 -0.110754E-08  0.709E-05    2.90     245.7  T
   7    -58.4398212 -0.898481E-10  0.292E-05    2.90     596.6  T
     SCC iter.                  ...        0 min,  0.014 sec
     gradient                   ...        0 min,  0.055 sec
 * total energy  :   -57.8631812 Eh     change       -0.6776836E-03 Eh
   gradient norm :     0.0114677 Eh/α   predicted    -0.6597449E-03 (  -2.65%)
   displ. norm   :     0.4968770 α      lambda       -0.7984080E-03
   maximum displ.:     0.3976381 α      in ANC's #1, #2, #7, ...

........................................................................
.............................. CYCLE   41 ..............................
........................................................................
   1    -58.4468306 -0.584468E+02  0.208E-02    2.95       0.0  T
   2    -58.4468393 -0.864521E-05  0.982E-03    2.94       1.8  T
   3    -58.4468401 -0.808703E-06  0.565E-03    2.94       3.1  T
   4    -58.4468401 -0.408867E-07  0.103E-03    2.94      16.9  T
   5    -58.4468401 -0.109426E-07  0.312E-04    2.94      55.8  T
   6    -58.4468401 -0.272665E-08  0.764E-05    2.94     227.8  T
   7    -58.4468401 -0.136318E-09  0.214E-05    2.94     813.8  T
     SCC iter.                  ...        0 min,  0.010 sec
     gradient                   ...        0 min,  0.041 sec
 * total energy  :   -57.8635982 Eh     change       -0.4170454E-03 Eh
   gradient norm :     0.0132747 Eh/α   predicted    -0.4977625E-03 (  19.35%)
   displ. norm   :     0.6459579 α      lambda       -0.8100325E-03
   maximum displ.:     0.4788036 α      in ANC's #1, #2, #3, ...

........................................................................
.............................. CYCLE   42 ..............................
........................................................................
   1    -58.4382094 -0.584382E+02  0.264E-02    2.94       0.0  T
   2    -58.4382234 -0.140234E-04  0.118E-02    2.94       1.5  T
   3    -58.4382242 -0.771753E-06  0.681E-03    2.94       2.6  T
   4    -58.4382243 -0.106531E-06  0.195E-03    2.94       8.9  T
   5    -58.4382243 -0.295514E-07  0.433E-04    2.94      40.2  T
   6    -58.4382243 -0.509609E-08  0.114E-04    2.94     152.7  T
   7    -58.4382243 -0.254296E-09  0.364E-05    2.94     477.8  T
     SCC iter.                  ...        0 min,  0.010 sec
     gradient                   ...        0 min,  0.029 sec
 * total energy  :   -57.8639576 Eh     change       -0.3593909E-03 Eh
   gradient norm :     0.0183791 Eh/α   predicted    -0.5740156E-03 (  59.72%)
   displ. norm   :     0.2472916 α      lambda       -0.4787566E-03
   maximum displ.:     0.1682727 α      in ANC's #1, #2, #7, ...
 * RMSD in coord.:     1.4447270 α      energy gain  -0.4864600E-01 Eh

generating ANC from model Hessian ...
Using Lindh-Hessian (1995)
 Shifting diagonal of input Hessian by   9.502557277527550E-003
 Lowest  eigenvalues of input Hessian
    0.000000    0.000000    0.000000    0.000000    0.000000    0.000000
    0.010000    0.010487    0.011141    0.011813    0.013694    0.014146
    0.014805    0.017353    0.018023    0.019017    0.019634    0.019809
 Highest eigenvalues
    1.828109    1.951129    1.985024    2.216200    2.344691    2.416360
 

........................................................................
.............................. CYCLE   43 ..............................
........................................................................
   1    -58.4386876 -0.584387E+02  0.123E-02    2.94       0.0  T
   2    -58.4386914 -0.376615E-05  0.606E-03    2.94       2.9  T
   3    -58.4386915 -0.133747E-06  0.339E-03    2.94       5.1  T
   4    -58.4386915 -0.123550E-07  0.912E-04    2.94      19.1  T
   5    -58.4386915 -0.107455E-07  0.206E-04    2.94      84.5  T
   6    -58.4386915 -0.115269E-08  0.568E-05    2.94     306.5  T
   7    -58.4386915 -0.519194E-10  0.200E-05    2.94     870.4  T
     SCC iter.                  ...        0 min,  0.014 sec
     gradient                   ...        0 min,  0.055 sec
 * total energy  :   -57.8642251 Eh     change       -0.2674736E-03 Eh
   gradient norm :     0.0111419 Eh/α   predicted     0.0000000E+00 (-100.00%)
   displ. norm   :     0.0961878 α      lambda       -0.3401313E-03
   maximum displ.:     0.0478979 α      in ANC's #2, #1, #3, ...

........................................................................
.............................. CYCLE   44 ..............................
........................................................................
   1    -58.4431095 -0.584431E+02  0.908E-03    2.95       0.0  T
   2    -58.4431111 -0.165817E-05  0.492E-03    2.95       3.5  T
   3    -58.4431113 -0.181084E-06  0.269E-03    2.95       6.5  T
   4    -58.4431113 -0.176961E-07  0.772E-04    2.95      22.5  T
   5    -58.4431113 -0.514002E-08  0.104E-04    2.95     167.3  T
   6    -58.4431113 -0.199393E-09  0.345E-05    2.95     505.2  T
     SCC iter.                  ...        0 min,  0.012 sec
     gradient                   ...        0 min,  0.055 sec
 * total energy  :   -57.8644680 Eh     change       -0.2429751E-03 Eh
   gradient norm :     0.0040042 Eh/α   predicted    -0.1716398E-03 ( -29.36%)
   displ. norm   :     0.1665444 α      lambda       -0.2399296E-03
   maximum displ.:     0.0912671 α      in ANC's #1, #2, #7, ...

........................................................................
.............................. CYCLE   45 ..............................
........................................................................
   1    -58.4462189 -0.584462E+02  0.899E-03    2.95       0.0  T
   2    -58.4462211 -0.211035E-05  0.430E-03    2.95       4.0  T
   3    -58.4462212 -0.149108E-06  0.232E-03    2.95       7.5  T
   4    -58.4462212 -0.335516E-08  0.889E-04    2.95      19.6  T
   5    -58.4462212 -0.816836E-08  0.117E-04    2.95     149.0  T
   6    -58.4462212 -0.294079E-09  0.394E-05    2.95     441.5  T
     SCC iter.                  ...        0 min,  0.012 sec
     gradient                   ...        0 min,  0.055 sec
 * total energy  :   -57.8646341 Eh     change       -0.1661014E-03 Eh
   gradient norm :     0.0038144 Eh/α   predicted    -0.1233209E-03 ( -25.76%)
   displ. norm   :     0.1969916 α      lambda       -0.1624960E-03
   maximum displ.:     0.1172493 α      in ANC's #1, #2, #3, ...

........................................................................
.............................. CYCLE   46 ..............................
........................................................................
   1    -58.4465192 -0.584465E+02  0.550E-03    2.95       0.0  T
   2    -58.4465202 -0.948288E-06  0.206E-03    2.95       8.4  T
   3    -58.4465202 -0.498999E-07  0.100E-03    2.95      17.4  T
   4    -58.4465202 -0.773632E-09  0.469E-04    2.95      37.1  T
   5    -58.4465202 -0.170163E-08  0.754E-05    2.95     230.7  T
   6    -58.4465202 -0.115300E-09  0.271E-05    2.95     642.2  T
     SCC iter.                  ...        0 min,  0.012 sec
     gradient                   ...        0 min,  0.055 sec
 * total energy  :   -57.8647614 Eh     change       -0.1272663E-03 Eh
   gradient norm :     0.0049880 Eh/α   predicted    -0.8440357E-04 ( -33.68%)
   displ. norm   :     0.2348186 α      lambda       -0.1674364E-03
   maximum displ.:     0.1465696 α      in ANC's #1, #2, #4, ...

........................................................................
.............................. CYCLE   47 ..............................
........................................................................
   1    -58.4452843 -0.584453E+02  0.418E-03    2.95       0.0  T
   2    -58.4452846 -0.283980E-06  0.175E-03    2.95      10.0  T
   3    -58.4452846 -0.190442E-07  0.936E-04    2.95      18.6  T
   4    -58.4452846 -0.240273E-08  0.270E-04    2.95      64.5  T
   5    -58.4452846 -0.108690E-08  0.660E-05    2.95     263.8  T
   6    -58.4452846 -0.265317E-10  0.202E-05    2.95     861.7  T
     SCC iter.                  ...        0 min,  0.012 sec
     gradient                   ...        0 min,  0.055 sec
 * total energy  :   -57.8648969 Eh     change       -0.1354834E-03 Eh
   gradient norm :     0.0038409 Eh/α   predicted    -0.8833462E-04 ( -34.80%)
   displ. norm   :     0.2655711 α      lambda       -0.1605401E-03
   maximum displ.:     0.1708856 α      in ANC's #1, #2, #4, ...

........................................................................
.............................. CYCLE   48 ..............................
........................................................................
   1    -58.4435506 -0.584436E+02  0.485E-03    2.95       0.0  T
   2    -58.4435509 -0.292553E-06  0.245E-03    2.95       7.1  T
   3    -58.4435509 -0.318194E-07  0.132E-03    2.95      13.2  T
   4    -58.4435509 -0.102976E-07  0.288E-04    2.95      60.5  T
   5    -58.4435509 -0.897074E-09  0.798E-05    2.95     218.1  T
   6    -58.4435509 -0.477485E-10  0.244E-05    2.95     712.1  T
     SCC iter.                  ...        0 min,  0.012 sec
     gradient                   ...        0 min,  0.054 sec
 * total energy  :   -57.8650218 Eh     change       -0.1249499E-03 Eh
   gradient norm :     0.0031998 Eh/α   predicted    -0.8593342E-04 ( -31.23%)
   displ. norm   :     0.2426021 α      lambda       -0.1241926E-03
   maximum displ.:     0.1604842 α      in ANC's #1, #2, #8, ...

........................................................................
.............................. CYCLE   49 ..............................
........................................................................
   1    -58.4426974 -0.584427E+02  0.456E-03    2.95       0.0  T
   2    -58.4426978 -0.417853E-06  0.221E-03    2.95       7.9  T
   3    -58.4426979 -0.367668E-07  0.116E-03    2.95      15.0  T
   4    -58.4426979 -0.507693E-08  0.344E-04    2.95      50.6  T
   5    -58.4426979 -0.144442E-08  0.892E-05    2.95     195.1  T
   6    -58.4426979 -0.763336E-10  0.290E-05    2.95     601.2  T
     SCC iter.                  ...        0 min,  0.012 sec
     gradient                   ...        0 min,  0.054 sec
 * total energy  :   -57.8651210 Eh     change       -0.9913920E-04 Eh
   gradient norm :     0.0037167 Eh/α   predicted    -0.6575328E-04 ( -33.68%)
   displ. norm   :     0.2563469 α      lambda       -0.1203157E-03
   maximum displ.:     0.1710076 α      in ANC's #1, #2, #8, ...

........................................................................
.............................. CYCLE   50 ..............................
........................................................................
   1    -58.4426850 -0.584427E+02  0.436E-03    2.95       0.0  T
   2    -58.4426854 -0.407655E-06  0.197E-03    2.95       8.9  T
   3    -58.4426854 -0.234613E-07  0.990E-04    2.95      17.6  T
   4    -58.4426854 -0.314160E-08  0.296E-04    2.95      58.8  T
   5    -58.4426854 -0.130238E-08  0.816E-05    2.95     213.3  T
   6    -58.4426854 -0.670184E-10  0.282E-05    2.95     618.0  T
     SCC iter.                  ...        0 min,  0.012 sec
     gradient                   ...        0 min,  0.055 sec
 * total energy  :   -57.8652178 Eh     change       -0.9678382E-04 Eh
   gradient norm :     0.0038571 Eh/α   predicted    -0.6411141E-04 ( -33.76%)
   displ. norm   :     0.3262429 α      lambda       -0.1307557E-03
   maximum displ.:     0.2167019 α      in ANC's #1, #2, #8, ...

........................................................................
.............................. CYCLE   51 ..............................
........................................................................
   1    -58.4430517 -0.584431E+02  0.449E-03    2.96       0.0  T
   2    -58.4430520 -0.235706E-06  0.209E-03    2.96       8.3  T
   3    -58.4430520 -0.151330E-07  0.866E-04    2.96      20.1  T
   4    -58.4430520 -0.409052E-08  0.198E-04    2.96      88.0  T
   5    -58.4430520 -0.589374E-09  0.729E-05    2.96     238.6  T
     SCC iter.                  ...        0 min,  0.010 sec
     gradient                   ...        0 min,  0.054 sec
 * total energy  :   -57.8653163 Eh     change       -0.9858299E-04 Eh
   gradient norm :     0.0037986 Eh/α   predicted    -0.7233952E-04 ( -26.62%)
   displ. norm   :     0.3126182 α      lambda       -0.1034548E-03
   maximum displ.:     0.2081389 α      in ANC's #1, #2, #8, ...

........................................................................
.............................. CYCLE   52 ..............................
........................................................................
   1    -58.4439733 -0.584440E+02  0.418E-03    2.96       0.0  T
   2    -58.4439735 -0.169820E-06  0.197E-03    2.96       8.8  T
   3    -58.4439735 -0.229040E-07  0.984E-04    2.96      17.7  T
   4    -58.4439735 -0.107505E-07  0.174E-04    2.96     100.2  T
   5    -58.4439735 -0.224226E-09  0.626E-05    2.96     278.3  T
     SCC iter.                  ...        0 min,  0.010 sec
     gradient                   ...        0 min,  0.055 sec
 * total energy  :   -57.8654024 Eh     change       -0.8604692E-04 Eh
   gradient norm :     0.0030961 Eh/α   predicted    -0.5678455E-04 ( -34.01%)
   displ. norm   :     0.4512207 α      lambda       -0.1322595E-03
   maximum displ.:     0.2994286 α      in ANC's #1, #2, #8, ...

........................................................................
.............................. CYCLE   53 ..............................
........................................................................
   1    -58.4440025 -0.584440E+02  0.636E-03    2.97       0.0  T
   2    -58.4440032 -0.779353E-06  0.281E-03    2.97       6.2  T
   3    -58.4440033 -0.928354E-07  0.142E-03    2.97      12.3  T
   4    -58.4440034 -0.134312E-07  0.378E-04    2.97      46.1  T
   5    -58.4440034 -0.128358E-08  0.109E-04    2.97     159.5  T
   6    -58.4440034 -0.110980E-09  0.352E-05    2.97     494.5  T
     SCC iter.                  ...        0 min,  0.012 sec
     gradient                   ...        0 min,  0.055 sec
 * total energy  :   -57.8654875 Eh     change       -0.8513091E-04 Eh
   gradient norm :     0.0033567 Eh/α   predicted    -0.7960035E-04 (  -6.50%)
   displ. norm   :     0.2396992 α      lambda       -0.9589486E-04
   maximum displ.:     0.1483800 α      in ANC's #1, #2, #14, ...

........................................................................
.............................. CYCLE   54 ..............................
........................................................................
   1    -58.4468762 -0.584469E+02  0.756E-03    2.97       0.0  T
   2    -58.4468771 -0.961472E-06  0.340E-03    2.97       5.1  T
   3    -58.4468772 -0.882890E-07  0.189E-03    2.97       9.2  T
   4    -58.4468772 -0.102478E-07  0.520E-04    2.97      33.5  T
   5    -58.4468772 -0.355500E-08  0.860E-05    2.97     202.5  T
   6    -58.4468772 -0.114646E-09  0.244E-05    2.97     714.1  T
     SCC iter.                  ...        0 min,  0.012 sec
     gradient                   ...        0 min,  0.053 sec
 * total energy  :   -57.8655351 Eh     change       -0.4762185E-04 Eh
   gradient norm :     0.0042588 Eh/α   predicted    -0.5070407E-04 (   6.47%)
   displ. norm   :     0.2817747 α      lambda       -0.6596973E-04
   maximum displ.:     0.1776662 α      in ANC's #2, #1, #14, ...

........................................................................
.............................. CYCLE   55 ..............................
........................................................................
   1    -58.4449536 -0.584450E+02  0.507E-03    2.97       0.0  T
   2    -58.4449539 -0.329527E-06  0.252E-03    2.97       6.9  T
   3    -58.4449540 -0.276792E-07  0.138E-03    2.97      12.6  T
   4    -58.4449540 -0.888546E-08  0.297E-04    2.97      58.6  T
   5    -58.4449540 -0.127778E-08  0.880E-05    2.97     197.9  T
   6    -58.4449540 -0.852936E-10  0.262E-05    2.97     664.4  T
     SCC iter.                  ...        0 min,  0.009 sec
     gradient                   ...        0 min,  0.055 sec
 * total energy  :   -57.8655774 Eh     change       -0.4221572E-04 Eh
   gradient norm :     0.0035560 Eh/α   predicted    -0.3560409E-04 ( -15.66%)
   displ. norm   :     0.1401413 α      lambda       -0.4759056E-04
   maximum displ.:     0.0883756 α      in ANC's #2, #1, #14, ...

........................................................................
.............................. CYCLE   56 ..............................
........................................................................
   1    -58.4447451 -0.584447E+02  0.385E-03    2.96       0.0  T
   2    -58.4447455 -0.424695E-06  0.127E-03    2.96      13.7  T
   3    -58.4447456 -0.170651E-07  0.700E-04    2.96      24.9  T
   4    -58.4447456 -0.100016E-08  0.255E-04    2.96      68.4  T
   5    -58.4447456 -0.479460E-09  0.569E-05    2.96     306.1  T
   6    -58.4447456 -0.368985E-10  0.184E-05    2.96     945.9  T
     SCC iter.                  ...        0 min,  0.012 sec
     gradient                   ...        0 min,  0.044 sec
 * total energy  :   -57.8656109 Eh     change       -0.3352964E-04 Eh
   gradient norm :     0.0027424 Eh/α   predicted    -0.2426362E-04 ( -27.64%)
   displ. norm   :     0.1015700 α      lambda       -0.4142414E-04
   maximum displ.:     0.0550478 α      in ANC's #2, #14, #1, ...

........................................................................
.............................. CYCLE   57 ..............................
........................................................................
   1    -58.4450073 -0.584450E+02  0.349E-03    2.96       0.0  T
   2    -58.4450075 -0.260117E-06  0.137E-03    2.96      12.7  T
   3    -58.4450076 -0.909972E-08  0.735E-04    2.96      23.7  T
   4    -58.4450076 -0.111797E-08  0.236E-04    2.96      73.6  T
   5    -58.4450076 -0.575049E-09  0.550E-05    2.96     316.6  T
   6    -58.4450076 -0.414815E-10  0.204E-05    2.96     854.0  T
     SCC iter.                  ...        0 min,  0.012 sec
     gradient                   ...        0 min,  0.044 sec
 * total energy  :   -57.8656358 Eh     change       -0.2489652E-04 Eh
   gradient norm :     0.0021528 Eh/α   predicted    -0.2092780E-04 ( -15.94%)
   displ. norm   :     0.0478223 α      lambda       -0.2241697E-04
   maximum displ.:     0.0250736 α      in ANC's #14, #8, #5, ...

........................................................................
.............................. CYCLE   58 ..............................
........................................................................
   1    -58.4454711 -0.584455E+02  0.286E-03    2.96       0.0  T
   2    -58.4454712 -0.153046E-06  0.123E-03    2.96      14.1  T
   3    -58.4454712 -0.811715E-08  0.666E-04    2.96      26.1  T
   4    -58.4454712 -0.118678E-08  0.205E-04    2.96      84.9  T
   5    -58.4454712 -0.563347E-09  0.460E-05    2.96     378.5  T
   6    -58.4454712 -0.275904E-10  0.151E-05    2.96    1152.7  T
     SCC iter.                  ...        0 min,  0.012 sec
     gradient                   ...        0 min,  0.055 sec
 * total energy  :   -57.8656514 Eh     change       -0.1564353E-04 Eh
   gradient norm :     0.0019938 Eh/α   predicted    -0.1123542E-04 ( -28.18%)
   displ. norm   :     0.1703852 α      lambda       -0.3110084E-04
   maximum displ.:     0.0993829 α      in ANC's #14, #2, #1, ...

........................................................................
.............................. CYCLE   59 ..............................
........................................................................
   1    -58.4447216 -0.584447E+02  0.539E-03    2.95       0.0  T
   2    -58.4447222 -0.603589E-06  0.209E-03    2.95       8.3  T
   3    -58.4447223 -0.496510E-07  0.115E-03    2.95      15.2  T
   4    -58.4447223 -0.612818E-08  0.382E-04    2.95      45.5  T
   5    -58.4447223 -0.108302E-08  0.105E-04    2.95     165.7  T
   6    -58.4447223 -0.106034E-09  0.294E-05    2.95     592.2  T
     SCC iter.                  ...        0 min,  0.015 sec
     gradient                   ...        0 min,  0.055 sec
 * total energy  :   -57.8656747 Eh     change       -0.2330594E-04 Eh
   gradient norm :     0.0037430 Eh/α   predicted    -0.1575385E-04 ( -32.40%)
   displ. norm   :     0.1373369 α      lambda       -0.3518851E-04
   maximum displ.:     0.0972517 α      in ANC's #1, #2, #8, ...

........................................................................
.............................. CYCLE   60 ..............................
........................................................................
   1    -58.4461195 -0.584461E+02  0.389E-03    2.95       0.0  T
   2    -58.4461197 -0.182652E-06  0.180E-03    2.95       9.7  T
   3    -58.4461197 -0.141960E-07  0.984E-04    2.95      17.7  T
   4    -58.4461197 -0.675426E-08  0.242E-04    2.95      71.8  T
   5    -58.4461197 -0.436565E-09  0.642E-05    2.95     271.1  T
   6    -58.4461197 -0.622506E-10  0.194E-05    2.95     895.7  T
     SCC iter.                  ...        0 min,  0.015 sec
     gradient                   ...        0 min,  0.055 sec
 * total energy  :   -57.8656914 Eh     change       -0.1662469E-04 Eh
   gradient norm :     0.0038357 Eh/α   predicted    -0.1792631E-04 (   7.83%)
   displ. norm   :     0.0721095 α      lambda       -0.3514758E-04
   maximum displ.:     0.0450592 α      in ANC's #14, #4, #5, ...

........................................................................
[...]
H           -3.14555654753378       -0.82814448641366        1.30786131710074
 
 Bond Distances (Angstroems)
 ---------------------------
C1-O2=1.4329         C1-H18=1.0925        C1-H19=1.0882        C1-H20=1.0926        O2-C1=1.4329         O2-C3=1.3275         
C3-O2=1.3275         C3-O4=1.2092         C3-C5=1.4952         O4-C3=1.2092         C5-C3=1.4952         C5-C6=1.3667         
C5-N17=1.3682        C6-C5=1.3667         C6-O7=1.3320         C6-C8=1.4571         O7-C6=1.3320         O7-H21=0.9761        
C8-C6=1.4571         C8-O9=1.2231         C8-N10=1.3894        O9-C8=1.2231         N10-C8=1.3894        N10-C11=1.4633       
N10-C12=1.3728       C11-N10=1.4633       C11-H23=1.0795       C11-H24=1.0905       C11-H25=1.0901       C12-N10=1.3728       
C12-C13=1.5248       C12-N17=1.2908       C13-C12=1.5248       C13-C14=1.5284       C13-C15=1.5314       C13-N16=1.5156       
C14-C13=1.5284       C14-H26=1.0860       C14-H27=1.0887       C14-H28=1.0899       C15-C13=1.5314       C15-H29=1.0882       
C15-H30=1.0886       C15-H31=1.0889       N16-C13=1.5156       N16-H22=1.0146       N16-H32=1.0148       N16-H33=1.0131       
N17-C5=1.3682        N17-C12=1.2908       H18-C1=1.0925        H19-C1=1.0882        H20-C1=1.0926        H21-O7=0.9761        
H22-N16=1.0146       H23-C11=1.0795       H24-C11=1.0905       H25-C11=1.0901       H26-C14=1.0860       H27-C14=1.0887       
H28-C14=1.0899       H29-C15=1.0882       H30-C15=1.0886       H31-C15=1.0889       H32-N16=1.0148       H33-N16=1.0131       
 C  H  Rav=1.0886 sigma=0.0033  Rmin=1.0795  Rmax=1.0926    12
 C  C  Rav=1.4839 sigma=0.0584  Rmin=1.3667  Rmax=1.5314     6
 N  H  Rav=1.0142 sigma=0.0008  Rmin=1.0131  Rmax=1.0148     3
 N  C  Rav=1.4000 sigma=0.0721  Rmin=1.2908  Rmax=1.5156     6
 O  H  Rav=0.9761 sigma=0.0000  Rmin=0.9761  Rmax=0.9761     1
 O  C  Rav=1.3049 sigma=0.0818  Rmin=1.2092  Rmax=1.4329     5
 
 selected bond angles (degree)
 --------------------
H18-C1-O2=110.03               H19-C1-O2=106.61               H19-C1-H18=110.47              H20-C1-O2=109.90               
H20-C1-H18=109.38              H20-C1-H19=110.41              C3-O2-C1=116.53                O4-C3-O2=123.71                
C5-C3-O2=113.21                C5-C3-O4=123.08                C6-C5-C3=127.00                N17-C5-C3=113.57               
N17-C5-C6=119.43               O7-C6-C5=125.04                C8-C6-C5=119.49                C8-C6-O7=115.47                
H21-O7-C6=109.03               O9-C8-C6=122.19                N10-C8-C6=116.29               N10-C8-O9=121.52               
C11-N10-C8=111.81              C12-N10-C8=120.66              C12-N10-C11=127.53             
 
 selected dihedral angles (degree)
 ---------------------------------
C3-O2-C1-H18= 56.90           C3-O2-C1-H19=176.72           C3-O2-C1-H20=296.40           O4-C3-O2-C1=359.73            
C5-C3-O2-C1=179.55            C6-C5-C3-O2=  1.69            C6-C5-C3-O4=181.52            N17-C5-C3-O2=181.98           
N17-C5-C3-O4=  1.81           O7-C6-C5-C3=  0.11            O7-C6-C5-N17=179.80           C8-C6-C5-C3=180.05            
C8-C6-C5-N17=359.75           H21-O7-C6-C5=179.46           H21-O7-C6-C8=359.51           O9-C8-C6-C5=180.38            
O9-C8-C6-O7=  0.33            N10-C8-C6-C5=  0.38           N10-C8-C6-O7=180.34           C11-N10-C8-C6=180.47          
C11-N10-C8-O9=  0.47          C12-N10-C8-C6=359.67          C12-N10-C8-O9=179.67          
           -------------------------------------------------
          |                Final Singlepoint                |
           -------------------------------------------------

          ...................................................
          :                      SETUP                      :
          :.................................................:
          :  # basis functions                 100          :
          :  # atomic orbitals                 100          :
          :  # shells                           66          :
          :  # electrons                        94          :
          :  # halogen bonds                     0          :
          :  max. iterations                   250          :
          :  Hamiltonian                  GFN1-xTB          :
          :  restarted?                      false          :
          :  GBSA solvation                   true          :
          :  PC potential                    false          :
          :  electronic temp.          300.0000000     K    :
          :  accuracy                    1.0000000          :
          :  -> integral cutoff          0.2500000E+02      :
          :  -> integral neglect         0.1000000E-07      :
          :  -> SCF convergence          0.1000000E-05 Eh   :
          :  -> wf. convergence          0.2000000E-04 e    :
          :  Broyden damping             0.4000000          :
          ...................................................

 iter      E             dE          RMSdq      gap      omega  full diag
   1    -58.4469154 -0.584469E+02  0.109E-05    2.96       0.0  T
   2    -58.4469154 -0.166267E-11  0.549E-06    2.96    3169.0  T
   3    -58.4469154 -0.113687E-12  0.292E-06    2.96    5966.0  T

   *** convergence criteria satisfied after 3 iterations ***

         #    Occupation            Energy/Eh            Energy/eV
      -------------------------------------------------------------
         1        2.0000           -0.8965463             -24.3963
       ...           ...                  ...                  ...
        41        2.0000           -0.5197230             -14.1424
        42        2.0000           -0.5030136             -13.6877
        43        2.0000           -0.4960476             -13.4981
        44        2.0000           -0.4922353             -13.3944
        45        2.0000           -0.4767642             -12.9734
        46        2.0000           -0.4642081             -12.6317
        47        2.0000           -0.4463549             -12.1459 (HOMO)
        48                         -0.3376310              -9.1874 (LUMO)
        49                         -0.3072253              -8.3600
        50                         -0.2526133              -6.8740
        51                         -0.2086863              -5.6786
        52                         -0.1742924              -4.7427
       ...                                ...                  ...
       100                          0.7245860              19.7170
      -------------------------------------------------------------
                  HL-Gap            0.1087238 Eh            2.9585 eV
             Fermi-level           -0.3919929 Eh          -10.6667 eV

 SCC (total)                   0 d,  0 h,  0 min,  0.049 sec
 SCC setup                      ...        0 min,  0.001 sec (  1.925%)
 Dispersion                     ...        0 min,  0.000 sec (  0.286%)
 classical contributions        ...        0 min,  0.000 sec (  0.122%)
 integral evaluation            ...        0 min,  0.013 sec ( 27.471%)
 iterations                     ...        0 min,  0.005 sec (  9.372%)
 molecular gradient             ...        0 min,  0.029 sec ( 60.176%)
 printout                       ...        0 min,  0.000 sec (  0.576%)

         :::::::::::::::::::::::::::::::::::::::::::::::::::::
         ::                     SUMMARY                     ::
         :::::::::::::::::::::::::::::::::::::::::::::::::::::
         :: total energy             -57.866905659287 Eh    ::
         :: total w/o Gsasa/hb       -57.843131488603 Eh    ::
         :: gradient norm              0.000295076437 Eh/a0 ::
         :: HOMO-LUMO gap              2.958525559353 eV    ::
         ::.................................................::
         :: SCC energy               -58.446915444867 Eh    ::
         :: -> electrostatic           0.350155165747 Eh    ::
         :: -> Gsolv                  -0.133357796491 Eh    ::
         ::    -> Gelec               -0.109583625806 Eh    ::
         ::    -> Gsasa               -0.018602911927 Eh    ::
         ::    -> Ghb                 -0.012795537761 Eh    ::
         ::    -> Gshift               0.007624279005 Eh    ::
         :: repulsion energy           0.599223045702 Eh    ::
         :: dispersion energy         -0.019213260122 Eh    ::
         :: halogen bond corr.         0.000000000000 Eh    ::
         :: add. restraining           0.000000000000 Eh    ::
         :: total charge               1.000000000000 e     ::
         :::::::::::::::::::::::::::::::::::::::::::::::::::::

           -------------------------------------------------
          |                Property Printout                |
           -------------------------------------------------

    * Orbital Energies and Occupations

         #    Occupation            Energy/Eh            Energy/eV
      -------------------------------------------------------------
         1        2.0000           -0.8965463             -24.3963
       ...           ...                  ...                  ...
        35        2.0000           -0.5519872             -15.0203
        36        2.0000           -0.5494145             -14.9503
        37        2.0000           -0.5455369             -14.8448
        38        2.0000           -0.5444195             -14.8144
        39        2.0000           -0.5337449             -14.5239
        40        2.0000           -0.5281319             -14.3712
        41        2.0000           -0.5197230             -14.1424
        42        2.0000           -0.5030136             -13.6877
        43        2.0000           -0.4960476             -13.4981
        44        2.0000           -0.4922353             -13.3944
        45        2.0000           -0.4767642             -12.9734
        46        2.0000           -0.4642081             -12.6317
        47        2.0000           -0.4463549             -12.1459 (HOMO)
        48                         -0.3376310              -9.1874 (LUMO)
        49                         -0.3072253              -8.3600
        50                         -0.2526133              -6.8740
        51                         -0.2086863              -5.6786
        52                         -0.1742924              -4.7427
        53                         -0.1719260              -4.6783
        54                         -0.1576895              -4.2910
        55                         -0.1455667              -3.9611
        56                         -0.1417276              -3.8566
        57                         -0.1357681              -3.6944
        58                         -0.1234553              -3.3594
       ...                                ...                  ...
       100                          0.7245860              19.7170
      -------------------------------------------------------------
                  HL-Gap            0.1087238 Eh            2.9585 eV
             Fermi-level           -0.3919929 Eh          -10.6667 eV

  Mulliken/CM5 charges         n(s)   n(p)   n(d)
     1C     0.16254  0.04171   0.982  2.856  0.000
     2O    -0.40761 -0.49168   1.684  4.724  0.000
     3C     0.57969  0.64719   0.965  2.455  0.000
     4O    -0.55820 -0.60252   1.724  4.834  0.000
     5C     0.08370  0.16145   1.042  2.875  0.000
     6C     0.24021  0.27460   1.025  2.735  0.000
     7O    -0.49510 -0.68711   1.693  4.802  0.000
     8C     0.43692  0.53802   0.989  2.574  0.000
     9O    -0.56923 -0.62062   1.726  4.843  0.000
    10N    -0.21620 -0.46465   1.454  3.762  0.000
    11C     0.04461 -0.04478   0.996  2.959  0.000
    12C     0.25875  0.41017   1.009  2.732  0.000
    13C     0.11804  0.14306   1.094  2.788  0.000
    14C    -0.12193 -0.26491   1.027  3.095  0.000
    15C    -0.10861 -0.24793   1.025  3.083  0.000
    16N    -0.27209 -0.89734   1.469  3.803  0.000
    17N    -0.35453 -0.54524   1.520  3.835  0.000
    18H     0.05504  0.11703   0.945  0.000  0.000
    19H     0.05768  0.11797   0.942  0.000  0.000
    20H     0.05455  0.11588   0.945  0.000  0.000
    21H     0.41747  0.59640   0.583  0.000  0.000
    22H     0.31536  0.50419   0.685  0.000  0.000
    23H     0.05064  0.11887   0.949  0.000  0.000
    24H     0.09089  0.15656   0.909  0.000  0.000
    25H     0.08895  0.15543   0.911  0.000  0.000
    26H     0.06726  0.12439   0.933  0.000  0.000
    27H     0.07546  0.13074   0.925  0.000  0.000
    28H     0.08104  0.13549   0.919  0.000  0.000
    29H     0.06319  0.11919   0.937  0.000  0.000
    30H     0.06541  0.12558   0.935  0.000  0.000
    31H     0.07677  0.13539   0.923  0.000  0.000
    32H     0.31643  0.50453   0.684  0.000  0.000
    33H     0.30289  0.49295   0.697  0.000  0.000

Wiberg/Mayer (AO) data.
largest (>0.10) Wiberg bond orders for each atom

 ---------------------------------------------------------------------------
     #   Z sym  total        # sym  WBO       # sym  WBO       # sym  WBO
 ---------------------------------------------------------------------------
     1   6 C    3.867 --    19 H    0.986    18 H    0.979    20 H    0.979
                             2 O    0.892
     2   8 O    2.210 --     3 C    1.125     1 C    0.892     4 O    0.137
     3   6 C    3.855 --     4 O    1.660     2 O    1.125     5 C    0.992
     4   8 O    1.923 --     3 C    1.660     2 O    0.137
     5   6 C    3.959 --     6 C    1.491    17 N    1.184     3 C    0.992
     6   6 C    3.922 --     5 C    1.491     7 O    1.122     8 C    1.069
     7   8 O    2.099 --     6 C    1.122    21 H    0.800
     8   6 C    3.911 --     9 O    1.575    10 N    1.118     6 C    1.069
     9   8 O    1.916 --     8 C    1.575    10 N    0.135
    10   7 N    3.502 --    12 C    1.166     8 C    1.118    11 C    0.926
                             9 O    0.135
    11   6 C    3.917 --    23 H    0.975    25 H    0.971    24 H    0.971
                            10 N    0.926
    12   6 C    3.940 --    17 N    1.583    10 N    1.166    13 C    0.977
    13   6 C    3.884 --    15 C    1.001    14 C    0.995    12 C    0.977
                            16 N    0.871
    14   6 C    3.981 --    13 C    0.995    27 H    0.979    28 H    0.976
                            26 H    0.976
    15   6 C    3.981 --    13 C    1.001    29 H    0.981    30 H    0.981
                            31 H    0.976
    16   7 N    3.563 --    22 H    0.885    32 H    0.884    33 H    0.883
                            13 C    0.871
    17   7 N    3.041 --    12 C    1.583     5 C    1.184
    18   1 H    1.007 --     1 C    0.979
    19   1 H    1.010 --     1 C    0.986
    20   1 H    1.006 --     1 C    0.979
    21   1 H    0.840 --     7 O    0.800
    22   1 H    0.904 --    16 N    0.885
    23   1 H    1.002 --    11 C    0.975
    24   1 H    0.999 --    11 C    0.971
    25   1 H    1.000 --    11 C    0.971
    26   1 H    0.997 --    14 C    0.976
    27   1 H    0.993 --    14 C    0.979
    28   1 H    0.995 --    14 C    0.976
    29   1 H    0.995 --    15 C    0.981
    30   1 H    1.004 --    15 C    0.981
    31   1 H    1.006 --    15 C    0.976
    32   1 H    0.904 --    16 N    0.884
    33   1 H    0.917 --    16 N    0.883
 ---------------------------------------------------------------------------

Topologies differ in total number of bonds
Writing topology from bond orders to xtbtopo.mol

 dipole moment from electron density (au)
     X       Y       Z   
  -5.9196  -1.0104   2.2015  total (Debye):   16.257

           -------------------------------------------------
          |                Geometry Summary                 |
           -------------------------------------------------

      molecular mass/u    :      242.2521403
   center of mass at/Å    :        0.6103205      -0.1606819      -0.0247993
  moments of inertia/u·Å² :        0.7203291E+03   0.1467642E+04   0.2068147E+04
rotational constants/cm⁻¹ :        0.2340268E-01   0.1148620E-01   0.8151081E-02

 * 30 selected distances

     #   Z          #   Z                                           value/Å
     1   6 C        2   8 O                                       1.4328707
     2   8 O        3   6 C                                       1.3275188
     3   6 C        4   8 O                                       1.2092117
     5   6 C        6   6 C                                       1.3666729
     6   6 C        7   8 O                                       1.3320159
     8   6 C        9   8 O                                       1.2231297
     8   6 C       10   7 N                                       1.3893993
    10   7 N       11   6 C                                       1.4633427
    10   7 N       12   6 C                                       1.3728179
    13   6 C       14   6 C                                       1.5283571
    13   6 C       15   6 C                                       1.5314319 (max)
    13   6 C       16   7 N                                       1.5155903
     5   6 C       17   7 N                                       1.3682272
    12   6 C       17   7 N                                       1.2907508
     1   6 C       18   1 H                                       1.0924500
     1   6 C       19   1 H                                       1.0881863
     1   6 C       20   1 H                                       1.0925785
     7   8 O       21   1 H                                       0.9761286 (min)
    16   7 N       22   1 H                                       1.0146470
    11   6 C       23   1 H                                       1.0794991
    11   6 C       24   1 H                                       1.0904987
    11   6 C       25   1 H                                       1.0900559
    14   6 C       26   1 H                                       1.0860209
    14   6 C       27   1 H                                       1.0886977
    14   6 C       28   1 H                                       1.0898950
    15   6 C       29   1 H                                       1.0882186
    15   6 C       30   1 H                                       1.0885571
    15   6 C       31   1 H                                       1.0888946
    16   7 N       32   1 H                                       1.0147618
    16   7 N       33   1 H                                       1.0130558

 * 6 distinct bonds (by element types)

   Z      Z             #   av. dist./Å        max./Å        min./Å
   1 H    6 C          12     1.0886293     1.0925785     1.0794991
   6 C    6 C           3     1.4754873     1.5314319     1.3666729
   1 H    7 N           3     1.0141549     1.0147618     1.0130558
   6 C    7 N           6     1.4000214     1.5155903     1.2907508
   1 H    8 O           1     0.9761286     0.9761286     0.9761286
   6 C    8 O           5     1.3049494     1.4328707     1.2092117


optimized geometry written to: xtbopt.xyz


           -------------------------------------------------
          | TOTAL ENERGY              -57.866905659287 Eh   |
          | GRADIENT NORM               0.000295076437 Eh/α |
          | HOMO-LUMO GAP               2.958525559353 eV   |
           -------------------------------------------------

------------------------------------------------------------------------
 * finished run on 2023/06/20 at 15:11:45.855     
------------------------------------------------------------------------
 total:
 * wall-time:     0 d,  0 h,  0 min,  7.652 sec
 *  cpu-time:     0 d,  0 h,  0 min,  7.568 sec
 * ratio c/w:     0.989 speedup
 SCF:
 * wall-time:     0 d,  0 h,  0 min,  0.134 sec
 *  cpu-time:     0 d,  0 h,  0 min,  0.107 sec
 * ratio c/w:     0.801 speedup
 ANC optimizer:
 * wall-time:     0 d,  0 h,  0 min,  7.453 sec
 *  cpu-time:     0 d,  0 h,  0 min,  7.434 sec
 * ratio c/w:     0.998 speedup

