42
 energy: -83.610641325445 gnorm: 0.000844831401 xtb: 6.5.1 (579679a)
C           -5.22085796364728        2.73534824120099        1.31626729363066
O           -4.48345662031135        1.81443971936960        0.54378411341276
C           -3.28831980355469        1.36635577691769        1.13515285608604
O           -3.00590897138740        1.80997367317772        2.27030223832051
C           -2.51618920188481        0.48506743061066        0.36058331961405
N           -1.40275588135188        0.02021083213107        1.02418577167207
C           -0.52803426150915       -0.72778382861781        0.45949785459163
C            0.62871834691450       -1.30576564941154        1.24682498000425
C            0.58546661295338       -0.76828938191999        2.68142919924416
C            0.55688119731351       -2.84132660745938        1.23295695617481
N            1.88918044061145       -0.87756058098336        0.59820011757748
C            3.11480131988673       -1.20588810592761        1.04349479591034
O            3.35710420294938       -1.91676208387144        2.01678471916057
C            4.20730396933768       -0.62214986106688        0.23216790406007
N            5.49085923814025       -0.75303318759759        0.42312937707269
N            6.11012532674917       -0.04365637853441       -0.56570555282366
C            5.17473226613140        0.47467838845574       -1.29725240923293
C            5.33467187973973        1.32691746453190       -2.49682476106351
O            3.94762421871163        0.15209620125070       -0.85103523104440
N           -0.58971739935476       -1.05942072639397       -0.91151903908090
C           -1.56314854766464       -0.52189068988521       -1.71247114989195
O           -1.37243347884916       -0.47940029474687       -2.93382927140380
C           -2.91595000868478       -0.18608745367784       -0.99324317692340
C           -3.65014961742755        0.83315533144541       -1.93062967133324
O           -3.58585353938752       -1.34177194138940       -0.84589798498682
H           -6.10911242607028        3.00885436932293        0.74389809421979
H           -5.53285482495211        2.30015788770251        2.27490497719479
H           -4.63805041641207        3.64180078269279        1.52577075481272
H           -0.37433275355572       -1.02342487148627        3.13047408869723
H            1.38495470152328       -1.19751935422472        3.28174380285089
H            0.68561424663646        0.31689605399177        2.67265490506407
H            1.36645203039251       -3.27464987225593        1.81747626206971
H           -0.39325181287369       -3.16168768859477        1.65990406035506
H            0.62657822726918       -3.20812861885241        0.20969451225891
H            1.82721219284542       -0.25398799771813       -0.19093449303174
H            4.82891441998409        2.28127015139209       -2.34987673913507
H            4.89084756863017        0.83935555051724       -3.36512319109963
H            6.39201353854240        1.50031531663812       -2.68047831772122
H            0.26453991984832       -1.32874562732056       -1.36918021525041
H           -4.70121032244798        0.89284502929138       -1.65477465239544
H           -3.20021657066061        1.82512638093490       -1.87635719845045
H           -3.59278844313440        0.47406422035632       -2.95963189918159
