      -----------------------------------------------------------      
     |                   =====================                   |     
     |                           x T B                           |     
     |                   =====================                   |     
     |                         S. Grimme                         |     
     |          Mulliken Center for Theoretical Chemistry        |     
     |                    University of Bonn                     |     
      -----------------------------------------------------------      

   * xtb version 6.5.1 (579679a) compiled by 'ehlert@majestix' on 2022-07-11

   xtb is free software: you can redistribute it and/or modify it under
   the terms of the GNU Lesser General Public License as published by
   the Free Software Foundation, either version 3 of the License, or
   (at your option) any later version.
   
   xtb is distributed in the hope that it will be useful,
   but WITHOUT ANY WARRANTY; without even the implied warranty of
   MERCHANTABILITY or FITNESS FOR A PARTICULAR PURPOSE.  See the
   GNU Lesser General Public License for more details.
   
   Cite this work as:
   * C. Bannwarth, E. Caldeweyher, S. Ehlert, A. Hansen, P. Pracht,
     J. Seibert, S. Spicher, S. Grimme, WIREs Comput. Mol. Sci., 2020, 11,
     e01493. DOI: 10.1002/wcms.1493
   
   for GFN2-xTB:
   * C. Bannwarth, S. Ehlert and S. Grimme., J. Chem. Theory Comput., 2019,
     15, 1652-1671. DOI: 10.1021/acs.jctc.8b01176
   for GFN1-xTB:
   * S. Grimme, C. Bannwarth, P. Shushkov, J. Chem. Theory Comput., 2017,
     13, 1989-2009. DOI: 10.1021/acs.jctc.7b00118
   for GFN0-xTB:
   * P. Pracht, E. Caldeweyher, S. Ehlert, S. Grimme, ChemRxiv, 2019, preprint.
     DOI: 10.26434/chemrxiv.8326202.v1
   for GFN-FF:
   * S. Spicher and S. Grimme, Angew. Chem. Int. Ed., 2020, 59, 15665-15673.
     DOI: 10.1002/anie.202004239
   
   for ALPB and GBSA implicit solvation:
   * S. Ehlert, M. Stahn, S. Spicher, S. Grimme, J. Chem. Theory Comput.,
     2021, 17, 4250-4261. DOI: 10.1021/acs.jctc.1c00471
   
   for DFT-D4:
   * E. Caldeweyher, C. Bannwarth and S. Grimme, J. Chem. Phys., 2017,
     147, 034112. DOI: 10.1063/1.4993215
   * E. Caldeweyher, S. Ehlert, A. Hansen, H. Neugebauer, S. Spicher,
     C. Bannwarth and S. Grimme, J. Chem. Phys., 2019, 150, 154122.
     DOI: 10.1063/1.5090222
   * E. Caldeweyher, J.-M. Mewes, S. Ehlert and S. Grimme, Phys. Chem. Chem. Phys.
     2020, 22, 8499-8512. DOI: 10.1039/D0CP00502A
   
   for sTDA-xTB:
   * S. Grimme and C. Bannwarth, J. Chem. Phys., 2016, 145, 054103.
     DOI: 10.1063/1.4959605
   
   in the mass-spec context:
   * V. Asgeirsson, C. Bauer and S. Grimme, Chem. Sci., 2017, 8, 4879.
     DOI: 10.1039/c7sc00601b
   * J. Koopman and S. Grimme, ACS Omega 2019, 4, 12, 15120-15133.
     DOI: 10.1021/acsomega.9b02011
   
   for metadynamics refer to:
   * S. Grimme, J. Chem. Theory Comput., 2019, 155, 2847-2862
     DOI: 10.1021/acs.jctc.9b00143
   
   for SPH calculations refer to:
   * S. Spicher and S. Grimme, J. Chem. Theory Comput., 2021, 17, 1701-1714
     DOI: 10.1021/acs.jctc.0c01306
   
   with help from (in alphabetical order)
   P. Atkinson, C. Bannwarth, F. Bohle, G. Brandenburg, E. Caldeweyher
   M. Checinski, S. Dohm, S. Ehlert, S. Ehrlich, I. Gerasimov, C. Hölzer
   A. Katbashev, J. Koopman, C. Lavigne, S. Lehtola, F. März, M. Müller,
   F. Musil, H. Neugebauer, J. Pisarek, C. Plett, P. Pracht, F. Pultar,
   J. Seibert, P. Shushkov, S. Spicher, M. Stahn, M. Steiner, T. Strunk,
   J. Stückrath, T. Rose, and J. Unsleber
   
 * started run on 2023/06/20 at 17:34:26.916     

           -------------------------------------------------
          |                Calculation Setup                |
           -------------------------------------------------

          program call               : /lustre/hpc/kemi/ree/PhD/git/ReactivityQM/dep/xtb-6.5.1/bin/xtb --gfn 1 /lustre/hpc/kemi/ree/PhD/git/ReactivityQM/calculations/R02deprot/reac01prodE02/conf16/R02deprot_reac01prodE02_conf16_gfn1.xyz --opt --vfukui --chrg -2 --uhf 0 --alpb DMSO
          hostname                   : node308
          coordinate file            : /lustre/hpc/kemi/ree/PhD/git/ReactivityQM/calculations/R02deprot/reac01prodE02/conf16/R02deprot_reac01prodE02_conf16_gfn1.xyz
          omp threads                :                     1

   ID    Z sym.   atoms
    1    6 C      1, 3, 4, 6, 8-11, 13, 15, 18, 19, 22, 24
    2    8 O      2, 5, 14, 20, 23, 25
    3    7 N      7, 12, 16, 17, 21
    4    1 H      26-42

           -------------------------------------------------
          |                 G F N 1 - x T B                 |
           -------------------------------------------------

        Reference                      10.1021/acs.jctc.7b00118
      * Hamiltonian:
        H0-scaling (s, p, d)           1.850000    2.250000    2.000000
        zeta-weighting                 0.000000
      * Dispersion:
        s8                             2.400000
        a1                             0.630000
        a2                             5.000000
        s9                             0.000000
      * Repulsion:
        kExp                           1.500000
        rExp                           1.000000
      * Coulomb:
        alpha                          2.000000
        third order                    atomic
        anisotropic                    false
      * Halogen bond correction:
        rad-scale                      1.300000
        damping                        0.440000

      * Solvation model:               ALPB
        Solvent                        DMSO
        Parameter file                 internal GFN1-xTB/ALPB
        Dielectric constant                4.6680E+01
        Reference state                gsolv [1 M gas/solution]
        Free energy shift                  7.6243E-03 Eh       4.7843E+00 kcal/mol
        Temperature                        2.9815E+02 K
        Density                            1.1000E+00 kg/L
        Solvent mass                       7.8130E+01 g/mol
        Interaction kernel             P16
        Born radius scaling (c1)           1.7672E+00
        Born radii integrator          GBOBC
        Born offset                        0.0000E+00 a0       0.0000E+00 AA
        H-bond correction              true
        Ion screening                  false
        Surface tension                    1.0000E-05 Eh       1.5569E+01 dyn/cm
        Grid points                               230 per atom

          ...................................................
          :                      SETUP                      :
          :.................................................:
          :  # basis functions                 134          :
          :  # atomic orbitals                 134          :
          :  # shells                           84          :
          :  # electrons                       136          :
          :  # halogen bonds                     0          :
          :  max. iterations                   250          :
          :  Hamiltonian                  GFN1-xTB          :
          :  restarted?                      false          :
          :  GBSA solvation                   true          :
          :  PC potential                    false          :
          :  electronic temp.          300.0000000     K    :
          :  accuracy                    1.0000000          :
          :  -> integral cutoff          0.2500000E+02      :
          :  -> integral neglect         0.1000000E-07      :
          :  -> SCF convergence          0.1000000E-05 Eh   :
          :  -> wf. convergence          0.2000000E-04 e    :
          :  Broyden damping             0.4000000          :
          ...................................................

 iter      E             dE          RMSdq      gap      omega  full diag
   1    -84.0717833 -0.840718E+02  0.858E+00    2.90       0.0  T
   2    -84.3103221 -0.238539E+00  0.514E+00    1.49       1.0  T
   3    -83.8469196  0.463403E+00  0.245E+00    0.09       1.0  T
   4    -84.2711577 -0.424238E+00  0.112E+00    2.56       1.0  T
   5    -84.3122159 -0.410582E-01  0.572E-01    1.79       1.0  T
   6    -84.3176040 -0.538813E-02  0.399E-01    1.44       1.0  T
   7    -84.3222131 -0.460915E-02  0.233E-01    0.92       1.0  T
   8    -84.3235870 -0.137387E-02  0.139E-01    0.55       1.0  T
   9    -83.9347048  0.388882E+00  0.182E+00    0.09       1.0  T
  10    -84.3232890 -0.388584E+00  0.155E-01    0.62       1.0  T
  11    -84.3231910  0.980449E-04  0.160E-01    0.65       1.0  T
  12    -84.3235806 -0.389596E-03  0.126E-01    0.51       1.0  T
  13    -84.3236526 -0.720056E-04  0.120E-01    0.49       1.0  T
  14    -84.3238069 -0.154320E-03  0.104E-01    0.42       1.0  T
  15    -84.3239835 -0.176616E-03  0.858E-02    0.35       1.0  T
  16    -84.3242282 -0.244699E-03  0.609E-02    0.28       1.0  T
  17    -84.3243861 -0.157911E-03  0.431E-02    0.24       1.0  T
  18    -84.3244209 -0.348139E-04  0.383E-02    0.24       1.0  T
  19    -84.3244843 -0.634106E-04  0.269E-02    0.17       1.0  T
  20    -84.3244960 -0.117071E-04  0.258E-02    0.22       1.0  T
  21    -84.3245543 -0.582844E-04  0.100E-02    0.19       1.5  T
  22    -84.3245634 -0.903222E-05  0.427E-03    0.20       3.6  T
  23    -84.3245653 -0.194255E-05  0.449E-04    0.19      34.4  T
  24    -84.3245653 -0.716985E-08  0.368E-04    0.19      41.9  T
  25    -84.3245653 -0.146338E-07  0.178E-05    0.19     868.9  T
  26    -84.3245653 -0.181331E-10  0.117E-05    0.19    1315.4  T

   *** convergence criteria satisfied after 26 iterations ***

         #    Occupation            Energy/Eh            Energy/eV
      -------------------------------------------------------------
         1        2.0000           -0.8468361             -23.0436
       ...           ...                  ...                  ...
        62        2.0000           -0.3959799             -10.7752
        63        2.0000           -0.3822258             -10.4009
        64        2.0000           -0.3690264             -10.0417
        65        2.0000           -0.3481334              -9.4732
        66        2.0000           -0.3325191              -9.0483
        67        2.0000           -0.3245102              -8.8304
        68        1.9539           -0.3082203              -8.3871 (HOMO)
        69        0.0461           -0.3010992              -8.1933 (LUMO)
        70                         -0.2505416              -6.8176
        71                         -0.2026422              -5.5142
        72                         -0.1865849              -5.0772
        73                         -0.1845065              -5.0207
       ...                                ...                  ...
       134                          0.7632135              20.7681
      -------------------------------------------------------------
                  HL-Gap            0.0071211 Eh            0.1938 eV
             Fermi-level           -0.3046598 Eh           -8.2902 eV

 SCC (total)                   0 d,  0 h,  0 min,  0.214 sec
 SCC setup                      ...        0 min,  0.002 sec (  0.990%)
 Dispersion                     ...        0 min,  0.000 sec (  0.193%)
 classical contributions        ...        0 min,  0.000 sec (  0.062%)
 integral evaluation            ...        0 min,  0.034 sec ( 16.053%)
 iterations                     ...        0 min,  0.098 sec ( 45.887%)
 molecular gradient             ...        0 min,  0.078 sec ( 36.351%)
 printout                       ...        0 min,  0.001 sec (  0.434%)

         :::::::::::::::::::::::::::::::::::::::::::::::::::::
         ::                     SUMMARY                     ::
         :::::::::::::::::::::::::::::::::::::::::::::::::::::
         :: total energy             -83.606234414425 Eh    ::
         :: total w/o Gsasa/hb       -83.586782379567 Eh    ::
         :: gradient norm              0.126836625179 Eh/a0 ::
         :: HOMO-LUMO gap              0.193774291572 eV    ::
         ::.................................................::
         :: SCC energy               -84.324565322554 Eh    ::
         :: -> electrostatic           0.730168663863 Eh    ::
         :: -> Gsolv                  -0.281183822552 Eh    ::
         ::    -> Gelec               -0.261731787695 Eh    ::
         ::    -> Gsasa               -0.023398261489 Eh    ::
         ::    -> Ghb                 -0.003678052373 Eh    ::
         ::    -> Gshift               0.007624279005 Eh    ::
         :: repulsion energy           0.744761607985 Eh    ::
         :: dispersion energy         -0.026430699856 Eh    ::
         :: halogen bond corr.         0.000000000000 Eh    ::
         :: add. restraining           0.000000000000 Eh    ::
         :: total charge              -1.999999998317 e     ::
         :::::::::::::::::::::::::::::::::::::::::::::::::::::

      ----------------------------------------------------------- 
     |                   =====================                   |
     |                        A N C O P T                        |
     |                   =====================                   |
     |               Approximate Normal Coordinate               |
     |                Rational Function Optimizer                |
      ----------------------------------------------------------- 

          ...................................................
          :                      SETUP                      :
          :.................................................:
          :   optimization level            normal          :
          :   max. optcycles                   200          :
          :   ANC micro-cycles                  20          :
          :   degrees of freedom               120          :
          :.................................................:
          :   RF solver                   davidson          :
          :   write xtbopt.log                true          :
          :   linear?                        false          :
          :   energy convergence         0.5000000E-05 Eh   :
          :   grad. convergence          0.1000000E-02 Eh/α :
          :   maximium RF displ.         1.0000000          :
          :   Hlow (freq-cutoff)         0.1000000E-01      :
          :   Hmax (freq-cutoff)         5.0000000          :
          :   S6 in model hess.         20.0000000          :
          ...................................................

generating ANC from model Hessian ...
Using Lindh-Hessian (1995)
 Shifting diagonal of input Hessian by   9.876253819960870E-003
 Lowest  eigenvalues of input Hessian
    0.000000    0.000000    0.000000    0.000000    0.000000    0.000000
    0.010000    0.010178    0.010737    0.010917    0.011552    0.011894
    0.012374    0.013495    0.014471    0.014815    0.015723    0.016228
 Highest eigenvalues
    1.975565    1.985821    2.048921    2.142234    2.311798    2.322737
 

........................................................................
.............................. CYCLE    1 ..............................
........................................................................
   1    -84.3245653 -0.843246E+02  0.315E-06    0.19       0.0  T
   2    -84.3245653  0.517275E-11  0.737E-06    0.19    2093.9  T
   3    -84.3245653 -0.632383E-11  0.101E-07    0.19  100000.0  T
     SCC iter.                  ...        0 min,  0.024 sec
     gradient                   ...        0 min,  0.151 sec
 * total energy  :   -83.6062344 Eh     change       -0.1521983E-10 Eh
   gradient norm :     0.1268362 Eh/α   predicted     0.0000000E+00 (-100.00%)
   displ. norm   :     0.3106168 α      lambda       -0.1832779E-01
   maximum displ.:     0.1098339 α      in ANC's #19, #20, #24, ...

........................................................................
.............................. CYCLE    2 ..............................
........................................................................
   1    -84.3358770 -0.843359E+02  0.924E-02    0.41       0.0  T
   2    -84.3362772 -0.400264E-03  0.433E-02    0.31       1.0  T
   3    -84.3363235 -0.462386E-04  0.171E-02    0.30       1.0  T
   4    -84.3363261 -0.261570E-05  0.711E-03    0.28       2.2  T
   5    -84.3363264 -0.300532E-06  0.234E-03    0.29       6.6  T
   6    -84.3363265 -0.908334E-07  0.510E-04    0.29      30.3  T
   7    -84.3363265 -0.547169E-08  0.185E-04    0.29      83.3  T
   8    -84.3363265 -0.948631E-09  0.695E-05    0.29     222.0  T
     SCC iter.                  ...        0 min,  0.053 sec
     gradient                   ...        0 min,  0.082 sec
 * total energy  :   -83.6193739 Eh     change       -0.1313944E-01 Eh
   gradient norm :     0.0672459 Eh/α   predicted    -0.1006174E-01 ( -23.42%)
   displ. norm   :     0.3866170 α      lambda       -0.9365705E-02
   maximum displ.:     0.1513146 α      in ANC's #19, #24, #14, ...

........................................................................
.............................. CYCLE    3 ..............................
........................................................................
   1    -84.3502569 -0.843503E+02  0.961E-02    0.49       0.0  T
   2    -84.3506767 -0.419790E-03  0.367E-02    0.51       1.0  T
   3    -84.3507098 -0.331488E-04  0.138E-02    0.53       1.1  T
   4    -84.3507108 -0.103729E-05  0.723E-03    0.53       2.1  T
   5    -84.3507110 -0.112608E-06  0.116E-03    0.53      13.3  T
   6    -84.3507110 -0.226830E-07  0.245E-04    0.53      63.0  T
   7    -84.3507110 -0.114994E-08  0.843E-05    0.53     183.0  T
   8    -84.3507110 -0.618599E-10  0.328E-05    0.53     470.7  T
     SCC iter.                  ...        0 min,  0.054 sec
     gradient                   ...        0 min,  0.155 sec
 * total energy  :   -83.6251948 Eh     change       -0.5820983E-02 Eh
   gradient norm :     0.0239368 Eh/α   predicted    -0.5390254E-02 (  -7.40%)
   displ. norm   :     0.3199871 α      lambda       -0.2475214E-02
   maximum displ.:     0.1159208 α      in ANC's #19, #9, #14, ...

........................................................................
.............................. CYCLE    4 ..............................
........................................................................
   1    -84.3544136 -0.843544E+02  0.482E-02    0.58       0.0  T
   2    -84.3545273 -0.113651E-03  0.153E-02    0.61       1.0  T
   3    -84.3545325 -0.526038E-05  0.587E-03    0.62       2.6  T
   4    -84.3545330 -0.446074E-06  0.355E-03    0.63       4.3  T
   5    -84.3545330 -0.367232E-07  0.563E-04    0.63      27.4  T
   6    -84.3545330 -0.325159E-08  0.133E-04    0.63     116.4  T
   7    -84.3545330 -0.396639E-09  0.412E-05    0.63     374.5  T
     SCC iter.                  ...        0 min,  0.025 sec
     gradient                   ...        0 min,  0.082 sec
 * total energy  :   -83.6271611 Eh     change       -0.1966259E-02 Eh
   gradient norm :     0.0205712 Eh/α   predicted    -0.1364571E-02 ( -30.60%)
   displ. norm   :     0.5133602 α      lambda       -0.2992952E-02
   maximum displ.:     0.2137502 α      in ANC's #9, #24, #14, ...

........................................................................
.............................. CYCLE    5 ..............................
........................................................................
   1    -84.3550294 -0.843550E+02  0.783E-02    0.66       0.0  T
   2    -84.3553248 -0.295384E-03  0.217E-02    0.70       1.0  T
   3    -84.3553356 -0.107772E-04  0.816E-03    0.71       1.9  T
   4    -84.3553362 -0.654420E-06  0.515E-03    0.72       3.0  T
   5    -84.3553363 -0.944683E-07  0.866E-04    0.72      17.8  T
   6    -84.3553363 -0.902521E-08  0.202E-04    0.72      76.3  T
   7    -84.3553363 -0.131237E-08  0.697E-05    0.72     221.5  T
   8    -84.3553363 -0.537028E-10  0.352E-05    0.72     437.9  T
     SCC iter.                  ...        0 min,  0.027 sec
     gradient                   ...        0 min,  0.082 sec
 * total energy  :   -83.6293350 Eh     change       -0.2173874E-02 Eh
   gradient norm :     0.0260210 Eh/α   predicted    -0.1890873E-02 ( -13.02%)
   displ. norm   :     0.4163914 α      lambda       -0.1772024E-02
   maximum displ.:     0.1949548 α      in ANC's #9, #6, #4, ...

........................................................................
.............................. CYCLE    6 ..............................
........................................................................
   1    -84.3535109 -0.843535E+02  0.645E-02    0.72       0.0  T
   2    -84.3536984 -0.187471E-03  0.170E-02    0.74       1.0  T
   3    -84.3537054 -0.704969E-05  0.627E-03    0.75       2.5  T
   4    -84.3537057 -0.247946E-06  0.389E-03    0.75       4.0  T
   5    -84.3537057 -0.693187E-07  0.719E-04    0.75      21.5  T
   6    -84.3537057 -0.859698E-08  0.215E-04    0.75      71.9  T
   7    -84.3537057 -0.156022E-08  0.666E-05    0.75     231.6  T
   8    -84.3537057 -0.519833E-10  0.315E-05    0.75     490.3  T
     SCC iter.                  ...        0 min,  0.027 sec
     gradient                   ...        0 min,  0.082 sec
 * total energy  :   -83.6305885 Eh     change       -0.1253565E-02 Eh
   gradient norm :     0.0295376 Eh/α   predicted    -0.1039631E-02 ( -17.07%)
   displ. norm   :     0.3219288 α      lambda       -0.1600830E-02
   maximum displ.:     0.1598860 α      in ANC's #9, #6, #4, ...

........................................................................
.............................. CYCLE    7 ..............................
........................................................................
   1    -84.3521960 -0.843522E+02  0.365E-02    0.74       0.0  T
   2    -84.3522389 -0.429161E-04  0.112E-02    0.74       1.4  T
   3    -84.3522413 -0.236166E-05  0.588E-03    0.75       2.6  T
   4    -84.3522415 -0.250892E-06  0.269E-03    0.75       5.7  T
   5    -84.3522415 -0.225844E-07  0.596E-04    0.75      25.9  T
   6    -84.3522415 -0.517781E-08  0.128E-04    0.75     121.0  T
   7    -84.3522415 -0.489834E-09  0.534E-05    0.75     288.7  T
     SCC iter.                  ...        0 min,  0.024 sec
     gradient                   ...        0 min,  0.082 sec
 * total energy  :   -83.6317807 Eh     change       -0.1192119E-02 Eh
   gradient norm :     0.0245677 Eh/α   predicted    -0.8833808E-03 ( -25.90%)
   displ. norm   :     0.3941406 α      lambda       -0.1695773E-02
   maximum displ.:     0.1784931 α      in ANC's #9, #6, #4, ...

........................................................................
.............................. CYCLE    8 ..............................
........................................................................
   1    -84.3511205 -0.843511E+02  0.661E-02    0.72       0.0  T
   2    -84.3512780 -0.157469E-03  0.193E-02    0.73       1.0  T
   3    -84.3512853 -0.733755E-05  0.842E-03    0.73       1.8  T
   4    -84.3512859 -0.554643E-06  0.451E-03    0.72       3.4  T
   5    -84.3512859 -0.826461E-07  0.790E-04    0.72      19.5  T
   6    -84.3512860 -0.161956E-07  0.253E-04    0.73      60.9  T
   7    -84.3512860 -0.128649E-08  0.921E-05    0.73     167.6  T
   8    -84.3512860 -0.125013E-09  0.430E-05    0.73     358.9  T
     SCC iter.                  ...        0 min,  0.027 sec
     gradient                   ...        0 min,  0.082 sec
 * total energy  :   -83.6329782 Eh     change       -0.1197504E-02 Eh
   gradient norm :     0.0239882 Eh/α   predicted    -0.9796052E-03 ( -18.20%)
   displ. norm   :     0.3536564 α      lambda       -0.1831216E-02
   maximum displ.:     0.1784223 α      in ANC's #4, #6, #9, ...

........................................................................
.............................. CYCLE    9 ..............................
........................................................................
   1    -84.3517524 -0.843518E+02  0.558E-02    0.70       0.0  T
   2    -84.3518403 -0.878951E-04  0.187E-02    0.69       1.0  T
   3    -84.3518481 -0.783558E-05  0.109E-02    0.69       1.4  T
   4    -84.3518489 -0.813748E-06  0.366E-03    0.68       4.2  T
   5    -84.3518490 -0.100180E-06  0.997E-04    0.68      15.5  T
   6    -84.3518491 -0.215062E-07  0.254E-04    0.69      60.8  T
   7    -84.3518491 -0.108695E-08  0.109E-04    0.69     141.3  T
   8    -84.3518491 -0.816271E-10  0.301E-05    0.69     512.3  T
     SCC iter.                  ...        0 min,  0.027 sec
     gradient                   ...        0 min,  0.082 sec
 * total energy  :   -83.6339102 Eh     change       -0.9320361E-03 Eh
   gradient norm :     0.0232858 Eh/α   predicted    -0.1030134E-02 (  10.53%)
   displ. norm   :     0.3737879 α      lambda       -0.1544803E-02
   maximum displ.:     0.1855002 α      in ANC's #4, #6, #9, ...

........................................................................
.............................. CYCLE   10 ..............................
........................................................................
   1    -84.3517029 -0.843517E+02  0.103E-01    0.66       0.0  T
   2    -84.3521211 -0.418174E-03  0.228E-02    0.62       1.0  T
   3    -84.3521383 -0.172084E-04  0.929E-03    0.60       1.7  T
   4    -84.3521388 -0.479766E-06  0.385E-03    0.60       4.0  T
   5    -84.3521389 -0.849334E-07  0.146E-03    0.60      10.6  T
   6    -84.3521389 -0.307341E-07  0.279E-04    0.60      55.4  T
   7    -84.3521389 -0.252611E-08  0.127E-04    0.60     121.9  T
   8    -84.3521389 -0.192131E-09  0.309E-05    0.60     499.3  T
     SCC iter.                  ...        0 min,  0.028 sec
     gradient                   ...        0 min,  0.082 sec
 * total energy  :   -83.6348995 Eh     change       -0.9893230E-03 Eh
   gradient norm :     0.0196463 Eh/α   predicted    -0.8803195E-03 ( -11.02%)
   displ. norm   :     0.2528093 α      lambda       -0.9719889E-03
   maximum displ.:     0.1549088 α      in ANC's #6, #4, #7, ...

........................................................................
.............................. CYCLE   11 ..............................
........................................................................
   1    -84.3517186 -0.843517E+02  0.392E-02    0.59       0.0  T
   2    -84.3517845 -0.658486E-04  0.963E-03    0.58       1.6  T
   3    -84.3517873 -0.280723E-05  0.463E-03    0.57       3.3  T
   4    -84.3517875 -0.228151E-06  0.231E-03    0.57       6.7  T
   5    -84.3517875 -0.229967E-07  0.610E-04    0.57      25.3  T
   6    -84.3517875 -0.440461E-08  0.131E-04    0.57     118.0  T
   7    -84.3517875 -0.690065E-09  0.593E-05    0.57     260.0  T
     SCC iter.                  ...        0 min,  0.025 sec
     gradient                   ...        0 min,  0.082 sec
 * total energy  :   -83.6356098 Eh     change       -0.7102499E-03 Eh
   gradient norm :     0.0141086 Eh/α   predicted    -0.5170604E-03 ( -27.20%)
   displ. norm   :     0.3410770 α      lambda       -0.9398242E-03
   maximum displ.:     0.2082644 α      in ANC's #6, #4, #7, ...

........................................................................
.............................. CYCLE   12 ..............................
........................................................................
   1    -84.3516580 -0.843517E+02  0.459E-02    0.57       0.0  T
   2    -84.3517381 -0.801710E-04  0.129E-02    0.55       1.2  T
   3    -84.3517416 -0.348879E-05  0.576E-03    0.54       2.7  T
   4    -84.3517420 -0.392262E-06  0.278E-03    0.54       5.5  T
   5    -84.3517421 -0.350919E-07  0.671E-04    0.54      23.0  T
   6    -84.3517421 -0.406776E-08  0.173E-04    0.54      89.3  T
   7    -84.3517421 -0.131904E-08  0.506E-05    0.54     304.7  T
     SCC iter.                  ...        0 min,  0.028 sec
     gradient                   ...        0 min,  0.082 sec
 * total energy  :   -83.6361452 Eh     change       -0.5353959E-03 Eh
   gradient norm :     0.0113718 Eh/α   predicted    -0.5245793E-03 (  -2.02%)
   displ. norm   :     0.3160289 α      lambda       -0.4767074E-03
   maximum displ.:     0.2063290 α      in ANC's #6, #4, #7, ...

........................................................................
.............................. CYCLE   13 ..............................
........................................................................
   1    -84.3502787 -0.843503E+02  0.376E-02    0.53       0.0  T
   2    -84.3503413 -0.625923E-04  0.101E-02    0.51       1.5  T
   3    -84.3503441 -0.281248E-05  0.324E-03    0.51       4.8  T
   4    -84.3503444 -0.246743E-06  0.254E-03    0.51       6.1  T
   5    -84.3503444 -0.490338E-07  0.676E-04    0.51      22.8  T
   6    -84.3503444 -0.310455E-08  0.122E-04    0.51     126.6  T
   7    -84.3503444 -0.376787E-09  0.454E-05    0.51     339.7  T
     SCC iter.                  ...        0 min,  0.025 sec
     gradient                   ...        0 min,  0.081 sec
 * total energy  :   -83.6364344 Eh     change       -0.2892451E-03 Eh
   gradient norm :     0.0106312 Eh/α   predicted    -0.2621615E-03 (  -9.36%)
   displ. norm   :     0.2356688 α      lambda       -0.3631836E-03
   maximum displ.:     0.1270941 α      in ANC's #6, #4, #9, ...

........................................................................
.............................. CYCLE   14 ..............................
........................................................................
   1    -84.3541690 -0.843542E+02  0.266E-02    0.48       0.0  T
   2    -84.3541990 -0.299926E-04  0.725E-03    0.47       2.1  T
   3    -84.3542001 -0.112870E-05  0.342E-03    0.46       4.5  T
   4    -84.3542002 -0.353174E-07  0.141E-03    0.46      10.9  T
   5    -84.3542002 -0.683050E-08  0.336E-04    0.46      45.9  T
   6    -84.3542002 -0.213994E-08  0.869E-05    0.46     177.6  T
   7    -84.3542002 -0.247397E-09  0.377E-05    0.46     409.3  T
     SCC iter.                  ...        0 min,  0.027 sec
     gradient                   ...        0 min,  0.081 sec
 * total energy  :   -83.6366527 Eh     change       -0.2182834E-03 Eh
   gradient norm :     0.0087271 Eh/α   predicted    -0.1916786E-03 ( -12.19%)
   displ. norm   :     0.2359434 α      lambda       -0.2613363E-03
   maximum displ.:     0.1403746 α      in ANC's #6, #4, #1, ...

........................................................................
.............................. CYCLE   15 ..............................
........................................................................
   1    -84.3535339 -0.843535E+02  0.223E-02    0.45       0.0  T
   2    -84.3535508 -0.168605E-04  0.674E-03    0.45       2.3  T
   3    -84.3535516 -0.815254E-06  0.297E-03    0.45       5.2  T
   4    -84.3535517 -0.648481E-07  0.147E-03    0.45      10.5  T
   5    -84.3535517 -0.724505E-08  0.311E-04    0.45      49.7  T
   6    -84.3535517 -0.322042E-08  0.680E-05    0.45     227.0  T
   7    -84.3535517 -0.125510E-09  0.257E-05    0.45     601.5  T
     SCC iter.                  ...        0 min,  0.024 sec
     gradient                   ...        0 min,  0.081 sec
 * total energy  :   -83.6367986 Eh     change       -0.1459330E-03 Eh
   gradient norm :     0.0070662 Eh/α   predicted    -0.1379481E-03 (  -5.47%)
   displ. norm   :     0.1017833 α      lambda       -0.9400689E-04
   maximum displ.:     0.0492463 α      in ANC's #4, #6, #1, ...

........................................................................
.............................. CYCLE   16 ..............................
........................................................................
   1    -84.3540919 -0.843541E+02  0.653E-03    0.44       0.0  T
   2    -84.3540939 -0.202287E-05  0.316E-03    0.44       4.9  T
   3    -84.3540941 -0.189854E-06  0.155E-03    0.44       9.9  T
   4    -84.3540941 -0.420856E-08  0.709E-04    0.44      21.8  T
   5    -84.3540941 -0.335253E-08  0.121E-04    0.44     127.1  T
   6    -84.3540941 -0.336513E-09  0.295E-05    0.44     522.6  T
     SCC iter.                  ...        0 min,  0.022 sec
     gradient                   ...        0 min,  0.081 sec
 * total energy  :   -83.6368693 Eh     change       -0.7066182E-04 Eh
   gradient norm :     0.0052168 Eh/α   predicted    -0.4749169E-04 ( -32.79%)
   displ. norm   :     0.2042631 α      lambda       -0.1360818E-03
   maximum displ.:     0.1082106 α      in ANC's #6, #4, #1, ...

........................................................................
.............................. CYCLE   17 ..............................
........................................................................
   1    -84.3540324 -0.843540E+02  0.130E-02    0.43       0.0  T
   2    -84.3540403 -0.785252E-05  0.532E-03    0.43       2.9  T
   3    -84.3540409 -0.587444E-06  0.238E-03    0.43       6.5  T
   4    -84.3540409 -0.434311E-07  0.131E-03    0.43      11.8  T
   5    -84.3540409 -0.740556E-08  0.237E-04    0.43      65.1  T
   6    -84.3540409 -0.138800E-08  0.733E-05    0.43     210.4  T
   7    -84.3540409 -0.981117E-10  0.288E-05    0.43     535.7  T
     SCC iter.                  ...        0 min,  0.024 sec
     gradient                   ...        0 min,  0.081 sec
 * total energy  :   -83.6369457 Eh     change       -0.7646309E-04 Eh
   gradient norm :     0.0057102 Eh/α   predicted    -0.7088138E-04 (  -7.30%)
   displ. norm   :     0.1622046 α      lambda       -0.1084492E-03
   maximum displ.:     0.0821029 α      in ANC's #1, #2, #6, ...

........................................................................
.............................. CYCLE   18 ..............................
........................................................................
   1    -84.3544220 -0.843544E+02  0.137E-02    0.44       0.0  T
   2    -84.3544285 -0.648908E-05  0.426E-03    0.44       3.6  T
   3    -84.3544289 -0.401439E-06  0.202E-03    0.44       7.6  T
   4    -84.3544290 -0.466813E-07  0.981E-04    0.44      15.7  T
   5    -84.3544290 -0.337393E-08  0.212E-04    0.44      72.7  T
   6    -84.3544290 -0.118206E-08  0.671E-05    0.44     229.8  T
   7    -84.3544290 -0.568718E-10  0.234E-05    0.44     660.7  T
     SCC iter.                  ...        0 min,  0.024 sec
     gradient                   ...        0 min,  0.082 sec
 * total energy  :   -83.6369931 Eh     change       -0.4739853E-04 Eh
   gradient norm :     0.0069400 Eh/α   predicted    -0.5565346E-04 (  17.42%)
   displ. norm   :     0.1245542 α      lambda       -0.8263811E-04
   maximum displ.:     0.0690376 α      in ANC's #6, #1, #4, ...

........................................................................
.............................. CYCLE   19 ..............................
........................................................................
   1    -84.3537916 -0.843538E+02  0.623E-03    0.44       0.0  T
   2    -84.3537936 -0.193699E-05  0.191E-03    0.44       8.1  T
   3    -84.3537937 -0.797277E-07  0.995E-04    0.44      15.5  T
   4    -84.3537937 -0.118993E-07  0.503E-04    0.44      30.7  T
   5    -84.3537937 -0.193845E-08  0.121E-04    0.44     127.4  T
   6    -84.3537937 -0.102304E-09  0.275E-05    0.44     560.6  T
     SCC iter.                  ...        0 min,  0.020 sec
     gradient                   ...        0 min,  0.082 sec
 * total energy  :   -83.6370570 Eh     change       -0.6385843E-04 Eh
   gradient norm :     0.0063816 Eh/α   predicted    -0.4196596E-04 ( -34.28%)
   displ. norm   :     0.2812645 α      lambda       -0.1849622E-03
   maximum displ.:     0.1468975 α      in ANC's #1, #6, #2, ...

........................................................................
.............................. CYCLE   20 ..............................
........................................................................
   1    -84.3532389 -0.843532E+02  0.113E-02    0.46       0.0  T
   2    -84.3532457 -0.673464E-05  0.528E-03    0.45       2.9  T
   3    -84.3532466 -0.941482E-06  0.223E-03    0.45       6.9  T
   4    -84.3532466 -0.170821E-07  0.111E-03    0.45      13.9  T
   5    -84.3532466 -0.393543E-08  0.187E-04    0.45      82.4  T
   6    -84.3532466 -0.544901E-09  0.409E-05    0.45     377.4  T
     SCC iter.                  ...        0 min,  0.022 sec
     gradient                   ...        0 min,  0.082 sec
 * total energy  :   -83.6371832 Eh     change       -0.1261546E-03 Eh
   gradient norm :     0.0054304 Eh/α   predicted    -0.9980624E-04 ( -20.89%)
   displ. norm   :     0.3537502 α      lambda       -0.1434968E-03
   maximum displ.:     0.1882615 α      in ANC's #1, #6, #2, ...
 * RMSD in coord.:     0.6603634 α      energy gain  -0.3094874E-01 Eh

generating ANC from model Hessian ...
Using Lindh-Hessian (1995)
 Shifting diagonal of input Hessian by   9.857170661956420E-003
 Lowest  eigenvalues of input Hessian
    0.000000    0.000000    0.000000    0.000000    0.000000    0.000000
    0.010000    0.010301    0.010802    0.010872    0.011548    0.012000
    0.012831    0.013304    0.014384    0.015525    0.015835    0.017238
 Highest eigenvalues
    1.998483    2.047975    2.115111    2.139302    2.237452    2.432676
 

........................................................................
.............................. CYCLE   21 ..............................
........................................................................
   1    -84.3524338 -0.843524E+02  0.781E-03    0.46       0.0  T
   2    -84.3524365 -0.269676E-05  0.279E-03    0.46       5.5  T
   3    -84.3524367 -0.185957E-06  0.135E-03    0.46      11.4  T
   4    -84.3524367 -0.126764E-07  0.654E-04    0.46      23.6  T
   5    -84.3524367 -0.295486E-09  0.155E-04    0.46      99.7  T
   6    -84.3524367 -0.848814E-09  0.314E-05    0.46     491.9  T
     SCC iter.                  ...        0 min,  0.021 sec
     gradient                   ...        0 min,  0.081 sec
 * total energy  :   -83.6372963 Eh     change       -0.1131367E-03 Eh
   gradient norm :     0.0064440 Eh/α   predicted     0.0000000E+00 (-100.00%)
   displ. norm   :     0.0660709 α      lambda       -0.1379500E-03
   maximum displ.:     0.0252186 α      in ANC's #7, #21, #6, ...

........................................................................
.............................. CYCLE   22 ..............................
........................................................................
   1    -84.3545680 -0.843546E+02  0.637E-03    0.45       0.0  T
   2    -84.3545696 -0.165437E-05  0.295E-03    0.46       5.2  T
   3    -84.3545698 -0.174038E-06  0.142E-03    0.46      10.9  T
   4    -84.3545698 -0.100712E-07  0.571E-04    0.46      27.0  T
   5    -84.3545698 -0.155246E-08  0.112E-04    0.46     137.9  T
   6    -84.3545698 -0.316263E-09  0.220E-05    0.46     702.3  T
     SCC iter.                  ...        0 min,  0.021 sec
     gradient                   ...        0 min,  0.081 sec
 * total energy  :   -83.6373792 Eh     change       -0.8293543E-04 Eh
   gradient norm :     0.0035839 Eh/α   predicted    -0.6995163E-04 ( -15.66%)
   displ. norm   :     0.0848014 α      lambda       -0.9734787E-04
   maximum displ.:     0.0398727 α      in ANC's #1, #6, #7, ...

........................................................................
.............................. CYCLE   23 ..............................
........................................................................
   1    -84.3564236 -0.843564E+02  0.696E-03    0.45       0.0  T
   2    -84.3564257 -0.207772E-05  0.290E-03    0.46       5.3  T
   3    -84.3564258 -0.141377E-06  0.137E-03    0.46      11.3  T
   4    -84.3564258 -0.135431E-07  0.630E-04    0.46      24.5  T
   5    -84.3564258 -0.198948E-08  0.137E-04    0.46     112.9  T
   6    -84.3564258 -0.445468E-09  0.272E-05    0.46     568.3  T
     SCC iter.                  ...        0 min,  0.021 sec
     gradient                   ...        0 min,  0.082 sec
 * total energy  :   -83.6374463 Eh     change       -0.6709428E-04 Eh
   gradient norm :     0.0029291 Eh/α   predicted    -0.4902806E-04 ( -26.93%)
   displ. norm   :     0.1329219 α      lambda       -0.8363122E-04
   maximum displ.:     0.0633806 α      in ANC's #1, #6, #7, ...

........................................................................
.............................. CYCLE   24 ..............................
........................................................................
   1    -84.3565098 -0.843565E+02  0.697E-03    0.46       0.0  T
   2    -84.3565122 -0.241065E-05  0.194E-03    0.46       8.0  T
   3    -84.3565123 -0.901628E-07  0.734E-04    0.46      21.0  T
   4    -84.3565123 -0.916997E-08  0.440E-04    0.46      35.1  T
   5    -84.3565123 -0.123657E-08  0.119E-04    0.46     129.5  T
   6    -84.3565123 -0.156803E-09  0.330E-05    0.46     467.9  T
     SCC iter.                  ...        0 min,  0.020 sec
     gradient                   ...        0 min,  0.082 sec
 * total energy  :   -83.6375127 Eh     change       -0.6639655E-04 Eh
   gradient norm :     0.0040471 Eh/α   predicted    -0.4256278E-04 ( -35.90%)
   displ. norm   :     0.2455171 α      lambda       -0.1244502E-03
   maximum displ.:     0.1198754 α      in ANC's #1, #6, #7, ...

........................................................................
.............................. CYCLE   25 ..............................
........................................................................
   1    -84.3551458 -0.843551E+02  0.120E-02    0.47       0.0  T
   2    -84.3551517 -0.591276E-05  0.296E-03    0.48       5.2  T
   3    -84.3551519 -0.237346E-06  0.133E-03    0.48      11.6  T
   4    -84.3551519 -0.131729E-07  0.629E-04    0.48      24.5  T
   5    -84.3551519 -0.205604E-08  0.181E-04    0.48      85.3  T
   6    -84.3551519 -0.363983E-09  0.405E-05    0.48     381.2  T
     SCC iter.                  ...        0 min,  0.021 sec
     gradient                   ...        0 min,  0.104 sec
 * total energy  :   -83.6376067 Eh     change       -0.9401895E-04 Eh
   gradient norm :     0.0049507 Eh/α   predicted    -0.6598177E-04 ( -29.82%)
   displ. norm   :     0.2788870 α      lambda       -0.1129997E-03
   maximum displ.:     0.1420820 α      in ANC's #1, #6, #2, ...

........................................................................
.............................. CYCLE   26 ..............................
........................................................................
   1    -84.3534777 -0.843535E+02  0.136E-02    0.49       0.0  T
   2    -84.3534845 -0.673874E-05  0.334E-03    0.50       4.6  T
   3    -84.3534848 -0.332806E-06  0.178E-03    0.50       8.6  T
   4    -84.3534848 -0.331639E-07  0.780E-04    0.50      19.8  T
   5    -84.3534848 -0.227176E-08  0.264E-04    0.50      58.5  T
   6    -84.3534848 -0.975490E-09  0.498E-05    0.50     310.0  T
   7    -84.3534848 -0.633378E-10  0.208E-05    0.50     740.6  T
     SCC iter.                  ...        0 min,  0.024 sec
     gradient                   ...        0 min,  0.108 sec
 * total energy  :   -83.6376932 Eh     change       -0.8641997E-04 Eh
   gradient norm :     0.0051355 Eh/α   predicted    -0.6091205E-04 ( -29.52%)
   displ. norm   :     0.2832553 α      lambda       -0.1189627E-03
   maximum displ.:     0.1511440 α      in ANC's #1, #6, #2, ...

........................................................................
.............................. CYCLE   27 ..............................
........................................................................
   1    -84.3525321 -0.843525E+02  0.137E-02    0.51       0.0  T
   2    -84.3525387 -0.658757E-05  0.332E-03    0.52       4.7  T
   3    -84.3525391 -0.390853E-06  0.184E-03    0.52       8.4  T
   4    -84.3525391 -0.475761E-07  0.760E-04    0.52      20.3  T
   5    -84.3525391 -0.706819E-09  0.309E-04    0.52      49.9  T
   6    -84.3525391 -0.144576E-08  0.530E-05    0.52     291.3  T
   7    -84.3525391 -0.661515E-10  0.194E-05    0.52     795.2  T
     SCC iter.                  ...        0 min,  0.048 sec
     gradient                   ...        0 min,  0.141 sec
 * total energy  :   -83.6377886 Eh     change       -0.9540362E-04 Eh
   gradient norm :     0.0045009 Eh/α   predicted    -0.6425397E-04 ( -32.65%)
   displ. norm   :     0.3048285 α      lambda       -0.1469652E-03
   maximum displ.:     0.1706443 α      in ANC's #1, #2, #6, ...

........................................................................
.............................. CYCLE   28 ..............................
........................................................................
   1    -84.3528113 -0.843528E+02  0.146E-02    0.53       0.0  T
   2    -84.3528184 -0.715957E-05  0.356E-03    0.54       4.3  T
   3    -84.3528189 -0.514502E-06  0.197E-03    0.54       7.8  T
   4    -84.3528190 -0.672790E-07  0.752E-04    0.54      20.5  T
   5    -84.3528190 -0.103611E-09  0.344E-04    0.54      44.8  T
   6    -84.3528190 -0.170930E-08  0.535E-05    0.54     288.6  T
   7    -84.3528190 -0.617320E-10  0.177E-05    0.54     870.3  T
     SCC iter.                  ...        0 min,  0.025 sec
     gradient                   ...        0 min,  0.158 sec
 * total energy  :   -83.6379004 Eh     change       -0.1118283E-03 Eh
   gradient norm :     0.0040934 Eh/α   predicted    -0.8031236E-04 ( -28.18%)
   displ. norm   :     0.2988801 α      lambda       -0.1263054E-03
   maximum displ.:     0.1738236 α      in ANC's #1, #2, #6, ...

........................................................................
.............................. CYCLE   29 ..............................
........................................................................
   1    -84.3536997 -0.843537E+02  0.122E-02    0.55       0.0  T
   2    -84.3537045 -0.479609E-05  0.296E-03    0.55       5.2  T
   3    -84.3537049 -0.335333E-06  0.161E-03    0.55       9.6  T
   4    -84.3537049 -0.430708E-07  0.629E-04    0.55      24.5  T
   5    -84.3537049 -0.143274E-09  0.270E-04    0.55      57.3  T
   6    -84.3537049 -0.109323E-08  0.471E-05    0.55     327.6  T
   7    -84.3537049 -0.492690E-10  0.155E-05    0.55     992.5  T
     SCC iter.                  ...        0 min,  0.038 sec
     gradient                   ...        0 min,  0.132 sec
 * total energy  :   -83.6379989 Eh     change       -0.9847272E-04 Eh
   gradient norm :     0.0044423 Eh/α   predicted    -0.6880126E-04 ( -30.13%)
   displ. norm   :     0.3247643 α      lambda       -0.1186659E-03
   maximum displ.:     0.1936079 α      in ANC's #1, #2, #6, ...

........................................................................
.............................. CYCLE   30 ..............................
........................................................................
   1    -84.3543263 -0.843543E+02  0.103E-02    0.56       0.0  T
   2    -84.3543300 -0.367306E-05  0.247E-03    0.56       6.2  T
   3    -84.3543302 -0.237558E-06  0.145E-03    0.56      10.6  T
   4    -84.3543303 -0.434764E-07  0.566E-04    0.56      27.3  T
   5    -84.3543303 -0.261011E-09  0.182E-04    0.56      84.6  T
   6    -84.3543303 -0.379913E-09  0.402E-05    0.56     383.7  T
     SCC iter.                  ...        0 min,  0.047 sec
     gradient                   ...        0 min,  0.080 sec
 * total energy  :   -83.6380928 Eh     change       -0.9390425E-04 Eh
   gradient norm :     0.0042850 Eh/α   predicted    -0.6559108E-04 ( -30.15%)
   displ. norm   :     0.3336950 α      lambda       -0.1087295E-03
   maximum displ.:     0.2036333 α      in ANC's #1, #2, #6, ...

........................................................................
.............................. CYCLE   31 ..............................
........................................................................
   1    -84.3548253 -0.843548E+02  0.776E-03    0.56       0.0  T
   2    -84.3548276 -0.228080E-05  0.188E-03    0.56       8.2  T
   3    -84.3548277 -0.934090E-07  0.868E-04    0.56      17.8  T
   4    -84.3548277 -0.777126E-08  0.406E-04    0.56      38.0  T
   5    -84.3548277 -0.883958E-09  0.131E-04    0.56     118.0  T
   6    -84.3548277 -0.205006E-09  0.279E-05    0.56     552.8  T
     SCC iter.                  ...        0 min,  0.034 sec
     gradient                   ...        0 min,  0.144 sec
 * total energy  :   -83.6381789 Eh     change       -0.8608249E-04 Eh
   gradient norm :     0.0034252 Eh/α   predicted    -0.6042199E-04 ( -29.81%)
   displ. norm   :     0.3346554 α      lambda       -0.8856831E-04
   maximum displ.:     0.2079255 α      in ANC's #1, #2, #6, ...

........................................................................
.............................. CYCLE   32 ..............................
........................................................................
   1    -84.3544192 -0.843544E+02  0.690E-03    0.56       0.0  T
   2    -84.3544214 -0.218736E-05  0.183E-03    0.56       8.4  T
   3    -84.3544215 -0.881440E-07  0.912E-04    0.57      16.9  T
   4    -84.3544215 -0.117067E-07  0.412E-04    0.57      37.4  T
   5    -84.3544215 -0.751044E-09  0.140E-04    0.57     110.2  T
   6    -84.3544215 -0.172037E-09  0.280E-05    0.57     550.3  T
     SCC iter.                  ...        0 min,  0.048 sec
     gradient                   ...        0 min,  0.138 sec
 * total energy  :   -83.6382464 Eh     change       -0.6751279E-04 Eh
   gradient norm :     0.0034258 Eh/α   predicted    -0.4924862E-04 ( -27.05%)
   displ. norm   :     0.2353638 α      lambda       -0.6788070E-04
   maximum displ.:     0.1547554 α      in ANC's #1, #2, #6, ...

........................................................................
.............................. CYCLE   33 ..............................
........................................................................
   1    -84.3558117 -0.843558E+02  0.456E-03    0.56       0.0  T
   2    -84.3558124 -0.628013E-06  0.211E-03    0.56       7.3  T
   3    -84.3558125 -0.869020E-07  0.109E-03    0.56      14.1  T
   4    -84.3558125 -0.363499E-08  0.344E-04    0.56      44.9  T
   5    -84.3558125 -0.963766E-09  0.607E-05    0.56     254.3  T
   6    -84.3558125 -0.552092E-10  0.205E-05    0.56     751.4  T
     SCC iter.                  ...        0 min,  0.021 sec
     gradient                   ...        0 min,  0.077 sec
 * total energy  :   -83.6382939 Eh     change       -0.4749702E-04 Eh
   gradient norm :     0.0035090 Eh/α   predicted    -0.3583351E-04 ( -24.56%)
   displ. norm   :     0.2761291 α      lambda       -0.6196654E-04
   maximum displ.:     0.1782273 α      in ANC's #1, #2, #6, ...

........................................................................
.............................. CYCLE   34 ..............................
........................................................................
   1    -84.3541817 -0.843542E+02  0.466E-03    0.56       0.0  T
   2    -84.3541821 -0.422494E-06  0.195E-03    0.56       7.9  T
   3    -84.3541822 -0.278039E-07  0.107E-03    0.56      14.5  T
   4    -84.3541822 -0.261124E-08  0.262E-04    0.56      58.8  T
   5    -84.3541822 -0.741522E-09  0.511E-05    0.56     302.2  T
   6    -84.3541822 -0.470521E-10  0.135E-05    0.56    1139.3  T
     SCC iter.                  ...        0 min,  0.034 sec
     gradient                   ...        0 min,  0.155 sec
 * total energy  :   -83.6383377 Eh     change       -0.4382731E-04 Eh
   gradient norm :     0.0039839 Eh/α   predicted    -0.3334961E-04 ( -23.91%)
   displ. norm   :     0.1668142 α      lambda       -0.5066206E-04
   maximum displ.:     0.1205165 α      in ANC's #1, #2, #6, ...

........................................................................
.............................. CYCLE   35 ..............................
........................................................................
   1    -84.3548301 -0.843548E+02  0.565E-03    0.56       0.0  T
   2    -84.3548314 -0.134257E-05  0.150E-03    0.56      10.3  T
   3    -84.3548315 -0.568818E-07  0.641E-04    0.56      24.1  T
   4    -84.3548315 -0.339695E-08  0.352E-04    0.55      43.9  T
   5    -84.3548315 -0.404697E-09  0.799E-05    0.55     193.2  T
   6    -84.3548315 -0.821245E-10  0.211E-05    0.55     732.9  T
     SCC iter.                  ...        0 min,  0.021 sec
     gradient                   ...        0 min,  0.078 sec
 * total energy  :   -83.6383773 Eh     change       -0.3963749E-04 Eh
   gradient norm :     0.0032595 Eh/α   predicted    -0.2603824E-04 ( -34.31%)
   displ. norm   :     0.2215300 α      lambda       -0.6205189E-04
   maximum displ.:     0.1675697 α      in ANC's #1, #2, #6, ...

........................................................................
.............................. CYCLE   36 ..............................
........................................................................
   1    -84.3551315 -0.843551E+02  0.101E-02    0.55       0.0  T
   2    -84.3551362 -0.469169E-05  0.235E-03    0.55       6.6  T
   3    -84.3551364 -0.198993E-06  0.119E-03    0.55      12.9  T
   4    -84.3551365 -0.310099E-07  0.514E-04    0.55      30.0  T
   5    -84.3551365 -0.786216E-09  0.181E-04    0.55      85.3  T
   6    -84.3551365 -0.224119E-09  0.350E-05    0.55     441.5  T
     SCC iter.                  ...        0 min,  0.021 sec
     gradient                   ...        0 min,  0.077 sec
 * total energy  :   -83.6384243 Eh     change       -0.4698771E-04 Eh
   gradient norm :     0.0029468 Eh/α   predicted    -0.3254918E-04 ( -30.73%)
   displ. norm   :     0.1999094 α      lambda       -0.5140314E-04
   maximum displ.:     0.1598445 α      in ANC's #1, #2, #17, ...

........................................................................
.............................. CYCLE   37 ..............................
........................................................................
   1    -84.3551785 -0.843552E+02  0.949E-03    0.55       0.0  T
   2    -84.3551822 -0.368434E-05  0.219E-03    0.54       7.0  T
   3    -84.3551824 -0.147569E-06  0.778E-04    0.54      19.8  T
   4    -84.3551824 -0.594829E-08  0.470E-04    0.54      32.8  T
   5    -84.3551824 -0.105156E-08  0.118E-04    0.54     131.1  T
   6    -84.3551824 -0.232532E-09  0.345E-05    0.54     447.2  T
     SCC iter.                  ...        0 min,  0.021 sec
     gradient                   ...        0 min,  0.078 sec
 * total energy  :   -83.6384657 Eh     change       -0.4134557E-04 Eh
   gradient norm :     0.0028794 Eh/α   predicted    -0.2673136E-04 ( -35.35%)
   displ. norm   :     0.1699597 α      lambda       -0.4872489E-04
   maximum displ.:     0.1426941 α      in ANC's #1, #2, #17, ...

........................................................................
.............................. CYCLE   38 ..............................
........................................................................
   1    -84.3554345 -0.843554E+02  0.905E-03    0.53       0.0  T
   2    -84.3554377 -0.316914E-05  0.217E-03    0.53       7.1  T
   3    -84.3554378 -0.128562E-06  0.843E-04    0.53      18.3  T
   4    -84.3554378 -0.561039E-08  0.449E-04    0.53      34.4  T
   5    -84.3554378 -0.738808E-09  0.106E-04    0.53     145.9  T
   6    -84.3554378 -0.186404E-09  0.266E-05    0.53     579.2  T
     SCC iter.                  ...        0 min,  0.028 sec
     gradient                   ...        0 min,  0.078 sec
 * total energy  :   -83.6385057 Eh     change       -0.4005210E-04 Eh
   gradient norm :     0.0026497 Eh/α   predicted    -0.2506937E-04 ( -37.41%)
   displ. norm   :     0.1641399 α      lambda       -0.4556063E-04
   maximum displ.:     0.1400696 α      in ANC's #1, #17, #2, ...

........................................................................
.............................. CYCLE   39 ..............................
........................................................................
   1    -84.3555060 -0.843555E+02  0.797E-03    0.52       0.0  T
   2    -84.3555083 -0.231280E-05  0.237E-03    0.52       6.5  T
   3    -84.3555084 -0.114769E-06  0.871E-04    0.52      17.7  T
   4    -84.3555084 -0.108071E-07  0.531E-04    0.52      29.1  T
   5    -84.3555084 -0.151472E-08  0.116E-04    0.52     133.5  T
   6    -84.3555084 -0.301782E-09  0.340E-05    0.52     453.8  T
     SCC iter.                  ...        0 min,  0.021 sec
     gradient                   ...        0 min,  0.078 sec
 * total energy  :   -83.6385413 Eh     change       -0.3554455E-04 Eh
   gradient norm :     0.0020016 Eh/α   predicted    -0.2339868E-04 ( -34.17%)
   displ. norm   :     0.1180468 α      lambda       -0.2852515E-04
   maximum displ.:     0.1043095 α      in ANC's #1, #17, #7, ...

........................................................................
.............................. CYCLE   40 ..............................
........................................................................
   1    -84.3557903 -0.843558E+02  0.507E-03    0.51       0.0  T
   2    -84.3557912 -0.968578E-06  0.174E-03    0.51       8.9  T
   3    -84.3557913 -0.527646E-07  0.690E-04    0.51      22.4  T
   4    -84.3557913 -0.561948E-08  0.407E-04    0.51      37.9  T
   5    -84.3557913 -0.121678E-08  0.912E-05    0.51     169.3  T
   6    -84.3557913 -0.159801E-09  0.202E-05    0.51     762.2  T
     SCC iter.                  ...        0 min,  0.021 sec
     gradient                   ...        0 min,  0.078 sec
 * total energy  :   -83.6385634 Eh     change       -0.2211346E-04 Eh
   gradient norm :     0.0017536 Eh/α   predicted    -0.1446255E-04 ( -34.60%)
   displ. norm   :     0.1186358 α      lambda       -0.1900162E-04
   maximum displ.:     0.1040020 α      in ANC's #1, #7, #8, ...

........................................................................
.............................. CYCLE   41 ..............................
........................................................................
   1    -84.3558847 -0.843559E+02  0.384E-03    0.50       0.0  T
   2    -84.3558852 -0.474699E-06  0.145E-03    0.50      10.6  T
   3    -84.3558852 -0.314464E-07  0.645E-04    0.50      23.9  T
   4    -84.3558852 -0.305351E-08  0.293E-04    0.50      52.7  T
   5    -84.3558852 -0.497792E-09  0.638E-05    0.50     241.8  T
   6    -84.3558852 -0.901821E-10  0.152E-05    0.50    1015.6  T
     SCC iter.                  ...        0 min,  0.021 sec
     gradient                   ...        0 min,  0.077 sec
 * total energy  :   -83.6385847 Eh     change       -0.2137542E-04 Eh
   gradient norm :     0.0016888 Eh/α   predicted    -0.9563834E-05 ( -55.26%)
   displ. norm   :     0.0864417 α      lambda       -0.1649180E-04
   maximum displ.:     0.0709871 α      in ANC's #1, #4, #7, ...

........................................................................
.............................. CYCLE   42 ..............................
........................................................................
   1    -84.3561449 -0.843561E+02  0.238E-03    0.50       0.0  T
   2    -84.3561451 -0.165325E-06  0.118E-03    0.50      13.1  T
   3    -84.3561451 -0.203267E-07  0.601E-04    0.50      25.7  T
   4    -84.3561451 -0.200586E-09  0.183E-04    0.50      84.2  T
   5    -84.3561451 -0.409756E-09  0.282E-05    0.50     547.5  T
     SCC iter.                  ...        0 min,  0.017 sec
     gradient                   ...        0 min,  0.088 sec
 * total energy  :   -83.6386048 Eh     change       -0.2005497E-04 Eh
   gradient norm :     0.0020395 Eh/α   predicted    -0.8275925E-05 ( -58.73%)
   displ. norm   :     0.0740997 α      lambda       -0.2205614E-04
   maximum displ.:     0.0568116 α      in ANC's #1, #4, #9, ...
 * RMSD in coord.:     0.6349731 α      energy gain  -0.1421642E-02 Eh

generating ANC from model Hessian ...
Using Lindh-Hessian (1995)
 Shifting diagonal of input Hessian by   9.847411039944218E-003
 Lowest  eigenvalues of input Hessian
    0.000000    0.000000    0.000000    0.000000    0.000000    0.000000
    0.010000    0.010381    0.010705    0.010837    0.011398    0.011950
    0.013101    0.013331    0.014209    0.015542    0.015797    0.017176
 Highest eigenvalues
    2.004053    2.044092    2.123365    2.142256    2.245903    2.430012
 

........................................................................
.............................. CYCLE   43 ..............................
........................................................................
   1    -84.3559728 -0.843560E+02  0.217E-03    0.50       0.0  T
   2    -84.3559729 -0.115714E-06  0.872E-04    0.50      17.7  T
   3    -84.3559729 -0.917294E-08  0.401E-04    0.50      38.5  T
   4    -84.3559729 -0.570850E-09  0.146E-04    0.50     105.9  T
   5    -84.3559729 -0.108727E-09  0.250E-05    0.50     616.8  T
     SCC iter.                  ...        0 min,  0.018 sec
     gradient                   ...        0 min,  0.077 sec
 * total energy  :   -83.6386240 Eh     change       -0.1918897E-04 Eh
   gradient norm :     0.0019105 Eh/α   predicted     0.0000000E+00 (-100.00%)
   displ. norm   :     0.0394155 α      lambda       -0.8116387E-05
   maximum displ.:     0.0330902 α      in ANC's #1, #4, #2, ...

........................................................................
.............................. CYCLE   44 ..............................
........................................................................
   1    -84.3558705 -0.843559E+02  0.181E-03    0.50       0.0  T
   2    -84.3558706 -0.136043E-06  0.824E-04    0.50      18.7  T
   3    -84.3558706 -0.129817E-07  0.379E-04    0.50      40.7  T
   4    -84.3558706 -0.208459E-09  0.172E-04    0.50      89.9  T
   5    -84.3558706 -0.252498E-09  0.285E-05    0.50     540.7  T
     SCC iter.                  ...        0 min,  0.017 sec
     gradient                   ...        0 min,  0.077 sec
 * total energy  :   -83.6386376 Eh     change       -0.1362685E-04 Eh
   gradient norm :     0.0008809 Eh/α   predicted    -0.5883716E-05 ( -56.82%)
   displ. norm   :     0.0804752 α      lambda       -0.1765021E-04
   maximum displ.:     0.0641282 α      in ANC's #1, #2, #4, ...

........................................................................
.............................. CYCLE   45 ..............................
........................................................................
   1    -84.3557258 -0.843557E+02  0.319E-03    0.51       0.0  T
   2    -84.3557262 -0.440148E-06  0.141E-03    0.51      11.0  T
   3    -84.3557262 -0.445212E-07  0.580E-04    0.51      26.6  T
   4    -84.3557262 -0.106988E-08  0.293E-04    0.51      52.6  T
   5    -84.3557262 -0.616780E-09  0.550E-05    0.51     280.4  T
   6    -84.3557262 -0.595293E-10  0.147E-05    0.51    1051.9  T
     SCC iter.                  ...        0 min,  0.021 sec
     gradient                   ...        0 min,  0.077 sec
 * total energy  :   -83.6386545 Eh     change       -0.1685614E-04 Eh
   gradient norm :     0.0016661 Eh/α   predicted    -0.8851426E-05 ( -47.49%)
   displ. norm   :     0.0753494 α      lambda       -0.1363599E-04
   maximum displ.:     0.0604715 α      in ANC's #1, #2, #4, ...

........................................................................
.............................. CYCLE   46 ..............................
........................................................................
   1    -84.3556973 -0.843557E+02  0.242E-03    0.51       0.0  T
   2    -84.3556975 -0.261794E-06  0.970E-04    0.51      15.9  T
   3    -84.3556975 -0.235760E-07  0.344E-04    0.51      44.9  T
   4    -84.3556975 -0.222492E-08  0.194E-04    0.51      79.7  T
   5    -84.3556975 -0.219359E-09  0.449E-05    0.51     343.4  T
     SCC iter.                  ...        0 min,  0.017 sec
     gradient                   ...        0 min,  0.077 sec
 * total energy  :   -83.6386713 Eh     change       -0.1681794E-04 Eh
   gradient norm :     0.0018796 Eh/α   predicted    -0.6841351E-05 ( -59.32%)
   displ. norm   :     0.0908176 α      lambda       -0.1504103E-04
   maximum displ.:     0.0725853 α      in ANC's #1, #2, #4, ...

........................................................................
.............................. CYCLE   47 ..............................
........................................................................
   1    -84.3556790 -0.843557E+02  0.290E-03    0.51       0.0  T
   2    -84.3556793 -0.375958E-06  0.816E-04    0.51      18.9  T
   3    -84.3556794 -0.151550E-07  0.280E-04    0.51      55.1  T
   4    -84.3556794 -0.171808E-08  0.193E-04    0.51      79.9  T
   5    -84.3556794 -0.314955E-09  0.456E-05    0.51     338.3  T
     SCC iter.                  ...        0 min,  0.017 sec
     gradient                   ...        0 min,  0.078 sec
 * total energy  :   -83.6386917 Eh     change       -0.2042292E-04 Eh
   gradient norm :     0.0014163 Eh/α   predicted    -0.7551039E-05 ( -63.03%)
   displ. norm   :     0.1189488 α      lambda       -0.1887919E-04
   maximum displ.:     0.0932450 α      in ANC's #1, #2, #4, ...

........................................................................
.............................. CYCLE   48 ..............................
........................................................................
   1    -84.3556653 -0.843557E+02  0.365E-03    0.51       0.0  T
   2    -84.3556658 -0.564419E-06  0.815E-04    0.51      18.9  T
   3    -84.3556659 -0.198796E-07  0.353E-04    0.52      43.7  T
   4    -84.3556659 -0.119640E-08  0.182E-04    0.52      84.9  T
   5    -84.3556659 -0.128921E-09  0.543E-05    0.52     284.4  T
     SCC iter.                  ...        0 min,  0.017 sec
     gradient                   ...        0 min,  0.078 sec
 * total energy  :   -83.6387172 Eh     change       -0.2548555E-04 Eh
   gradient norm :     0.0007759 Eh/α   predicted    -0.9499679E-05 ( -62.73%)
   displ. norm   :     0.1419242 α      lambda       -0.2011647E-04
   maximum displ.:     0.1096404 α      in ANC's #1, #2, #6, ...

........................................................................
.............................. CYCLE   49 ..............................
........................................................................
   1    -84.3556784 -0.843557E+02  0.388E-03    0.52       0.0  T
   2    -84.3556790 -0.576779E-06  0.838E-04    0.52      18.4  T
   3    -84.3556790 -0.261214E-07  0.464E-04    0.52      33.2  T
   4    -84.3556790 -0.367602E-08  0.204E-04    0.52      75.5  T
   5    -84.3556790 -0.899263E-10  0.682E-05    0.52     226.4  T
   6    -84.3556790 -0.408846E-10  0.139E-05    0.52    1109.5  T
     SCC iter.                  ...        0 min,  0.021 sec
     gradient                   ...        0 min,  0.078 sec
 * total energy  :   -83.6387441 Eh     change       -0.2687009E-04 Eh
   gradient norm :     0.0009997 Eh/α   predicted    -0.1015013E-04 ( -62.23%)
   displ. norm   :     0.1456765 α      lambda       -0.1894395E-04
   maximum displ.:     0.1115095 α      in ANC's #1, #2, #6, ...

........................................................................
.............................. CYCLE   50 ..............................
........................................................................
   1    -84.3557105 -0.843557E+02  0.322E-03    0.52       0.0  T
   2    -84.3557109 -0.372419E-06  0.714E-04    0.52      21.6  T
   3    -84.3557109 -0.207874E-07  0.439E-04    0.52      35.2  T
   4    -84.3557109 -0.345062E-08  0.188E-04    0.52      82.1  T
   5    -84.3557109 -0.294875E-10  0.572E-05    0.52     269.9  T
     SCC iter.                  ...        0 min,  0.018 sec
     gradient                   ...        0 min,  0.077 sec
 * total energy  :   -83.6387693 Eh     change       -0.2519843E-04 Eh
   gradient norm :     0.0012612 Eh/α   predicted    -0.9564100E-05 ( -62.04%)
   displ. norm   :     0.1367540 α      lambda       -0.1686397E-04
   maximum displ.:     0.1044768 α      in ANC's #1, #2, #6, ...

........................................................................
.............................. CYCLE   51 ..............................
........................................................................
   1    -84.3557855 -0.843558E+02  0.208E-03    0.53       0.0  T
   2    -84.3557856 -0.145290E-06  0.532E-04    0.53      29.0  T
   3    -84.3557856 -0.828580E-08  0.327E-04    0.53      47.2  T
   4    -84.3557856 -0.122196E-08  0.142E-04    0.53     109.0  T
   5    -84.3557856 -0.273559E-10  0.403E-05    0.53     382.5  T
     SCC iter.                  ...        0 min,  0.018 sec
     gradient                   ...        0 min,  0.077 sec
 * total energy  :   -83.6387923 Eh     change       -0.2300516E-04 Eh
   gradient norm :     0.0012063 Eh/α   predicted    -0.8504112E-05 ( -63.03%)
   displ. norm   :     0.1225527 α      lambda       -0.1457584E-04
   maximum displ.:     0.0948960 α      in ANC's #1, #2, #6, ...

........................................................................
.............................. CYCLE   52 ..............................
........................................................................
   1    -84.3558792 -0.843559E+02  0.113E-03    0.53       0.0  T
   2    -84.3558793 -0.401074E-07  0.369E-04    0.53      41.8  T
   3    -84.3558793 -0.204484E-08  0.207E-04    0.53      74.5  T
   4    -84.3558793 -0.184627E-09  0.810E-05    0.53     190.6  T
   5    -84.3558793 -0.332392E-10  0.206E-05    0.53     747.7  T
     SCC iter.                  ...        0 min,  0.017 sec
     gradient                   ...        0 min,  0.077 sec
 * total energy  :   -83.6388126 Eh     change       -0.2037704E-04 Eh
   gradient norm :     0.0009760 Eh/α   predicted    -0.7339743E-05 ( -63.98%)
   displ. norm   :     0.1095784 α      lambda       -0.1312379E-04
   maximum displ.:     0.0864293 α      in ANC's #1, #2, #3, ...

........................................................................
.............................. CYCLE   53 ..............................
........................................................................
   1    -84.3559250 -0.843559E+02  0.899E-04    0.53       0.0  T
   2    -84.3559250 -0.280104E-07  0.367E-04    0.53      42.1  T
   3    -84.3559251 -0.288397E-08  0.189E-04    0.53      81.8  T
   4    -84.3559251 -0.164391E-09  0.758E-05    0.53     203.7  T
     SCC iter.                  ...        0 min,  0.014 sec
     gradient                   ...        0 min,  0.078 sec
 * total energy  :   -83.6388312 Eh     change       -0.1859676E-04 Eh
   gradient norm :     0.0008200 Eh/α   predicted    -0.6599107E-05 ( -64.51%)
   displ. norm   :     0.1011199 α      lambda       -0.1250937E-04
   maximum displ.:     0.0814885 α      in ANC's #1, #2, #3, ...

........................................................................
.............................. CYCLE   54 ..............................
........................................................................
   1    -84.3559617 -0.843560E+02  0.164E-03    0.53       0.0  T
   2    -84.3559618 -0.959850E-07  0.444E-04    0.53      34.8  T
   3    -84.3559618 -0.740215E-08  0.245E-04    0.53      63.0  T
   4    -84.3559618 -0.116462E-08  0.973E-05    0.53     158.6  T
   5    -84.3559618 -0.136424E-10  0.288E-05    0.53     535.4  T
     SCC iter.                  ...        0 min,  0.017 sec
     gradient                   ...        0 min,  0.080 sec
 * total energy  :   -83.6388492 Eh     change       -0.1790572E-04 Eh
   gradient norm :     0.0007988 Eh/α   predicted    -0.6284796E-05 ( -64.90%)
   displ. norm   :     0.1003675 α      lambda       -0.1289422E-04
   maximum displ.:     0.0818172 α      in ANC's #1, #2, #3, ...

........................................................................
.............................. CYCLE   55 ..............................
........................................................................
   1    -84.3559805 -0.843560E+02  0.249E-03    0.53       0.0  T
   2    -84.3559808 -0.227207E-06  0.551E-04    0.52      28.0  T
   3    -84.3559808 -0.137994E-07  0.333E-04    0.52      46.4  T
   4    -84.3559808 -0.242025E-08  0.134E-04    0.52     115.2  T
   5    -84.3559808 -0.342624E-10  0.490E-05    0.52     315.1  T
     SCC iter.                  ...        0 min,  0.015 sec
     gradient                   ...        0 min,  0.082 sec
 * total energy  :   -83.6388677 Eh     change       -0.1854756E-04 Eh
   gradient norm :     0.0007793 Eh/α   predicted    -0.6476926E-05 ( -65.08%)
   displ. norm   :     0.1082398 α      lambda       -0.1424535E-04
   maximum displ.:     0.0885954 α      in ANC's #1, #2, #3, ...

........................................................................
.............................. CYCLE   56 ..............................
........................................................................
   1    -84.3559819 -0.843560E+02  0.355E-03    0.52       0.0  T
   2    -84.3559823 -0.461891E-06  0.760E-04    0.52      20.3  T
   3    -84.3559824 -0.239053E-07  0.430E-04    0.52      35.9  T
   4    -84.3559824 -0.342108E-08  0.178E-04    0.52      86.6  T
   5    -84.3559824 -0.543423E-10  0.727E-05    0.52     212.2  T
     SCC iter.                  ...        0 min,  0.018 sec
     gradient                   ...        0 min,  0.083 sec
 * total energy  :   -83.6388881 Eh     change       -0.2040480E-04 Eh
   gradient norm :     0.0006889 Eh/α   predicted    -0.7160621E-05 ( -64.91%)
   displ. norm   :     0.1197501 α      lambda       -0.1553554E-04
   maximum displ.:     0.0981302 α      in ANC's #1, #2, #3, ...

........................................................................
.............................. CYCLE   57 ..............................
........................................................................
   1    -84.3559958 -0.843560E+02  0.436E-03    0.52       0.0  T
   2    -84.3559965 -0.718047E-06  0.913E-04    0.52      16.9  T
   3    -84.3559965 -0.347545E-07  0.478E-04    0.52      32.3  T
   4    -84.3559965 -0.343709E-08  0.210E-04    0.52      73.6  T
   5    -84.3559965 -0.100627E-09  0.942E-05    0.52     163.7  T
   6    -84.3559965 -0.913616E-10  0.145E-05    0.52    1061.2  T
     SCC iter.                  ...        0 min,  0.022 sec
     gradient                   ...        0 min,  0.083 sec
 * total energy  :   -83.6389103 Eh     change       -0.2218653E-04 Eh
   gradient norm :     0.0005464 Eh/α   predicted    -0.7819529E-05 ( -64.76%)
   displ. norm   :     0.1286990 α      lambda       -0.1603315E-04
   maximum displ.:     0.1056986 α      in ANC's #1, #2, #3, ...

........................................................................
.............................. CYCLE   58 ..............................
........................................................................
   1    -84.3560122 -0.843560E+02  0.483E-03    0.51       0.0  T
   2    -84.3560130 -0.886720E-06  0.104E-03    0.51      14.8  T
   3    -84.3560131 -0.409999E-07  0.487E-04    0.51      31.7  T
   4    -84.3560131 -0.263668E-08  0.216E-04    0.51      71.5  T
   5    -84.3560131 -0.147494E-09  0.985E-05    0.51     156.6  T
   6    -84.3560131 -0.115520E-09  0.160E-05    0.51     962.2  T
     SCC iter.                  ...        0 min,  0.022 sec
     gradient                   ...        0 min,  0.083 sec
 * total energy  :   -83.6389329 Eh     change       -0.2264597E-04 Eh
   gradient norm :     0.0004215 Eh/α   predicted    -0.8077475E-05 ( -64.33%)
   displ. norm   :     0.1215640 α      lambda       -0.1410220E-04
   maximum displ.:     0.1004693 α      in ANC's #1, #2, #3, ...

........................................................................
.............................. CYCLE   59 ..............................
........................................................................
   1    -84.3560425 -0.843560E+02  0.426E-03    0.51       0.0  T
   2    -84.3560432 -0.697937E-06  0.920E-04    0.51      16.8  T
   3    -84.3560433 -0.317896E-07  0.411E-04    0.51      37.6  T
   4    -84.3560433 -0.164844E-08  0.185E-04    0.51      83.3  T
   5    -84.3560433 -0.101224E-09  0.832E-05    0.51     185.4  T
     SCC iter.                  ...        0 min,  0.018 sec
     gradient                   ...        0 min,  0.083 sec
 * total energy  :   -83.6389526 Eh     change       -0.1964941E-04 Eh
   gradient norm :     0.0004363 Eh/α   predicted    -0.7098226E-05 ( -63.88%)
   displ. norm   :     0.0986984 α      lambda       -0.1063515E-04
   maximum displ.:     0.0825450 α      in ANC's #1, #3, #2, ...

........................................................................
.............................. CYCLE   60 ..............................
........................................................................
   1    -84.3560866 -0.843561E+02  0.293E-03    0.51       0.0  T
   2    -84.3560870 -0.335324E-06  0.669E-04    0.50      23.1  T
   3    -84.3560870 -0.150115E-07  0.263E-04    0.50      58.7  T
   4    -84.3560870 -0.558302E-09  0.125E-04    0.50     123.3  T
   5    -84.3560870 -0.377582E-10  0.377E-05    0.50     409.4  T
     SCC iter.                  ...        0 min,  0.018 sec
     gradient                   ...        0 min,  0.083 sec
 * total energy  :   -83.6389676 Eh     change       -0.1497183E-04 Eh
   gradient norm :     0.0005607 Eh/α   predicted    -0.5341030E-05 ( -64.33%)
   displ. norm   :     0.0751267 α      lambda       -0.7979586E-05
   maximum displ.:     0.0638266 α      in ANC's #1, #6, #3, ...

........................................................................
.............................. CYCLE   61 ..............................
........................................................................
   1    -84.3561402 -0.843561E+02  0.152E-03    0.50       0.0  T
   2    -84.3561403 -0.921332E-07  0.371E-04    0.50      41.6  T
   3    -84.3561403 -0.398946E-08  0.137E-04    0.50     112.5  T
   4    -84.3561403 -0.150209E-09  0.747E-05    0.50     206.6  T
     SCC iter.                  ...        0 min,  0.015 sec
     gradient                   ...        0 min,  0.083 sec
 * total energy  :   -83.6389790 Eh     change       -0.1147369E-04 Eh
   gradient norm :     0.0005717 Eh/α   predicted    -0.4000354E-05 ( -65.13%)
   displ. norm   :     0.0601707 α      lambda       -0.6695594E-05
   maximum displ.:     0.0515905 α      in ANC's #1, #6, #3, ...

........................................................................
.............................. CYCLE   62 ..............................
........................................................................
   1    -84.3561664 -0.843562E+02  0.468E-04    0.50       0.0  T
   2    -84.3561664 -0.883357E-08  0.180E-04    0.50      85.7  T
   3    -84.3561664 -0.618940E-09  0.756E-05    0.50     204.2  T
     SCC iter.                  ...        0 min,  0.011 sec
     gradient                   ...        0 min,  0.083 sec
 * total energy  :   -83.6389888 Eh     change       -0.9773062E-05 Eh
   gradient norm :     0.0005988 Eh/α   predicted    -0.3353533E-05 ( -65.69%)
   displ. norm   :     0.0560870 α      lambda       -0.6678138E-05
   maximum displ.:     0.0479202 α      in ANC's #1, #6, #3, ...

........................................................................
.............................. CYCLE   63 ..............................
........................................................................
[...]
C6-C3-O5=111.25                H29-C4-C3=109.80               H30-C4-C3=111.17               H30-C4-H29=109.81              
H31-C4-C3=108.13               H31-C4-H29=108.91              H31-C4-H30=108.97              H42-O5-C3=102.79               
N7-C6-C3=117.15                C24-C6-C3=120.58               C24-C6-N7=122.25               C8-N7-C6=116.38                
C9-C8-N7=116.33                N21-C8-N7=127.29               N21-C8-C9=116.38               C10-C9-C8=109.98               
C11-C9-C8=109.66               C11-C9-C10=110.51              N12-C9-C8=106.32               N12-C9-C10=110.46              
N12-C9-C11=109.82              H32-C10-C9=110.13              H33-C10-C9=108.55              H33-C10-H32=108.79             
H34-C10-C9=111.22              H34-C10-H32=109.00             H34-C10-H33=109.11             
 
 selected dihedral angles (degree)
 ---------------------------------
C3-O2-C1-H26=163.80           C3-O2-C1-H27= 44.56           C3-O2-C1-H28=282.21           C4-C3-O2-C1= 54.65            
O5-C3-O2-C1=172.93            C6-C3-O2-C1=293.71            H29-C4-C3-O2= 51.44           H29-C4-C3-O5=295.05           
H29-C4-C3-C6=172.19           H30-C4-C3-O2=289.72           H30-C4-C3-O5=173.34           H30-C4-C3-C6= 50.47           
H31-C4-C3-O2=170.15           H31-C4-C3-O5= 53.76           H31-C4-C3-C6=290.89           H42-O5-C3-O2=104.67           
H42-O5-C3-C4=222.39           H42-O5-C3-C6=344.69           N7-C6-C3-O2= 76.70            N7-C6-C3-C4=316.65            
N7-C6-C3-O5=194.71            C24-C6-C3-O2=255.21           C24-C6-C3-C4=135.16           C24-C6-C3-O5= 13.22           
C8-N7-C6-C3=178.48            C8-N7-C6-C24=  0.00           C9-C8-N7-C6=179.81            N21-C8-N7-C6=  0.21           
C10-C9-C8-N7= 49.02           C10-C9-C8-N21=228.68          C11-C9-C8-N7=287.31           C11-C9-C8-N21=106.96          
N12-C9-C8-N7=168.63           N12-C9-C8-N21=348.28          H32-C10-C9-C8= 65.16          H32-C10-C9-C11=186.37         
H32-C10-C9-N12=308.10         H33-C10-C9-C8=306.15          H33-C10-C9-C11= 67.37         H33-C10-C9-N12=189.10         
H34-C10-C9-C8=186.10          H34-C10-C9-C11=307.32         H34-C10-C9-N12= 69.05         
           -------------------------------------------------
          |                Final Singlepoint                |
           -------------------------------------------------

          ...................................................
          :                      SETUP                      :
          :.................................................:
          :  # basis functions                 134          :
          :  # atomic orbitals                 134          :
          :  # shells                           84          :
          :  # electrons                       136          :
          :  # halogen bonds                     0          :
          :  max. iterations                   250          :
          :  Hamiltonian                  GFN1-xTB          :
          :  restarted?                      false          :
          :  GBSA solvation                   true          :
          :  PC potential                    false          :
          :  electronic temp.          300.0000000     K    :
          :  accuracy                    1.0000000          :
          :  -> integral cutoff          0.2500000E+02      :
          :  -> integral neglect         0.1000000E-07      :
          :  -> SCF convergence          0.1000000E-05 Eh   :
          :  -> wf. convergence          0.2000000E-04 e    :
          :  Broyden damping             0.4000000          :
          ...................................................

 iter      E             dE          RMSdq      gap      omega  full diag
   1    -84.3561671 -0.843562E+02  0.234E-05    0.51       0.0  T
   2    -84.3561671 -0.414957E-11  0.133E-05    0.51    1162.2  T
   3    -84.3561671 -0.198952E-12  0.694E-06    0.51    2222.8  T

   *** convergence criteria satisfied after 3 iterations ***

         #    Occupation            Energy/Eh            Energy/eV
      -------------------------------------------------------------
         1        2.0000           -0.8501996             -23.1351
       ...           ...                  ...                  ...
        62        2.0000           -0.3947183             -10.7408
        63        2.0000           -0.3925111             -10.6808
        64        2.0000           -0.3714983             -10.1090
        65        2.0000           -0.3642124              -9.9107
        66        2.0000           -0.3594317              -9.7806
        67        2.0000           -0.3137643              -8.5380
        68        1.9999           -0.3075166              -8.3680 (HOMO)
        69        0.0001           -0.2886147              -7.8536 (LUMO)
        70                         -0.2451235              -6.6701
        71                         -0.1860737              -5.0633
        72                         -0.1841242              -5.0103
        73                         -0.1765425              -4.8040
       ...                                ...                  ...
       134                          0.7358166              20.0226
      -------------------------------------------------------------
                  HL-Gap            0.0189019 Eh            0.5143 eV
             Fermi-level           -0.2980650 Eh           -8.1108 eV

 SCC (total)                   0 d,  0 h,  0 min,  0.133 sec
 SCC setup                      ...        0 min,  0.002 sec (  1.554%)
 Dispersion                     ...        0 min,  0.000 sec (  0.255%)
 classical contributions        ...        0 min,  0.000 sec (  0.083%)
 integral evaluation            ...        0 min,  0.034 sec ( 25.840%)
 iterations                     ...        0 min,  0.011 sec (  8.624%)
 molecular gradient             ...        0 min,  0.084 sec ( 63.005%)
 printout                       ...        0 min,  0.001 sec (  0.611%)

         :::::::::::::::::::::::::::::::::::::::::::::::::::::
         ::                     SUMMARY                     ::
         :::::::::::::::::::::::::::::::::::::::::::::::::::::
         :: total energy             -83.639058310287 Eh    ::
         :: total w/o Gsasa/hb       -83.620351481176 Eh    ::
         :: gradient norm              0.000221238388 Eh/a0 ::
         :: HOMO-LUMO gap              0.514345528832 eV    ::
         ::.................................................::
         :: SCC energy               -84.356167146689 Eh    ::
         :: -> electrostatic           0.723863379435 Eh    ::
         :: -> Gsolv                  -0.281959344331 Eh    ::
         ::    -> Gelec               -0.263252515219 Eh    ::
         ::    -> Gsasa               -0.023485347098 Eh    ::
         ::    -> Ghb                 -0.002845761018 Eh    ::
         ::    -> Gshift               0.007624279005 Eh    ::
         :: repulsion energy           0.743561043688 Eh    ::
         :: dispersion energy         -0.026452207286 Eh    ::
         :: halogen bond corr.         0.000000000000 Eh    ::
         :: add. restraining           0.000000000000 Eh    ::
         :: total charge              -2.000000000000 e     ::
         :::::::::::::::::::::::::::::::::::::::::::::::::::::

           -------------------------------------------------
          |                Property Printout                |
           -------------------------------------------------

    * Orbital Energies and Occupations

         #    Occupation            Energy/Eh            Energy/eV
      -------------------------------------------------------------
         1        2.0000           -0.8501996             -23.1351
       ...           ...                  ...                  ...
        56        2.0000           -0.4408152             -11.9952
        57        2.0000           -0.4366869             -11.8829
        58        2.0000           -0.4313934             -11.7388
        59        2.0000           -0.4272908             -11.6272
        60        2.0000           -0.4154896             -11.3060
        61        2.0000           -0.3995236             -10.8716
        62        2.0000           -0.3947183             -10.7408
        63        2.0000           -0.3925111             -10.6808
        64        2.0000           -0.3714983             -10.1090
        65        2.0000           -0.3642124              -9.9107
        66        2.0000           -0.3594317              -9.7806
        67        2.0000           -0.3137643              -8.5380
        68        1.9999           -0.3075166              -8.3680 (HOMO)
        69        0.0001           -0.2886147              -7.8536 (LUMO)
        70                         -0.2451235              -6.6701
        71                         -0.1860737              -5.0633
        72                         -0.1841242              -5.0103
        73                         -0.1765425              -4.8040
        74                         -0.1380863              -3.7575
        75                         -0.1076982              -2.9306
        76                         -0.0981949              -2.6720
        77                         -0.0938954              -2.5550
        78                         -0.0823575              -2.2411
        79                         -0.0704027              -1.9158
       ...                                ...                  ...
       134                          0.7358166              20.0226
      -------------------------------------------------------------
                  HL-Gap            0.0189019 Eh            0.5143 eV
             Fermi-level           -0.2980650 Eh           -8.1108 eV

  Mulliken/CM5 charges         n(s)   n(p)   n(d)
     1C     0.17717  0.05938   0.962  2.861  0.000
     2O    -0.52123 -0.60442   1.703  4.818  0.000
     3C     0.43986  0.47149   1.006  2.555  0.000
     4C    -0.10702 -0.24681   1.015  3.092  0.000
     5O    -0.69989 -0.84266   1.736  4.964  0.000
     6C     0.01673  0.08838   1.052  2.931  0.000
     7N    -0.46052 -0.65468   1.554  3.907  0.000
     8C     0.25235  0.40808   1.003  2.745  0.000
     9C     0.15010  0.19201   1.063  2.786  0.000
    10C    -0.09142 -0.22980   1.012  3.079  0.000
    11C    -0.09219 -0.23118   1.014  3.078  0.000
    12N    -0.31878 -0.66372   1.435  3.884  0.000
    13C     0.45509  0.56731   0.971  2.574  0.000
    14O    -0.60492 -0.64738   1.730  4.875  0.000
    15C     0.33174  0.45773   1.017  2.652  0.000
    16N    -0.24802 -0.35816   1.568  3.680  0.000
    17N    -0.27661 -0.38474   1.566  3.710  0.000
    18C     0.38309  0.49223   1.004  2.613  0.000
    19C    -0.11085 -0.24835   1.010  3.100  0.000
    20O    -0.34749 -0.39870   1.693  4.654  0.000
    21N    -0.52872 -0.71042   1.548  3.981  0.000
    22C     0.40388  0.50943   1.000  2.596  0.000
    23O    -0.71946 -0.75091   1.753  4.966  0.000
    24C     0.19394  0.22936   1.033  2.773  0.000
    25O    -0.69463 -0.79902   1.752  4.942  0.000
    26H     0.00623  0.06582   0.994  0.000  0.000
    27H     0.00539  0.07213   0.995  0.000  0.000
    28H    -0.00547  0.05299   1.005  0.000  0.000
    29H     0.01527  0.07199   0.985  0.000  0.000
    30H     0.01259  0.07222   0.987  0.000  0.000
    31H     0.01456  0.07095   0.985  0.000  0.000
    32H     0.02397  0.08089   0.976  0.000  0.000
    33H     0.02794  0.08646   0.972  0.000  0.000
    34H     0.03139  0.09004   0.969  0.000  0.000
    35H     0.02596  0.08253   0.974  0.000  0.000
    36H     0.02886  0.08505   0.971  0.000  0.000
    37H     0.03220  0.09024   0.968  0.000  0.000
    38H     0.23235  0.44695   0.768  0.000  0.000
    39H     0.07351  0.12800   0.926  0.000  0.000
    40H     0.06422  0.12010   0.936  0.000  0.000
    41H     0.07312  0.12769   0.927  0.000  0.000
    42H     0.35566  0.55149   0.644  0.000  0.000

Wiberg/Mayer (AO) data.
largest (>0.10) Wiberg bond orders for each atom

 ---------------------------------------------------------------------------
     #   Z sym  total        # sym  WBO       # sym  WBO       # sym  WBO
 ---------------------------------------------------------------------------
     1   6 C    3.934 --    26 H    0.983    28 H    0.980     2 O    0.972
                            27 H    0.971
     2   8 O    1.965 --     1 C    0.972     3 C    0.840
     3   6 C    3.863 --     5 O    1.047     4 C    0.967     6 C    0.958
                             2 O    0.840
     4   6 C    3.994 --    29 H    0.987    31 H    0.987    30 H    0.985
                             3 C    0.967
     5   8 O    1.796 --     3 C    1.047    42 H    0.545
     6   6 C    3.946 --    24 C    1.459     7 N    1.210     3 C    0.958
                            25 O    0.113
     7   7 N    3.023 --     8 C    1.454     6 C    1.210
     8   6 C    3.959 --     7 N    1.454    21 N    1.351     9 C    0.958
     9   6 C    3.918 --    10 C    0.990    11 C    0.983     8 C    0.958
                            12 N    0.916
    10   6 C    3.995 --     9 C    0.990    32 H    0.987    34 H    0.985
                            33 H    0.983
    11   6 C    3.995 --    35 H    0.987    37 H    0.985    36 H    0.985
                             9 C    0.983
    12   7 N    3.404 --    13 C    1.325     9 C    0.916    38 H    0.861
                            14 O    0.193
    13   6 C    3.928 --    14 O    1.547    12 N    1.325    15 C    0.975
    14   8 O    1.868 --    13 C    1.547    12 N    0.193
    15   6 C    3.865 --    16 N    1.624    20 O    1.058    13 C    0.975
    16   7 N    3.007 --    15 C    1.624    17 N    1.187
    17   7 N    2.980 --    18 C    1.620    16 N    1.187
    18   6 C    3.876 --    17 N    1.620    20 O    1.079    19 C    1.029
    19   6 C    3.989 --    18 C    1.029    40 H    0.983    41 H    0.966
                            39 H    0.965
    20   8 O    2.320 --    18 C    1.079    15 C    1.058
    21   7 N    3.002 --     8 C    1.351    22 C    1.225    23 O    0.119
    22   6 C    3.919 --    23 O    1.452    21 N    1.225    24 C    1.071
    23   8 O    1.729 --    22 C    1.452    21 N    0.119
    24   6 C    3.947 --     6 C    1.459    25 O    1.202    22 C    1.071
    25   8 O    1.852 --    24 C    1.202    42 H    0.342     6 C    0.113
    26   1 H    1.023 --     1 C    0.983
    27   1 H    1.039 --     1 C    0.971
    28   1 H    1.017 --     1 C    0.980
    29   1 H    1.012 --     4 C    0.987
    30   1 H    1.022 --     4 C    0.985
    31   1 H    1.018 --     4 C    0.987
    32   1 H    1.008 --    10 C    0.987
    33   1 H    1.024 --    10 C    0.983
    34   1 H    1.014 --    10 C    0.985
    35   1 H    1.008 --    11 C    0.987
    36   1 H    1.015 --    11 C    0.985
    37   1 H    1.011 --    11 C    0.985
    38   1 H    0.993 --    12 N    0.861
    39   1 H    0.998 --    19 C    0.965
    40   1 H    1.000 --    19 C    0.983
    41   1 H    0.998 --    19 C    0.966
    42   1 H    0.903 --     5 O    0.545    25 O    0.342
 ---------------------------------------------------------------------------

Topologies differ in total number of bonds
Writing topology from bond orders to xtbtopo.mol

 dipole moment from electron density (au)
     X       Y       Z   
   7.5752  -6.5610  -5.6393  total (Debye):   29.228

           -------------------------------------------------
          |                Geometry Summary                 |
           -------------------------------------------------

      molecular mass/u    :      351.3152409
   center of mass at/Å    :        0.1725727       0.3448427       0.3225833
  moments of inertia/u·Å² :        0.1009811E+04   0.4971729E+04   0.5675994E+04
rotational constants/cm⁻¹ :        0.1669385E-01   0.3390698E-02   0.2969988E-02

 * 33 selected distances

     #   Z          #   Z                                           value/Å
     1   6 C        2   8 O                                       1.4043873
     3   6 C        5   8 O                                       1.3702122
     6   6 C        7   7 N                                       1.3716945
     7   7 N        8   6 C                                       1.3143150
     9   6 C       10   6 C                                       1.5327885
     9   6 C       11   6 C                                       1.5355039 (max)
     9   6 C       12   7 N                                       1.4616779
    12   7 N       13   6 C                                       1.3290906
    13   6 C       14   8 O                                       1.2267636
    15   6 C       16   7 N                                       1.2975516
    17   7 N       18   6 C                                       1.2952527
    18   6 C       19   6 C                                       1.4798153
    15   6 C       20   8 O                                       1.3483632
    18   6 C       20   8 O                                       1.3422898
     8   6 C       21   7 N                                       1.3323984
    21   7 N       22   6 C                                       1.3698064
     6   6 C       24   6 C                                       1.3823247
     1   6 C       26   1 H                                       1.0955384
     1   6 C       27   1 H                                       1.1002409
     1   6 C       28   1 H                                       1.1010820
     4   6 C       29   1 H                                       1.0888517
     4   6 C       30   1 H                                       1.0884666
     4   6 C       31   1 H                                       1.0890533
    10   6 C       32   1 H                                       1.0899401
    10   6 C       33   1 H                                       1.0901158
    10   6 C       34   1 H                                       1.0888909
    11   6 C       35   1 H                                       1.0900659
    11   6 C       36   1 H                                       1.0895923
    11   6 C       37   1 H                                       1.0892718
    12   7 N       38   1 H                                       1.0276084 (min)
    19   6 C       39   1 H                                       1.0896450
    19   6 C       40   1 H                                       1.0868681
    19   6 C       41   1 H                                       1.0892989

 * 5 distinct bonds (by element types)

   Z      Z             #   av. dist./Å        max./Å        min./Å
   1 H    6 C          15     1.0911281     1.1010820     1.0868681
   6 C    6 C           4     1.4826081     1.5355039     1.3823247
   1 H    7 N           1     1.0276084     1.0276084     1.0276084
   6 C    7 N           8     1.3464734     1.4616779     1.2952527
   6 C    8 O           5     1.3384032     1.4043873     1.2267636


optimized geometry written to: xtbopt.xyz


           -------------------------------------------------
          | TOTAL ENERGY              -83.639058310287 Eh   |
          | GRADIENT NORM               0.000221238388 Eh/α |
          | HOMO-LUMO GAP               0.514345528832 eV   |
           -------------------------------------------------

------------------------------------------------------------------------
 * finished run on 2023/06/20 at 17:34:38.116     
------------------------------------------------------------------------
 total:
 * wall-time:     0 d,  0 h,  0 min, 11.200 sec
 *  cpu-time:     0 d,  0 h,  0 min,  9.940 sec
 * ratio c/w:     0.888 speedup
 SCF:
 * wall-time:     0 d,  0 h,  0 min,  0.215 sec
 *  cpu-time:     0 d,  0 h,  0 min,  0.215 sec
 * ratio c/w:     0.999 speedup
 ANC optimizer:
 * wall-time:     0 d,  0 h,  0 min, 10.875 sec
 *  cpu-time:     0 d,  0 h,  0 min,  9.676 sec
 * ratio c/w:     0.890 speedup

