16
 energy: -34.154687840504 gnorm: 0.000533023230 xtb: 6.5.1 (579679a)
C            2.65268084425572       -0.16453725515405        0.05478684269005
C            1.20600868162754       -0.02787823415569       -0.25557313369398
N            0.71926057388060        0.30031888583263       -1.38272036911907
N           -0.69890709885857        0.30489423319693       -1.26030237341056
C           -0.95135891386079       -0.04740895203470        0.17696305758431
C           -1.97571660177993       -1.11556322833411        0.46846262302769
C           -1.29058205031508        1.30478347028209       -0.33464630720395
O           -2.39778892533437        1.82097214432209       -0.51994229670629
Cl           0.06571701251394        2.63479222431675        0.26999883295997
O            0.31979720774522       -0.28908182226798        0.74349295856943
H            2.92814216140169        0.52816565169244        0.84953321884734
H            3.24246204362745        0.04873196431174       -0.83292006711912
H            2.86527508174959       -1.17547775864263        0.39941341607795
H           -2.09826888350867       -1.22381297799861        1.54477188048452
H           -1.65951679906894       -2.07199506619540        0.05302838157480
H           -2.92720433407536       -0.82690327917151        0.02565333543693
