29
 energy: -54.513849550871 gnorm: 0.000646217634 xtb: 6.5.1 (579679a)
C            3.85471134537716       -1.23633971735382        1.58727472335059
O            2.62883872728144       -0.79330840988747        0.99919411045516
C            2.73805979245018        0.04009137364811       -0.03947282637350
O            3.80389313368905        0.41056889676756       -0.47537046842307
C            1.40739554442648        0.44527616238023       -0.57701513402033
N            0.30950933322496       -0.07312447140178        0.06467763558569
C           -0.87841730469671        0.22666642308552       -0.34570795233224
C           -2.07764364418155       -0.35110448346067        0.39206503714670
C           -2.18450606069450        0.35538742501122        1.75125534098144
C           -1.85253454097068       -1.85680821894182        0.58532470821427
N           -3.32312173560725       -0.15682577605762       -0.32770916058591
N           -1.09079416302911        1.05951179152525       -1.40452932229068
C           -0.07490385113528        1.63572657908083       -2.12536109620777
O           -0.27273521679559        2.37810430892174       -3.07768943844862
C            1.25955737348696        1.28207352067714       -1.65112552966725
O            2.27931510794354        1.82272646527401       -2.33013958890016
H            3.58609335460960       -1.91715081531462        2.39227457976382
H            4.41180819769043       -0.38363174437312        1.98312326808509
H            4.46547883515768       -1.75252155843063        0.84236111049465
H           -3.03284847618481       -0.04531686127861        2.30445829819053
H           -2.33268820545440        1.42476275144840        1.60615288252578
H           -1.27212204864734        0.19958778579057        2.32600393482178
H           -0.92657096430744       -2.02849914356754        1.13312812045033
H           -1.78621294743105       -2.35125512046890       -0.38318207825455
H           -2.68705316526896       -2.28125158616318        1.14143113189023
H           -3.57732226503954        0.81863325145550       -0.36436477819092
H           -3.26268869603695       -0.51996898306020       -1.26745543226967
H           -2.03363623672628        1.27150958498448       -1.69265443284482
H            1.92113877687089        2.37648056971029       -3.04694764314525
