42
 energy: -83.601007210635 gnorm: 0.000546131998 xtb: 6.5.1 (579679a)
C           -3.50586902557735        0.83097493901882        2.51362435372839
O           -2.88490007135276        0.48503155430973        1.28438155360148
C           -3.62151219971154       -0.29013991135437        0.44626951626802
O           -4.76630642163546       -0.62041876596409        0.73543085374381
C           -2.82409124984272       -0.84277986290766       -0.74512448266453
C           -3.78908504314401       -1.15018475881233       -1.90312211118329
N           -1.79882420737059        0.08277062305015       -1.18586011168610
C           -0.59021975009123       -0.09057493332737       -0.70110331202843
C            0.40757864669448        0.99144668439001       -1.15430507419440
C            0.61149543428554        0.86205957002765       -2.67238564949176
C           -0.15274761514899        2.37837606466362       -0.80718939619500
N            1.66448743554485        0.76089844039103       -0.45178008940478
C            2.77359822779391        1.51114434848199       -0.58919467166642
O            2.86988597621579        2.49918549039372       -1.33673615588642
C            3.90098046769192        1.07396607810775        0.23862806693697
N            5.09799582916400        1.62017332750629        0.30586022326501
N            5.81227570594396        0.88797409623437        1.21331278345146
C            5.03007966914063       -0.04882042006570        1.64525647377553
C            5.35078165222945       -1.09429341515301        2.64596126867317
O            3.80686350436748       -0.00077832439522        1.07888638130537
N           -0.09281189391742       -1.04525957112430        0.06944309317655
C           -0.92382184204569       -2.14072368923841        0.34520969854798
O           -0.46816824377412       -3.17591534564641        0.92918266464393
C           -2.24059723704083       -2.06595463365639       -0.10780257404971
O           -3.09261685906623       -3.17422983440335        0.08111123365430
H           -4.39338352231839        1.44768097944550        2.33839116517361
H           -2.77958747030416        1.39568216579452        3.09749292548861
H           -3.80705798449671       -0.06510722155147        3.06632843148458
H           -3.25061830668230       -1.66040365171062       -2.70095817300911
H           -4.60400134492807       -1.78610019183778       -1.55808820956952
H           -4.20193558335396       -0.22157270172112       -2.29727379732159
H            1.25114825029489        1.65784452932643       -3.05333836033308
H           -0.36024821436969        0.92116474777383       -3.16329757865438
H            1.06644162188788       -0.10047525796478       -2.90819593605190
H           -1.15541465386199        2.46541141676919       -1.22714716821298
H            0.47420915398024        3.17115223316772       -1.21420797229664
H           -0.21480640711789        2.49628151436684        0.27496667886119
H            1.66204442952909       -0.05968418545978        0.15715383518638
H            4.70026235308077       -0.99843212542488        3.51563294764437
H            6.38597685823171       -0.98781506905684        2.95949293670459
H            5.20235185035215       -2.08640359071197        2.21973070732643
H           -2.54983391927173       -3.83314934172016        0.54690303126949
