      -----------------------------------------------------------      
     |                   =====================                   |     
     |                           x T B                           |     
     |                   =====================                   |     
     |                         S. Grimme                         |     
     |          Mulliken Center for Theoretical Chemistry        |     
     |                    University of Bonn                     |     
      -----------------------------------------------------------      

   * xtb version 6.5.1 (579679a) compiled by 'ehlert@majestix' on 2022-07-11

   xtb is free software: you can redistribute it and/or modify it under
   the terms of the GNU Lesser General Public License as published by
   the Free Software Foundation, either version 3 of the License, or
   (at your option) any later version.
   
   xtb is distributed in the hope that it will be useful,
   but WITHOUT ANY WARRANTY; without even the implied warranty of
   MERCHANTABILITY or FITNESS FOR A PARTICULAR PURPOSE.  See the
   GNU Lesser General Public License for more details.
   
   Cite this work as:
   * C. Bannwarth, E. Caldeweyher, S. Ehlert, A. Hansen, P. Pracht,
     J. Seibert, S. Spicher, S. Grimme, WIREs Comput. Mol. Sci., 2020, 11,
     e01493. DOI: 10.1002/wcms.1493
   
   for GFN2-xTB:
   * C. Bannwarth, S. Ehlert and S. Grimme., J. Chem. Theory Comput., 2019,
     15, 1652-1671. DOI: 10.1021/acs.jctc.8b01176
   for GFN1-xTB:
   * S. Grimme, C. Bannwarth, P. Shushkov, J. Chem. Theory Comput., 2017,
     13, 1989-2009. DOI: 10.1021/acs.jctc.7b00118
   for GFN0-xTB:
   * P. Pracht, E. Caldeweyher, S. Ehlert, S. Grimme, ChemRxiv, 2019, preprint.
     DOI: 10.26434/chemrxiv.8326202.v1
   for GFN-FF:
   * S. Spicher and S. Grimme, Angew. Chem. Int. Ed., 2020, 59, 15665-15673.
     DOI: 10.1002/anie.202004239
   
   for ALPB and GBSA implicit solvation:
   * S. Ehlert, M. Stahn, S. Spicher, S. Grimme, J. Chem. Theory Comput.,
     2021, 17, 4250-4261. DOI: 10.1021/acs.jctc.1c00471
   
   for DFT-D4:
   * E. Caldeweyher, C. Bannwarth and S. Grimme, J. Chem. Phys., 2017,
     147, 034112. DOI: 10.1063/1.4993215
   * E. Caldeweyher, S. Ehlert, A. Hansen, H. Neugebauer, S. Spicher,
     C. Bannwarth and S. Grimme, J. Chem. Phys., 2019, 150, 154122.
     DOI: 10.1063/1.5090222
   * E. Caldeweyher, J.-M. Mewes, S. Ehlert and S. Grimme, Phys. Chem. Chem. Phys.
     2020, 22, 8499-8512. DOI: 10.1039/D0CP00502A
   
   for sTDA-xTB:
   * S. Grimme and C. Bannwarth, J. Chem. Phys., 2016, 145, 054103.
     DOI: 10.1063/1.4959605
   
   in the mass-spec context:
   * V. Asgeirsson, C. Bauer and S. Grimme, Chem. Sci., 2017, 8, 4879.
     DOI: 10.1039/c7sc00601b
   * J. Koopman and S. Grimme, ACS Omega 2019, 4, 12, 15120-15133.
     DOI: 10.1021/acsomega.9b02011
   
   for metadynamics refer to:
   * S. Grimme, J. Chem. Theory Comput., 2019, 155, 2847-2862
     DOI: 10.1021/acs.jctc.9b00143
   
   for SPH calculations refer to:
   * S. Spicher and S. Grimme, J. Chem. Theory Comput., 2021, 17, 1701-1714
     DOI: 10.1021/acs.jctc.0c01306
   
   with help from (in alphabetical order)
   P. Atkinson, C. Bannwarth, F. Bohle, G. Brandenburg, E. Caldeweyher
   M. Checinski, S. Dohm, S. Ehlert, S. Ehrlich, I. Gerasimov, C. Hölzer
   A. Katbashev, J. Koopman, C. Lavigne, S. Lehtola, F. März, M. Müller,
   F. Musil, H. Neugebauer, J. Pisarek, C. Plett, P. Pracht, F. Pultar,
   J. Seibert, P. Shushkov, S. Spicher, M. Stahn, M. Steiner, T. Strunk,
   J. Stückrath, T. Rose, and J. Unsleber
   
 * started run on 2023/06/21 at 17:35:08.173     

           -------------------------------------------------
          |                Calculation Setup                |
           -------------------------------------------------

          program call               : /lustre/hpc/kemi/ree/PhD/git/ReactivityQM/dep/xtb-6.5.1/bin/xtb --gfn 1 /lustre/hpc/kemi/ree/PhD/git/ReactivityQM/calculations/R02methylcation/reac01prodN05/conf02/R02methylcation_reac01prodN05_conf02_gfn1.xyz --opt --vfukui --chrg 0 --uhf 0 --alpb DMSO
          hostname                   : node317
          coordinate file            : /lustre/hpc/kemi/ree/PhD/git/ReactivityQM/calculations/R02methylcation/reac01prodN05/conf02/R02methylcation_reac01prodN05_conf02_gfn1.xyz
          omp threads                :                     1

   ID    Z sym.   atoms
    1    6 C      1, 3, 5, 6, 8, 11-14, 16, 18, 21, 22, 25
    2    8 O      2, 4, 7, 9, 17, 23
    3    7 N      10, 15, 19, 20, 24
    4    1 H      26-42

           -------------------------------------------------
          |                 G F N 1 - x T B                 |
           -------------------------------------------------

        Reference                      10.1021/acs.jctc.7b00118
      * Hamiltonian:
        H0-scaling (s, p, d)           1.850000    2.250000    2.000000
        zeta-weighting                 0.000000
      * Dispersion:
        s8                             2.400000
        a1                             0.630000
        a2                             5.000000
        s9                             0.000000
      * Repulsion:
        kExp                           1.500000
        rExp                           1.000000
      * Coulomb:
        alpha                          2.000000
        third order                    atomic
        anisotropic                    false
      * Halogen bond correction:
        rad-scale                      1.300000
        damping                        0.440000

      * Solvation model:               ALPB
        Solvent                        DMSO
        Parameter file                 internal GFN1-xTB/ALPB
        Dielectric constant                4.6680E+01
        Reference state                gsolv [1 M gas/solution]
        Free energy shift                  7.6243E-03 Eh       4.7843E+00 kcal/mol
        Temperature                        2.9815E+02 K
        Density                            1.1000E+00 kg/L
        Solvent mass                       7.8130E+01 g/mol
        Interaction kernel             P16
        Born radius scaling (c1)           1.7672E+00
        Born radii integrator          GBOBC
        Born offset                        0.0000E+00 a0       0.0000E+00 AA
        H-bond correction              true
        Ion screening                  false
        Surface tension                    1.0000E-05 Eh       1.5569E+01 dyn/cm
        Grid points                               230 per atom

          ...................................................
          :                      SETUP                      :
          :.................................................:
          :  # basis functions                 134          :
          :  # atomic orbitals                 134          :
          :  # shells                           84          :
          :  # electrons                       134          :
          :  # halogen bonds                     0          :
          :  max. iterations                   250          :
          :  Hamiltonian                  GFN1-xTB          :
          :  restarted?                      false          :
          :  GBSA solvation                   true          :
          :  PC potential                    false          :
          :  electronic temp.          300.0000000     K    :
          :  accuracy                    1.0000000          :
          :  -> integral cutoff          0.2500000E+02      :
          :  -> integral neglect         0.1000000E-07      :
          :  -> SCF convergence          0.1000000E-05 Eh   :
          :  -> wf. convergence          0.2000000E-04 e    :
          :  Broyden damping             0.4000000          :
          ...................................................

 iter      E             dE          RMSdq      gap      omega  full diag
   1    -83.2984803 -0.832985E+02  0.854E+00    2.70       0.0  T
   2    -83.7140678 -0.415588E+00  0.511E+00    2.20       1.0  T
   3    -83.7003993  0.136685E-01  0.171E+00    2.48       1.0  T
   4    -83.7331343 -0.327350E-01  0.198E-01    2.35       1.0  T
   5    -83.7347872 -0.165290E-02  0.412E-02    2.41       1.0  T
   6    -83.7348188 -0.315718E-04  0.154E-02    2.41       1.0  T
   7    -83.7348243 -0.555609E-05  0.490E-03    2.41       3.2  T
   8    -83.7348248 -0.474855E-06  0.126E-03    2.41      12.2  T
   9    -83.7348249 -0.438401E-07  0.512E-04    2.41      30.1  T
  10    -83.7348249 -0.292617E-08  0.173E-04    2.41      89.2  T
  11    -83.7348249 -0.179142E-09  0.521E-05    2.41     296.2  T

   *** convergence criteria satisfied after 11 iterations ***

         #    Occupation            Energy/Eh            Energy/eV
      -------------------------------------------------------------
         1        2.0000           -0.8664638             -23.5777
       ...           ...                  ...                  ...
        61        2.0000           -0.4716215             -12.8335
        62        2.0000           -0.4699047             -12.7868
        63        2.0000           -0.4603744             -12.5274
        64        2.0000           -0.4498809             -12.2419
        65        2.0000           -0.4478215             -12.1858
        66        2.0000           -0.4270054             -11.6194
        67        2.0000           -0.4181581             -11.3787 (HOMO)
        68                         -0.3295326              -8.9670 (LUMO)
        69                         -0.3241540              -8.8207
        70                         -0.3103181              -8.4442
        71                         -0.2633726              -7.1667
        72                         -0.2407829              -6.5520
       ...                                ...                  ...
       134                          0.7470006              20.3269
      -------------------------------------------------------------
                  HL-Gap            0.0886255 Eh            2.4116 eV
             Fermi-level           -0.3738454 Eh          -10.1729 eV

 SCC (total)                   0 d,  0 h,  0 min,  0.191 sec
 SCC setup                      ...        0 min,  0.002 sec (  1.176%)
 Dispersion                     ...        0 min,  0.000 sec (  0.226%)
 classical contributions        ...        0 min,  0.000 sec (  0.073%)
 integral evaluation            ...        0 min,  0.062 sec ( 32.460%)
 iterations                     ...        0 min,  0.043 sec ( 22.312%)
 molecular gradient             ...        0 min,  0.082 sec ( 43.141%)
 printout                       ...        0 min,  0.001 sec (  0.580%)

         :::::::::::::::::::::::::::::::::::::::::::::::::::::
         ::                     SUMMARY                     ::
         :::::::::::::::::::::::::::::::::::::::::::::::::::::
         :: total energy             -82.971528639665 Eh    ::
         :: total w/o Gsasa/hb       -82.951157550320 Eh    ::
         :: gradient norm              0.104958091266 Eh/a0 ::
         :: HOMO-LUMO gap              2.411623346913 eV    ::
         ::.................................................::
         :: SCC energy               -83.734824864214 Eh    ::
         :: -> electrostatic           0.385067702927 Eh    ::
         :: -> Gsolv                  -0.067602300571 Eh    ::
         ::    -> Gelec               -0.047231211225 Eh    ::
         ::    -> Gsasa               -0.023803791864 Eh    ::
         ::    -> Ghb                 -0.004191576486 Eh    ::
         ::    -> Gshift               0.007624279005 Eh    ::
         :: repulsion energy           0.790039320662 Eh    ::
         :: dispersion energy         -0.026743096113 Eh    ::
         :: halogen bond corr.         0.000000000000 Eh    ::
         :: add. restraining           0.000000000000 Eh    ::
         :: total charge              -0.000000000000 e     ::
         :::::::::::::::::::::::::::::::::::::::::::::::::::::

      ----------------------------------------------------------- 
     |                   =====================                   |
     |                        A N C O P T                        |
     |                   =====================                   |
     |               Approximate Normal Coordinate               |
     |                Rational Function Optimizer                |
      ----------------------------------------------------------- 

          ...................................................
          :                      SETUP                      :
          :.................................................:
          :   optimization level            normal          :
          :   max. optcycles                   200          :
          :   ANC micro-cycles                  20          :
          :   degrees of freedom               120          :
          :.................................................:
          :   RF solver                   davidson          :
          :   write xtbopt.log                true          :
          :   linear?                        false          :
          :   energy convergence         0.5000000E-05 Eh   :
          :   grad. convergence          0.1000000E-02 Eh/α :
          :   maximium RF displ.         1.0000000          :
          :   Hlow (freq-cutoff)         0.1000000E-01      :
          :   Hmax (freq-cutoff)         5.0000000          :
          :   S6 in model hess.         20.0000000          :
          ...................................................

generating ANC from model Hessian ...
Using Lindh-Hessian (1995)
 Shifting diagonal of input Hessian by   9.768839344543333E-003
 Lowest  eigenvalues of input Hessian
    0.000000    0.000000    0.000000    0.000000    0.000000    0.000000
    0.010000    0.010231    0.010529    0.011758    0.011898    0.012834
    0.013303    0.014018    0.014979    0.015603    0.015900    0.018236
 Highest eigenvalues
    2.036322    2.101967    2.221185    2.282247    2.351850    2.434581
 

........................................................................
.............................. CYCLE    1 ..............................
........................................................................
   1    -83.7348249 -0.837348E+02  0.171E-05    2.41       0.0  T
   2    -83.7348249 -0.342482E-11  0.788E-06    2.41    1959.3  T
   3    -83.7348249 -0.525802E-12  0.486E-06    2.41    3175.8  T
     SCC iter.                  ...        0 min,  0.011 sec
     gradient                   ...        0 min,  0.079 sec
 * total energy  :   -82.9715286 Eh     change       -0.2758327E-10 Eh
   gradient norm :     0.1049577 Eh/α   predicted     0.0000000E+00 (-100.00%)
   displ. norm   :     0.3792187 α      lambda       -0.1720343E-01
   maximum displ.:     0.1479153 α      in ANC's #21, #28, #10, ...

........................................................................
.............................. CYCLE    2 ..............................
........................................................................
   1    -83.7510957 -0.837511E+02  0.678E-02    2.49       0.0  T
   2    -83.7512782 -0.182491E-03  0.308E-02    2.49       1.0  T
   3    -83.7512988 -0.205864E-04  0.130E-02    2.49       1.2  T
   4    -83.7512989 -0.650415E-07  0.380E-03    2.49       4.1  T
   5    -83.7512990 -0.108433E-06  0.689E-04    2.49      22.4  T
   6    -83.7512990 -0.542171E-08  0.269E-04    2.49      57.3  T
   7    -83.7512990 -0.160109E-08  0.824E-05    2.49     187.2  T
   8    -83.7512990 -0.738964E-10  0.263E-05    2.49     585.8  T
     SCC iter.                  ...        0 min,  0.036 sec
     gradient                   ...        0 min,  0.110 sec
 * total energy  :   -82.9840643 Eh     change       -0.1253565E-01 Eh
   gradient norm :     0.0540432 Eh/α   predicted    -0.9867173E-02 ( -21.29%)
   displ. norm   :     0.4124940 α      lambda       -0.8500545E-02
   maximum displ.:     0.1667857 α      in ANC's #28, #19, #6, ...

........................................................................
.............................. CYCLE    3 ..............................
........................................................................
   1    -83.7635696 -0.837636E+02  0.659E-02    2.56       0.0  T
   2    -83.7637427 -0.173109E-03  0.299E-02    2.56       1.0  T
   3    -83.7637629 -0.201583E-04  0.126E-02    2.56       1.2  T
   4    -83.7637629 -0.597074E-07  0.438E-03    2.56       3.5  T
   5    -83.7637631 -0.143642E-06  0.906E-04    2.56      17.0  T
   6    -83.7637631 -0.168763E-07  0.317E-04    2.56      48.7  T
   7    -83.7637631 -0.246968E-08  0.949E-05    2.56     162.7  T
   8    -83.7637631 -0.814993E-10  0.279E-05    2.56     553.5  T
     SCC iter.                  ...        0 min,  0.029 sec
     gradient                   ...        0 min,  0.083 sec
 * total energy  :   -82.9892198 Eh     change       -0.5155534E-02 Eh
   gradient norm :     0.0174356 Eh/α   predicted    -0.4973463E-02 (  -3.53%)
   displ. norm   :     0.2940682 α      lambda       -0.1667228E-02
   maximum displ.:     0.1268990 α      in ANC's #6, #10, #16, ...

........................................................................
.............................. CYCLE    4 ..............................
........................................................................
   1    -83.7668676 -0.837669E+02  0.189E-02    2.57       0.0  T
   2    -83.7668816 -0.139044E-04  0.960E-03    2.57       1.6  T
   3    -83.7668833 -0.171674E-05  0.448E-03    2.57       3.4  T
   4    -83.7668833 -0.188635E-07  0.118E-03    2.57      13.0  T
   5    -83.7668833 -0.126073E-07  0.250E-04    2.57      61.8  T
   6    -83.7668833 -0.898254E-09  0.848E-05    2.57     181.9  T
   7    -83.7668833 -0.199989E-09  0.321E-05    2.57     480.3  T
     SCC iter.                  ...        0 min,  0.025 sec
     gradient                   ...        0 min,  0.082 sec
 * total energy  :   -82.9903884 Eh     change       -0.1168573E-02 Eh
   gradient norm :     0.0123690 Eh/α   predicted    -0.9058115E-03 ( -22.49%)
   displ. norm   :     0.2842266 α      lambda       -0.9382165E-03
   maximum displ.:     0.1384275 α      in ANC's #6, #16, #10, ...

........................................................................
.............................. CYCLE    5 ..............................
........................................................................
   1    -83.7689671 -0.837690E+02  0.131E-02    2.56       0.0  T
   2    -83.7689721 -0.495063E-05  0.601E-03    2.56       2.6  T
   3    -83.7689723 -0.288024E-06  0.321E-03    2.56       4.8  T
   4    -83.7689724 -0.168083E-07  0.100E-03    2.56      15.4  T
   5    -83.7689724 -0.844865E-08  0.177E-04    2.56      87.3  T
   6    -83.7689724 -0.364054E-09  0.518E-05    2.56     297.9  T
     SCC iter.                  ...        0 min,  0.022 sec
     gradient                   ...        0 min,  0.082 sec
 * total energy  :   -82.9910140 Eh     change       -0.6256026E-03 Eh
   gradient norm :     0.0088332 Eh/α   predicted    -0.5070202E-03 ( -18.95%)
   displ. norm   :     0.1970941 α      lambda       -0.3664096E-03
   maximum displ.:     0.0951618 α      in ANC's #6, #16, #10, ...

........................................................................
.............................. CYCLE    6 ..............................
........................................................................
   1    -83.7698645 -0.837699E+02  0.897E-03    2.55       0.0  T
   2    -83.7698670 -0.251941E-05  0.411E-03    2.55       3.8  T
   3    -83.7698671 -0.141178E-06  0.232E-03    2.55       6.6  T
   4    -83.7698671 -0.734187E-08  0.688E-04    2.55      22.4  T
   5    -83.7698671 -0.456986E-08  0.111E-04    2.55     139.3  T
   6    -83.7698671 -0.238416E-09  0.342E-05    2.55     450.8  T
     SCC iter.                  ...        0 min,  0.022 sec
     gradient                   ...        0 min,  0.082 sec
 * total energy  :   -82.9912604 Eh     change       -0.2464430E-03 Eh
   gradient norm :     0.0063181 Eh/α   predicted    -0.1903224E-03 ( -22.77%)
   displ. norm   :     0.1591799 α      lambda       -0.1926549E-03
   maximum displ.:     0.0684877 α      in ANC's #6, #16, #8, ...

........................................................................
.............................. CYCLE    7 ..............................
........................................................................
   1    -83.7703311 -0.837703E+02  0.722E-03    2.55       0.0  T
   2    -83.7703332 -0.207686E-05  0.375E-03    2.55       4.1  T
   3    -83.7703334 -0.187430E-06  0.208E-03    2.55       7.4  T
   4    -83.7703334 -0.570907E-08  0.657E-04    2.55      23.5  T
   5    -83.7703334 -0.281005E-08  0.131E-04    2.55     117.4  T
   6    -83.7703334 -0.576961E-09  0.340E-05    2.55     453.6  T
     SCC iter.                  ...        0 min,  0.021 sec
     gradient                   ...        0 min,  0.082 sec
 * total energy  :   -82.9913938 Eh     change       -0.1334054E-03 Eh
   gradient norm :     0.0045565 Eh/α   predicted    -0.9876904E-04 ( -25.96%)
   displ. norm   :     0.1576311 α      lambda       -0.1448634E-03
   maximum displ.:     0.0687054 α      in ANC's #8, #18, #16, ...

........................................................................
.............................. CYCLE    8 ..............................
........................................................................
   1    -83.7704026 -0.837704E+02  0.613E-03    2.55       0.0  T
   2    -83.7704042 -0.162284E-05  0.344E-03    2.54       4.5  T
   3    -83.7704044 -0.137002E-06  0.195E-03    2.54       7.9  T
   4    -83.7704044 -0.834348E-09  0.644E-04    2.54      23.9  T
   5    -83.7704044 -0.465811E-08  0.141E-04    2.54     109.5  T
   6    -83.7704044 -0.567113E-09  0.321E-05    2.54     481.3  T
     SCC iter.                  ...        0 min,  0.021 sec
     gradient                   ...        0 min,  0.082 sec
 * total energy  :   -82.9915004 Eh     change       -0.1065231E-03 Eh
   gradient norm :     0.0046504 Eh/α   predicted    -0.7423388E-04 ( -30.31%)
   displ. norm   :     0.2065636 α      lambda       -0.1556687E-03
   maximum displ.:     0.1038777 α      in ANC's #8, #18, #1, ...

........................................................................
.............................. CYCLE    9 ..............................
........................................................................
   1    -83.7701557 -0.837702E+02  0.558E-03    2.55       0.0  T
   2    -83.7701569 -0.116383E-05  0.304E-03    2.54       5.1  T
   3    -83.7701570 -0.110836E-06  0.167E-03    2.54       9.3  T
   4    -83.7701570 -0.323179E-08  0.593E-04    2.54      26.0  T
   5    -83.7701570 -0.360734E-08  0.141E-04    2.54     109.6  T
   6    -83.7701570 -0.528161E-09  0.342E-05    2.54     450.6  T
     SCC iter.                  ...        0 min,  0.021 sec
     gradient                   ...        0 min,  0.082 sec
 * total energy  :   -82.9916181 Eh     change       -0.1177682E-03 Eh
   gradient norm :     0.0063872 Eh/α   predicted    -0.8115589E-04 ( -31.09%)
   displ. norm   :     0.2801762 α      lambda       -0.1937376E-03
   maximum displ.:     0.1430521 α      in ANC's #8, #1, #18, ...

........................................................................
.............................. CYCLE   10 ..............................
........................................................................
   1    -83.7694279 -0.837694E+02  0.578E-03    2.54       0.0  T
   2    -83.7694288 -0.891657E-06  0.284E-03    2.55       5.4  T
   3    -83.7694288 -0.770477E-07  0.149E-03    2.54      10.4  T
   4    -83.7694288 -0.547217E-08  0.504E-04    2.54      30.6  T
   5    -83.7694288 -0.286015E-08  0.125E-04    2.54     123.4  T
   6    -83.7694288 -0.321080E-09  0.390E-05    2.54     395.3  T
     SCC iter.                  ...        0 min,  0.021 sec
     gradient                   ...        0 min,  0.082 sec
 * total energy  :   -82.9917637 Eh     change       -0.1455921E-03 Eh
   gradient norm :     0.0089813 Eh/α   predicted    -0.1044767E-03 ( -28.24%)
   displ. norm   :     0.3100811 α      lambda       -0.2334038E-03
   maximum displ.:     0.1456692 α      in ANC's #8, #1, #4, ...

........................................................................
.............................. CYCLE   11 ..............................
........................................................................
   1    -83.7695940 -0.837696E+02  0.704E-03    2.55       0.0  T
   2    -83.7695961 -0.211244E-05  0.310E-03    2.55       5.0  T
   3    -83.7695962 -0.110731E-06  0.150E-03    2.55      10.3  T
   4    -83.7695962 -0.409561E-08  0.707E-04    2.55      21.8  T
   5    -83.7695962 -0.521783E-08  0.129E-04    2.55     119.7  T
   6    -83.7695962 -0.277254E-09  0.503E-05    2.55     306.8  T
     SCC iter.                  ...        0 min,  0.021 sec
     gradient                   ...        0 min,  0.082 sec
 * total energy  :   -82.9919324 Eh     change       -0.1686401E-03 Eh
   gradient norm :     0.0085955 Eh/α   predicted    -0.1279306E-03 ( -24.14%)
   displ. norm   :     0.2558287 α      lambda       -0.2037398E-03
   maximum displ.:     0.1047470 α      in ANC's #1, #8, #4, ...

........................................................................
.............................. CYCLE   12 ..............................
........................................................................
   1    -83.7707751 -0.837708E+02  0.630E-03    2.54       0.0  T
   2    -83.7707769 -0.184534E-05  0.318E-03    2.54       4.9  T
   3    -83.7707771 -0.121920E-06  0.159E-03    2.54       9.7  T
   4    -83.7707771 -0.826105E-09  0.637E-04    2.54      24.2  T
   5    -83.7707771 -0.467887E-08  0.121E-04    2.54     127.0  T
   6    -83.7707771 -0.252456E-09  0.482E-05    2.54     320.3  T
     SCC iter.                  ...        0 min,  0.021 sec
     gradient                   ...        0 min,  0.082 sec
 * total energy  :   -82.9920823 Eh     change       -0.1499614E-03 Eh
   gradient norm :     0.0061365 Eh/α   predicted    -0.1085377E-03 ( -27.62%)
   displ. norm   :     0.2691753 α      lambda       -0.1635295E-03
   maximum displ.:     0.1211511 α      in ANC's #1, #4, #8, ...

........................................................................
.............................. CYCLE   13 ..............................
........................................................................
   1    -83.7706003 -0.837706E+02  0.753E-03    2.54       0.0  T
   2    -83.7706022 -0.180912E-05  0.328E-03    2.54       4.7  T
   3    -83.7706023 -0.128456E-06  0.171E-03    2.54       9.0  T
   4    -83.7706023 -0.929279E-08  0.539E-04    2.54      28.6  T
   5    -83.7706023 -0.265376E-08  0.102E-04    2.54     151.5  T
   6    -83.7706023 -0.923137E-10  0.281E-05    2.54     549.8  T
     SCC iter.                  ...        0 min,  0.021 sec
     gradient                   ...        0 min,  0.082 sec
 * total energy  :   -82.9921955 Eh     change       -0.1131244E-03 Eh
   gradient norm :     0.0052945 Eh/α   predicted    -0.8770068E-04 ( -22.47%)
   displ. norm   :     0.2240249 α      lambda       -0.2182787E-03
   maximum displ.:     0.1342146 α      in ANC's #4, #1, #11, ...

........................................................................
.............................. CYCLE   14 ..............................
........................................................................
   1    -83.7789450 -0.837789E+02  0.201E-02    2.54       0.0  T
   2    -83.7789662 -0.212145E-04  0.985E-03    2.53       1.6  T
   3    -83.7789677 -0.152053E-05  0.544E-03    2.53       2.8  T
   4    -83.7789678 -0.208885E-07  0.188E-03    2.53       8.2  T
   5    -83.7789678 -0.265360E-07  0.388E-04    2.53      39.7  T
   6    -83.7789678 -0.650455E-08  0.893E-05    2.53     172.8  T
   7    -83.7789678 -0.241954E-09  0.252E-05    2.53     611.3  T
     SCC iter.                  ...        0 min,  0.025 sec
     gradient                   ...        0 min,  0.082 sec
 * total energy  :   -82.9920996 Eh     change        0.9588725E-04 Eh
   gradient norm :     0.0170025 Eh/α   predicted    -0.1146174E-03 (-219.53%)
   displ. norm   :     0.1682284 α      lambda       -0.3781842E-03
   maximum displ.:     0.0865589 α      in ANC's #8, #1, #3, ...

........................................................................
.............................. CYCLE   15 ..............................
........................................................................
   1    -83.7724254 -0.837724E+02  0.151E-02    2.53       0.0  T
   2    -83.7724345 -0.909043E-05  0.770E-03    2.53       2.0  T
   3    -83.7724351 -0.567524E-06  0.434E-03    2.53       3.6  T
   4    -83.7724351 -0.189723E-07  0.140E-03    2.53      11.0  T
   5    -83.7724351 -0.257598E-07  0.306E-04    2.53      50.5  T
   6    -83.7724351 -0.363828E-08  0.658E-05    2.53     234.4  T
   7    -83.7724351 -0.945874E-10  0.159E-05    2.53     973.1  T
     SCC iter.                  ...        0 min,  0.027 sec
     gradient                   ...        0 min,  0.082 sec
 * total energy  :   -82.9923024 Eh     change       -0.2028747E-03 Eh
   gradient norm :     0.0039071 Eh/α   predicted    -0.1944439E-03 (  -4.16%)
   displ. norm   :     0.0682751 α      lambda       -0.3872309E-04
   maximum displ.:     0.0380226 α      in ANC's #1, #4, #8, ...

........................................................................
.............................. CYCLE   16 ..............................
........................................................................
   1    -83.7721319 -0.837721E+02  0.227E-03    2.53       0.0  T
   2    -83.7721321 -0.165353E-06  0.118E-03    2.53      13.1  T
   3    -83.7721321 -0.149214E-07  0.612E-04    2.53      25.2  T
   4    -83.7721321 -0.678384E-09  0.182E-04    2.53      84.7  T
   5    -83.7721321 -0.257444E-09  0.260E-05    2.53     593.8  T
     SCC iter.                  ...        0 min,  0.018 sec
     gradient                   ...        0 min,  0.082 sec
 * total energy  :   -82.9923348 Eh     change       -0.3231273E-04 Eh
   gradient norm :     0.0028075 Eh/α   predicted    -0.1945254E-04 ( -39.80%)
   displ. norm   :     0.2054302 α      lambda       -0.1137285E-03
   maximum displ.:     0.1138518 α      in ANC's #1, #4, #3, ...

........................................................................
.............................. CYCLE   17 ..............................
........................................................................
   1    -83.7732773 -0.837733E+02  0.665E-03    2.53       0.0  T
   2    -83.7732788 -0.145607E-05  0.361E-03    2.53       4.3  T
   3    -83.7732789 -0.117001E-06  0.192E-03    2.53       8.0  T
   4    -83.7732789 -0.154870E-09  0.601E-04    2.53      25.7  T
   5    -83.7732789 -0.480452E-08  0.119E-04    2.53     130.0  T
   6    -83.7732789 -0.339028E-09  0.353E-05    2.53     437.7  T
     SCC iter.                  ...        0 min,  0.023 sec
     gradient                   ...        0 min,  0.082 sec
 * total energy  :   -82.9923938 Eh     change       -0.5908544E-04 Eh
   gradient norm :     0.0039532 Eh/α   predicted    -0.5926560E-04 (   0.30%)
   displ. norm   :     0.1998516 α      lambda       -0.5798188E-04
   maximum displ.:     0.1123119 α      in ANC's #1, #4, #3, ...

........................................................................
.............................. CYCLE   18 ..............................
........................................................................
   1    -83.7724231 -0.837724E+02  0.482E-03    2.53       0.0  T
   2    -83.7724236 -0.545904E-06  0.215E-03    2.53       7.2  T
   3    -83.7724237 -0.380981E-07  0.109E-03    2.53      14.2  T
   4    -83.7724237 -0.860258E-08  0.303E-04    2.53      51.0  T
   5    -83.7724237 -0.562991E-09  0.727E-05    2.53     212.3  T
   6    -83.7724237 -0.491411E-10  0.214E-05    2.53     721.4  T
     SCC iter.                  ...        0 min,  0.024 sec
     gradient                   ...        0 min,  0.082 sec
 * total energy  :   -82.9924345 Eh     change       -0.4061976E-04 Eh
   gradient norm :     0.0039659 Eh/α   predicted    -0.3015285E-04 ( -25.77%)
   displ. norm   :     0.2167898 α      lambda       -0.5619375E-04
   maximum displ.:     0.1262040 α      in ANC's #1, #4, #3, ...

........................................................................
.............................. CYCLE   19 ..............................
........................................................................
   1    -83.7724844 -0.837725E+02  0.381E-03    2.52       0.0  T
   2    -83.7724847 -0.292818E-06  0.191E-03    2.52       8.1  T
   3    -83.7724848 -0.318714E-07  0.111E-03    2.52      13.9  T
   4    -83.7724848 -0.100158E-07  0.297E-04    2.52      52.0  T
   5    -83.7724848 -0.818915E-09  0.759E-05    2.52     203.2  T
   6    -83.7724848 -0.781313E-10  0.185E-05    2.52     832.8  T
     SCC iter.                  ...        0 min,  0.023 sec
     gradient                   ...        0 min,  0.082 sec
 * total energy  :   -82.9924759 Eh     change       -0.4147415E-04 Eh
   gradient norm :     0.0036392 Eh/α   predicted    -0.2941857E-04 ( -29.07%)
   displ. norm   :     0.2681700 α      lambda       -0.7666663E-04
   maximum displ.:     0.1635170 α      in ANC's #1, #4, #3, ...

........................................................................
.............................. CYCLE   20 ..............................
........................................................................
   1    -83.7734215 -0.837734E+02  0.526E-03    2.52       0.0  T
   2    -83.7734223 -0.770459E-06  0.228E-03    2.52       6.8  T
   3    -83.7734223 -0.729140E-07  0.128E-03    2.52      12.0  T
   4    -83.7734223 -0.109416E-07  0.419E-04    2.52      36.8  T
   5    -83.7734223 -0.170104E-08  0.133E-04    2.52     115.8  T
   6    -83.7734223 -0.182339E-09  0.279E-05    2.52     553.7  T
     SCC iter.                  ...        0 min,  0.022 sec
     gradient                   ...        0 min,  0.082 sec
 * total energy  :   -82.9925262 Eh     change       -0.5025656E-04 Eh
   gradient norm :     0.0036472 Eh/α   predicted    -0.4109493E-04 ( -18.23%)
   displ. norm   :     0.2346117 α      lambda       -0.4747264E-04
   maximum displ.:     0.1451397 α      in ANC's #1, #4, #3, ...
 * RMSD in coord.:     0.4919138 α      energy gain  -0.2099755E-01 Eh

generating ANC from model Hessian ...
Using Lindh-Hessian (1995)
 Shifting diagonal of input Hessian by   9.831726397420545E-003
 Lowest  eigenvalues of input Hessian
    0.000000    0.000000    0.000000    0.000000    0.000000    0.000000
    0.010000    0.010061    0.010361    0.010708    0.011436    0.012207
    0.012458    0.013569    0.014507    0.014926    0.015107    0.017130
 Highest eigenvalues
    2.104647    2.123225    2.252445    2.332674    2.410646    2.427811
 

........................................................................
.............................. CYCLE   21 ..............................
........................................................................
   1    -83.7730083 -0.837730E+02  0.461E-03    2.52       0.0  T
   2    -83.7730093 -0.101386E-05  0.230E-03    2.52       6.7  T
   3    -83.7730095 -0.145478E-06  0.117E-03    2.52      13.2  T
   4    -83.7730095 -0.689494E-08  0.479E-04    2.52      32.2  T
   5    -83.7730095 -0.409358E-09  0.111E-04    2.52     139.0  T
   6    -83.7730095 -0.276245E-09  0.250E-05    2.52     617.6  T
     SCC iter.                  ...        0 min,  0.021 sec
     gradient                   ...        0 min,  0.083 sec
 * total energy  :   -82.9925592 Eh     change       -0.3305669E-04 Eh
   gradient norm :     0.0021139 Eh/α   predicted     0.0000000E+00 (-100.00%)
   displ. norm   :     0.0325381 α      lambda       -0.4335541E-05
   maximum displ.:     0.0161710 α      in ANC's #6, #2, #4, ...

........................................................................
.............................. CYCLE   22 ..............................
........................................................................
   1    -83.7735961 -0.837736E+02  0.174E-03    2.52       0.0  T
   2    -83.7735962 -0.707307E-07  0.880E-04    2.52      17.5  T
   3    -83.7735962 -0.303700E-08  0.485E-04    2.52      31.8  T
   4    -83.7735962 -0.315964E-09  0.106E-04    2.52     145.7  T
   5    -83.7735962 -0.157982E-09  0.229E-05    2.52     673.7  T
     SCC iter.                  ...        0 min,  0.018 sec
     gradient                   ...        0 min,  0.083 sec
 * total energy  :   -82.9925782 Eh     change       -0.1895492E-04 Eh
   gradient norm :     0.0010065 Eh/α   predicted    -0.1157318E-04 ( -38.94%)
   displ. norm   :     0.1713687 α      lambda       -0.5095025E-04
   maximum displ.:     0.0925029 α      in ANC's #6, #2, #4, ...

........................................................................
.............................. CYCLE   23 ..............................
........................................................................
   1    -83.7746924 -0.837747E+02  0.549E-03    2.53       0.0  T
   2    -83.7746933 -0.947851E-06  0.258E-03    2.53       6.0  T
   3    -83.7746934 -0.436600E-07  0.142E-03    2.53      10.8  T
   4    -83.7746934 -0.180330E-08  0.386E-04    2.53      40.0  T
   5    -83.7746934 -0.158626E-08  0.677E-05    2.53     227.9  T
   6    -83.7746934 -0.768097E-10  0.279E-05    2.53     552.4  T
     SCC iter.                  ...        0 min,  0.021 sec
     gradient                   ...        0 min,  0.082 sec
 * total energy  :   -82.9926176 Eh     change       -0.3944463E-04 Eh
   gradient norm :     0.0029487 Eh/α   predicted    -0.2580992E-04 ( -34.57%)
   displ. norm   :     0.0530797 α      lambda       -0.1921351E-04
   maximum displ.:     0.0285174 α      in ANC's #2, #6, #4, ...

........................................................................
.............................. CYCLE   24 ..............................
........................................................................
   1    -83.7742444 -0.837742E+02  0.133E-03    2.52       0.0  T
   2    -83.7742444 -0.420734E-07  0.649E-04    2.52      23.8  T
   3    -83.7742444 -0.290783E-08  0.343E-04    2.52      45.0  T
   4    -83.7742444 -0.617007E-09  0.853E-05    2.52     180.9  T
   5    -83.7742444 -0.535181E-10  0.171E-05    2.52     900.8  T
     SCC iter.                  ...        0 min,  0.018 sec
     gradient                   ...        0 min,  0.082 sec
 * total energy  :   -82.9926343 Eh     change       -0.1665700E-04 Eh
   gradient norm :     0.0022304 Eh/α   predicted    -0.9635109E-05 ( -42.16%)
   displ. norm   :     0.1318140 α      lambda       -0.4176475E-04
   maximum displ.:     0.0735829 α      in ANC's #2, #6, #4, ...

........................................................................
.............................. CYCLE   25 ..............................
........................................................................
   1    -83.7731473 -0.837731E+02  0.371E-03    2.52       0.0  T
   2    -83.7731478 -0.482091E-06  0.168E-03    2.52       9.2  T
   3    -83.7731479 -0.356775E-07  0.909E-04    2.52      17.0  T
   4    -83.7731479 -0.339250E-08  0.279E-04    2.52      55.3  T
   5    -83.7731479 -0.415255E-09  0.339E-05    2.52     454.6  T
   6    -83.7731479 -0.364366E-10  0.109E-05    2.52    1419.0  T
     SCC iter.                  ...        0 min,  0.021 sec
     gradient                   ...        0 min,  0.082 sec
 * total energy  :   -82.9926619 Eh     change       -0.2754720E-04 Eh
   gradient norm :     0.0010790 Eh/α   predicted    -0.2125191E-04 ( -22.85%)
   displ. norm   :     0.1271153 α      lambda       -0.1385878E-04
   maximum displ.:     0.0781063 α      in ANC's #2, #6, #4, ...

........................................................................
.............................. CYCLE   26 ..............................
........................................................................
   1    -83.7726317 -0.837726E+02  0.294E-03    2.52       0.0  T
   2    -83.7726321 -0.433654E-06  0.115E-03    2.52      13.4  T
   3    -83.7726322 -0.443983E-07  0.543E-04    2.52      28.4  T
   4    -83.7726322 -0.207592E-08  0.236E-04    2.52      65.3  T
   5    -83.7726322 -0.855493E-10  0.711E-05    2.52     217.1  T
   6    -83.7726322 -0.145207E-09  0.123E-05    2.52    1253.6  T
     SCC iter.                  ...        0 min,  0.021 sec
     gradient                   ...        0 min,  0.082 sec
 * total energy  :   -82.9926758 Eh     change       -0.1399190E-04 Eh
   gradient norm :     0.0016995 Eh/α   predicted    -0.6979682E-05 ( -50.12%)
   displ. norm   :     0.0841277 α      lambda       -0.1261690E-04
   maximum displ.:     0.0566843 α      in ANC's #2, #4, #7, ...

........................................................................
.............................. CYCLE   27 ..............................
........................................................................
   1    -83.7730770 -0.837731E+02  0.189E-03    2.52       0.0  T
   2    -83.7730772 -0.151262E-06  0.901E-04    2.52      17.1  T
   3    -83.7730772 -0.301880E-07  0.339E-04    2.52      45.6  T
   4    -83.7730772 -0.543750E-09  0.127E-04    2.52     121.9  T
   5    -83.7730772 -0.858904E-10  0.401E-05    2.52     384.6  T
     SCC iter.                  ...        0 min,  0.017 sec
     gradient                   ...        0 min,  0.082 sec
 * total energy  :   -82.9926919 Eh     change       -0.1600720E-04 Eh
   gradient norm :     0.0013189 Eh/α   predicted    -0.6329574E-05 ( -60.46%)
   displ. norm   :     0.1447925 α      lambda       -0.2030456E-04
   maximum displ.:     0.0980982 α      in ANC's #2, #5, #7, ...

........................................................................
.............................. CYCLE   28 ..............................
........................................................................
   1    -83.7735934 -0.837736E+02  0.303E-03    2.52       0.0  T
   2    -83.7735938 -0.380116E-06  0.158E-03    2.52       9.8  T
   3    -83.7735939 -0.948118E-07  0.549E-04    2.52      28.1  T
   4    -83.7735939 -0.735568E-09  0.200E-04    2.52      77.1  T
   5    -83.7735939 -0.144965E-09  0.475E-05    2.52     325.0  T
   6    -83.7735939 -0.451337E-10  0.133E-05    2.52    1156.7  T
     SCC iter.                  ...        0 min,  0.021 sec
     gradient                   ...        0 min,  0.082 sec
 * total energy  :   -82.9927145 Eh     change       -0.2262447E-04 Eh
   gradient norm :     0.0008804 Eh/α   predicted    -0.1025015E-04 ( -54.69%)
   displ. norm   :     0.1367616 α      lambda       -0.1253901E-04
   maximum displ.:     0.0959157 α      in ANC's #2, #5, #7, ...

........................................................................
.............................. CYCLE   29 ..............................
........................................................................
   1    -83.7736883 -0.837737E+02  0.204E-03    2.52       0.0  T
   2    -83.7736885 -0.162879E-06  0.941E-04    2.52      16.4  T
   3    -83.7736885 -0.371297E-07  0.318E-04    2.52      48.5  T
   4    -83.7736885 -0.781583E-09  0.123E-04    2.52     125.4  T
   5    -83.7736885 -0.454463E-10  0.320E-05    2.52     482.2  T
     SCC iter.                  ...        0 min,  0.018 sec
     gradient                   ...        0 min,  0.082 sec
 * total energy  :   -82.9927286 Eh     change       -0.1415130E-04 Eh
   gradient norm :     0.0008352 Eh/α   predicted    -0.6323446E-05 ( -55.32%)
   displ. norm   :     0.1003905 α      lambda       -0.8845148E-05
   maximum displ.:     0.0726936 α      in ANC's #2, #5, #7, ...

........................................................................
.............................. CYCLE   30 ..............................
........................................................................
   1    -83.7737853 -0.837738E+02  0.164E-03    2.52       0.0  T
   2    -83.7737855 -0.105574E-06  0.672E-04    2.52      23.0  T
   3    -83.7737855 -0.206894E-07  0.234E-04    2.52      65.8  T
   4    -83.7737855 -0.641080E-09  0.979E-05    2.52     157.6  T
   5    -83.7737855 -0.790124E-11  0.257E-05    2.52     600.6  T
     SCC iter.                  ...        0 min,  0.018 sec
     gradient                   ...        0 min,  0.082 sec
 * total energy  :   -82.9927396 Eh     change       -0.1092556E-04 Eh
   gradient norm :     0.0006889 Eh/α   predicted    -0.4446705E-05 ( -59.30%)
   displ. norm   :     0.1133231 α      lambda       -0.1059476E-04
   maximum displ.:     0.0819250 α      in ANC's #2, #5, #7, ...

........................................................................
.............................. CYCLE   31 ..............................
........................................................................
   1    -83.7737053 -0.837737E+02  0.141E-03    2.52       0.0  T
   2    -83.7737053 -0.658310E-07  0.576E-04    2.52      26.8  T
   3    -83.7737053 -0.828076E-08  0.269E-04    2.52      57.3  T
   4    -83.7737053 -0.662340E-09  0.108E-04    2.52     143.4  T
   5    -83.7737053 -0.494822E-10  0.374E-05    2.52     412.7  T
     SCC iter.                  ...        0 min,  0.018 sec
     gradient                   ...        0 min,  0.082 sec
 * total energy  :   -82.9927534 Eh     change       -0.1388087E-04 Eh
   gradient norm :     0.0006653 Eh/α   predicted    -0.5331201E-05 ( -61.59%)
   displ. norm   :     0.1527526 α      lambda       -0.1401402E-04
   maximum displ.:     0.1103117 α      in ANC's #2, #5, #7, ...

........................................................................
.............................. CYCLE   32 ..............................
........................................................................
   1    -83.7734813 -0.837735E+02  0.175E-03    2.52       0.0  T
   2    -83.7734814 -0.788578E-07  0.755E-04    2.52      20.4  T
   3    -83.7734814 -0.119834E-07  0.370E-04    2.52      41.7  T
   4    -83.7734814 -0.106881E-08  0.116E-04    2.52     132.9  T
   5    -83.7734814 -0.882778E-10  0.460E-05    2.52     335.1  T
     SCC iter.                  ...        0 min,  0.018 sec
     gradient                   ...        0 min,  0.082 sec
 * total energy  :   -82.9927709 Eh     change       -0.1749349E-04 Eh
   gradient norm :     0.0009399 Eh/α   predicted    -0.7084506E-05 ( -59.50%)
   displ. norm   :     0.1802089 α      lambda       -0.1574518E-04
   maximum displ.:     0.1317283 α      in ANC's #2, #5, #7, ...

........................................................................
.............................. CYCLE   33 ..............................
........................................................................
   1    -83.7734276 -0.837734E+02  0.186E-03    2.52       0.0  T
   2    -83.7734277 -0.793758E-07  0.772E-04    2.52      20.0  T
   3    -83.7734277 -0.102713E-07  0.400E-04    2.52      38.5  T
   4    -83.7734277 -0.178149E-08  0.123E-04    2.52     125.7  T
   5    -83.7734277 -0.791687E-10  0.481E-05    2.52     320.9  T
     SCC iter.                  ...        0 min,  0.018 sec
     gradient                   ...        0 min,  0.082 sec
 * total energy  :   -82.9927897 Eh     change       -0.1879096E-04 Eh
   gradient norm :     0.0011523 Eh/α   predicted    -0.7987673E-05 ( -57.49%)
   displ. norm   :     0.1834690 α      lambda       -0.1383477E-04
   maximum displ.:     0.1356649 α      in ANC's #2, #5, #11, ...

........................................................................
.............................. CYCLE   34 ..............................
........................................................................
   1    -83.7733243 -0.837733E+02  0.180E-03    2.52       0.0  T
   2    -83.7733243 -0.658200E-07  0.678E-04    2.51      22.8  T
   3    -83.7733244 -0.785803E-08  0.371E-04    2.52      41.6  T
   4    -83.7733244 -0.179436E-08  0.100E-04    2.52     154.1  T
   5    -83.7733244 -0.671037E-10  0.391E-05    2.52     394.5  T
     SCC iter.                  ...        0 min,  0.018 sec
     gradient                   ...        0 min,  0.083 sec
 * total energy  :   -82.9928055 Eh     change       -0.1574093E-04 Eh
   gradient norm :     0.0012095 Eh/α   predicted    -0.7024876E-05 ( -55.37%)
   displ. norm   :     0.1382175 α      lambda       -0.1080705E-04
   maximum displ.:     0.1054955 α      in ANC's #2, #11, #7, ...

........................................................................
.............................. CYCLE   35 ..............................
........................................................................
   1    -83.7738482 -0.837738E+02  0.174E-03    2.52       0.0  T
   2    -83.7738482 -0.491575E-07  0.796E-04    2.51      19.4  T
   3    -83.7738482 -0.398595E-08  0.409E-04    2.52      37.7  T
   4    -83.7738482 -0.140103E-08  0.117E-04    2.52     132.4  T
   5    -83.7738482 -0.120707E-09  0.365E-05    2.52     422.6  T
     SCC iter.                  ...        0 min,  0.019 sec
     gradient                   ...        0 min,  0.082 sec
 * total energy  :   -82.9928169 Eh     change       -0.1148457E-04 Eh
   gradient norm :     0.0007355 Eh/α   predicted    -0.5453737E-05 ( -52.51%)
   displ. norm   :     0.1378342 α      lambda       -0.7862292E-05
   maximum displ.:     0.1037942 α      in ANC's #2, #11, #6, ...

........................................................................
.............................. CYCLE   36 ..............................
........................................................................
   1    -83.7735551 -0.837736E+02  0.212E-03    2.52       0.0  T
   2    -83.7735551 -0.666136E-07  0.101E-03    2.51      15.3  T
   3    -83.7735551 -0.823157E-08  0.537E-04    2.51      28.7  T
   4    -83.7735551 -0.179355E-08  0.131E-04    2.51     117.8  T
   5    -83.7735551 -0.190923E-09  0.441E-05    2.51     349.8  T
     SCC iter.                  ...        0 min,  0.018 sec
     gradient                   ...        0 min,  0.082 sec
 * total energy  :   -82.9928237 Eh     change       -0.6735659E-05 Eh
   gradient norm :     0.0010272 Eh/α   predicted    -0.3964909E-05 ( -41.14%)
   displ. norm   :     0.0582453 α      lambda       -0.4761783E-05
   maximum displ.:     0.0462745 α      in ANC's #2, #11, #3, ...

........................................................................
.............................. CYCLE   37 ..............................
........................................................................
   1    -83.7740010 -0.837740E+02  0.135E-03    2.51       0.0  T
   2    -83.7740010 -0.237421E-07  0.690E-04    2.51      22.4  T
   3    -83.7740010 -0.288837E-08  0.356E-04    2.51      43.3  T
   4    -83.7740010 -0.447102E-09  0.659E-05    2.51     234.0  T
   5    -83.7740010 -0.434000E-10  0.198E-05    2.51     779.1  T
     SCC iter.                  ...        0 min,  0.018 sec
     gradient                   ...        0 min,  0.081 sec
 * total energy  :   -82.9928281 Eh     change       -0.4452227E-05 Eh
   gradient norm :     0.0004455 Eh/α   predicted    -0.2386604E-05 ( -46.40%)
   displ. norm   :     0.0395993 α      lambda       -0.2074190E-05
   maximum displ.:     0.0314632 α      in ANC's #2, #6, #3, ...

   *** GEOMETRY OPTIMIZATION CONVERGED AFTER 37 ITERATIONS ***

------------------------------------------------------------------------
 total energy gain   :        -0.0212995 Eh      -13.3656 kcal/mol
 total RMSD          :         0.6858969 a0        0.3630 Å
 total power (kW/mol):        -1.5114003 (step)  -10.4018 (real)
------------------------------------------------------------------------

 ANCopt (total)                0 d,  0 h,  0 min,  5.376 sec
 optimizer setup                ...        0 min,  0.001 sec (  0.015%)
 model hessian                  ...        0 min,  0.068 sec (  1.267%)
 ANC generation                 ...        0 min,  0.005 sec (  0.096%)
 coordinate transformation      ...        0 min,  0.001 sec (  0.023%)
 single point calculation       ...        0 min,  5.279 sec ( 98.189%)
 optimization log               ...        0 min,  0.011 sec (  0.210%)
 hessian update                 ...        0 min,  0.001 sec (  0.021%)
 rational function              ...        0 min,  0.006 sec (  0.109%)

================
 final structure:
================
42
 xtb: 6.5.1 (579679a)
C           -4.98847708330505        3.13319554674646       -0.22051548667974
O           -4.52434969657335        1.81851759442177       -0.52768107953604
C           -3.24221107845606        1.56530049813432       -0.25111933699861
O           -2.51797802876763        2.41419266120419        0.24420149793398
C           -2.81752295612257        0.21485338886836       -0.64686490894025
C           -3.53200287822874       -0.50976483750106       -1.64177510503648
O           -4.61149713389776       -0.18825685599084       -2.13893531466462
C           -2.86166347924475       -1.76599638746114       -2.13788423382131
O           -3.33128229167315       -2.54359370642843       -2.94167363381094
N           -1.58643026501070       -1.98928079730673       -1.63914752343498
C           -0.96881491682494       -1.30014319961356       -0.65260793020353
C            0.38993842208203       -1.83647813665190       -0.21127620589709
C            0.19329369786564       -2.78158788012617        0.98506219464982
C            1.09230644905595       -2.59668520333654       -1.34862168968709
N            1.23808109231882       -0.68752981289733        0.11369409864163
C            2.43364731948886       -0.79926139368711        0.75470371616722
O            2.84495518878815       -1.78618378564161        1.32873606469171
C            3.16809983370845        0.48701585563353        0.68985578657116
N            2.77241131645423        1.56385283711484        0.07891810363760
N            3.74518947745295        2.49778680995411        0.26080026888337
C            4.67512497385253        1.93094160173064        0.97047369870376
C            5.94726206281493        2.52395263848923        1.43713725193523
O            4.36735819646128        0.66125210045441        1.27153606366520
N           -1.59732672071953       -0.26535441961182       -0.13460994248863
C           -1.09357936856290        0.37242824882178        1.09102631950284
H           -4.88700892863680        3.32850429834856        0.84988003015955
H           -6.03697101520218        3.17013614590817       -0.51159577808592
H           -4.41454691576313        3.87893149220010       -0.77651559838361
H           -1.13266818014237       -2.80377869276386       -2.02281099972759
H            1.09900452173020       -3.35986787401488        1.15332484741072
H           -0.04296251406269       -2.23426804206871        1.89441804171637
H           -0.62327121035089       -3.46595525577123        0.76073118685952
H            1.11378216398877       -1.99758929798022       -2.25685107570589
H            0.60688090640602       -3.55031133336328       -1.54575137776066
H            2.11610016879656       -2.79958036182978       -1.03826462924844
H            1.13600074826571        0.11922960644717       -0.48704666916967
H            6.01165382999388        3.55878223553586        1.11032544798207
H            6.78934654720916        1.96049294236932        1.03512042433406
H            6.00088957983667        2.47874768717301        2.52477203529772
H           -0.51158160051964        1.25597380600903        0.83713444666390
H           -1.94131460955340        0.65524759779184        1.70942383147122
H           -0.47786762493541       -0.32786831930671        1.64125516240581
 
 Bond Distances (Angstroems)
 ---------------------------
C1-O2=1.4276         C1-H26=1.0928        C1-H27=1.0888        C1-H28=1.0930        O2-C1=1.4276         O2-C3=1.3358         
C3-O2=1.3358         C3-O4=1.2208         C3-C5=1.4699         O4-C3=1.2208         C5-C3=1.4699         C5-C6=1.4232         
C5-N24=1.4078        C6-C5=1.4232         C6-O7=1.2312         C6-C8=1.5078         O7-C6=1.2312         C8-C6=1.5078         
C8-O9=1.2130         C8-N10=1.3874        O9-C8=1.2130         N10-C8=1.3874        N10-C11=1.3526       N10-H29=1.0082       
C11-N10=1.3526       C11-C12=1.5260       C11-N24=1.3169       C12-C11=1.5260       C12-C13=1.5372       C12-C14=1.5378       
C12-N15=1.4646       C13-C12=1.5372       C13-H30=1.0877       C13-H31=1.0873       C13-H32=1.0888       C14-C12=1.5378       
C14-H33=1.0882       C14-H34=1.0881       C14-H35=1.0889       N15-C12=1.4646       N15-C16=1.3612       N15-H36=1.0110       
C16-N15=1.3612       C16-O17=1.2135       C16-C18=1.4826       O17-C16=1.2135       C18-C16=1.4826       C18-N19=1.2998       
C18-O23=1.3442       N19-C18=1.2998       N19-N20=1.3607       N20-N19=1.3607       N20-C21=1.2999       C21-N20=1.2999       
C21-C22=1.4791       C21-O23=1.3407       C22-C21=1.4791       C22-H37=1.0871       C22-H38=1.0901       C22-H39=1.0899       
O23-C18=1.3442       O23-C21=1.3407       N24-C5=1.4078        N24-C11=1.3169       N24-C25=1.4706       C25-N24=1.4706       
C25-H40=1.0880       C25-H41=1.0868       C25-H42=1.0827       H26-C1=1.0928        H27-C1=1.0888        H28-C1=1.0930        
H29-N10=1.0082       H30-C13=1.0877       H31-C13=1.0873       H32-C13=1.0888       H33-C14=1.0882       H34-C14=1.0881       
H35-C14=1.0889       H36-N15=1.0110       H37-C22=1.0871       H38-C22=1.0901       H39-C22=1.0899       H40-C25=1.0880       
H41-C25=1.0868       H42-C25=1.0827       
 C  H  Rav=1.0885 sigma=0.0024  Rmin=1.0827  Rmax=1.0930    15
 C  C  Rav=1.4955 sigma=0.0370  Rmin=1.4232  Rmax=1.5378     8
 N  H  Rav=1.0096 sigma=0.0014  Rmin=1.0082  Rmax=1.0110     2
 N  C  Rav=1.3734 sigma=0.0612  Rmin=1.2998  Rmax=1.4706     9
 N  N  Rav=1.3607 sigma=0.0000  Rmin=1.3607  Rmax=1.3607     1
 O  C  Rav=1.2909 sigma=0.0763  Rmin=1.2130  Rmax=1.4276     8
 
 selected bond angles (degree)
 --------------------
H26-C1-O2=110.19               H27-C1-O2=106.67               H27-C1-H26=110.20              H28-C1-O2=110.37               
H28-C1-H26=109.12              H28-C1-H27=110.27              C3-O2-C1=116.23                O4-C3-O2=121.44                
C5-C3-O2=113.31                C5-C3-O4=125.22                C6-C5-C3=120.73                N24-C5-C3=117.76               
N24-C5-C6=121.05               O7-C6-C5=126.12                C8-C6-C5=115.53                C8-C6-O7=118.33                
O9-C8-C6=125.45                N10-C8-C6=115.12               N10-C8-O9=119.40               C11-N10-C8=126.86              
H29-N10-C8=114.01              H29-N10-C11=118.92             
 
 selected dihedral angles (degree)
 ---------------------------------
C3-O2-C1-H26=299.19           C3-O2-C1-H27=179.58           C3-O2-C1-H28= 59.78           O4-C3-O2-C1=  0.44            
C5-C3-O2-C1=182.55            C6-C5-C3-O2= 21.94            C6-C5-C3-O4=204.15            N24-C5-C3-O2=194.28           
N24-C5-C3-O4= 16.48           O7-C6-C5-C3=350.95            O7-C6-C5-N24=178.87           C8-C6-C5-C3=169.31            
C8-C6-C5-N24=357.23           O9-C8-C6-C5=176.99            O9-C8-C6-O7=355.49            N10-C8-C6-C5=354.87           
N10-C8-C6-O7=173.37           C11-N10-C8-C6=  8.73          C11-N10-C8-O9=186.75          H29-N10-C8-C6=183.42          
H29-N10-C8-O9=  1.44          
           -------------------------------------------------
          |                Final Singlepoint                |
           -------------------------------------------------

          ...................................................
          :                      SETUP                      :
          :.................................................:
          :  # basis functions                 134          :
          :  # atomic orbitals                 134          :
          :  # shells                           84          :
          :  # electrons                       134          :
          :  # halogen bonds                     0          :
          :  max. iterations                   250          :
          :  Hamiltonian                  GFN1-xTB          :
          :  restarted?                      false          :
          :  GBSA solvation                   true          :
          :  PC potential                    false          :
          :  electronic temp.          300.0000000     K    :
          :  accuracy                    1.0000000          :
          :  -> integral cutoff          0.2500000E+02      :
          :  -> integral neglect         0.1000000E-07      :
          :  -> SCF convergence          0.1000000E-05 Eh   :
          :  -> wf. convergence          0.2000000E-04 e    :
          :  Broyden damping             0.4000000          :
          ...................................................

 iter      E             dE          RMSdq      gap      omega  full diag
   1    -83.7740010 -0.837740E+02  0.609E-06    2.51       0.0  T
   2    -83.7740010 -0.966338E-12  0.313E-06    2.51    4932.4  T
   3    -83.7740010 -0.156319E-12  0.154E-06    2.51   10045.6  T

   *** convergence criteria satisfied after 3 iterations ***

         #    Occupation            Energy/Eh            Energy/eV
      -------------------------------------------------------------
         1        2.0000           -0.8681881             -23.6246
       ...           ...                  ...                  ...
        61        2.0000           -0.4745832             -12.9141
        62        2.0000           -0.4736160             -12.8877
        63        2.0000           -0.4671185             -12.7109
        64        2.0000           -0.4578657             -12.4592
        65        2.0000           -0.4546899             -12.3727
        66        2.0000           -0.4272316             -11.6256
        67        2.0000           -0.4164991             -11.3335 (HOMO)
        68                         -0.3240862              -8.8188 (LUMO)
        69                         -0.3190092              -8.6807
        70                         -0.3056096              -8.3161
        71                         -0.2608116              -7.0970
        72                         -0.2399929              -6.5305
       ...                                ...                  ...
       134                          0.7511423              20.4396
      -------------------------------------------------------------
                  HL-Gap            0.0924129 Eh            2.5147 eV
             Fermi-level           -0.3702926 Eh          -10.0762 eV

 SCC (total)                   0 d,  0 h,  0 min,  0.133 sec
 SCC setup                      ...        0 min,  0.002 sec (  1.423%)
 Dispersion                     ...        0 min,  0.000 sec (  0.252%)
 classical contributions        ...        0 min,  0.000 sec (  0.082%)
 integral evaluation            ...        0 min,  0.036 sec ( 26.839%)
 iterations                     ...        0 min,  0.012 sec (  8.686%)
 molecular gradient             ...        0 min,  0.082 sec ( 62.000%)
 printout                       ...        0 min,  0.001 sec (  0.675%)

         :::::::::::::::::::::::::::::::::::::::::::::::::::::
         ::                     SUMMARY                     ::
         :::::::::::::::::::::::::::::::::::::::::::::::::::::
         :: total energy             -82.992828132082 Eh    ::
         :: total w/o Gsasa/hb       -82.972944546983 Eh    ::
         :: gradient norm              0.000447212298 Eh/a0 ::
         :: HOMO-LUMO gap              2.514682922900 eV    ::
         ::.................................................::
         :: SCC energy               -83.774001015023 Eh    ::
         :: -> electrostatic           0.385688649359 Eh    ::
         :: -> Gsolv                  -0.067302249239 Eh    ::
         ::    -> Gelec               -0.047418664141 Eh    ::
         ::    -> Gsasa               -0.023683449211 Eh    ::
         ::    -> Ghb                 -0.003824414892 Eh    ::
         ::    -> Gshift               0.007624279005 Eh    ::
         :: repulsion energy           0.808137999957 Eh    ::
         :: dispersion energy         -0.026965117015 Eh    ::
         :: halogen bond corr.         0.000000000000 Eh    ::
         :: add. restraining           0.000000000000 Eh    ::
         :: total charge              -0.000000000000 e     ::
         :::::::::::::::::::::::::::::::::::::::::::::::::::::

           -------------------------------------------------
          |                Property Printout                |
           -------------------------------------------------

    * Orbital Energies and Occupations

         #    Occupation            Energy/Eh            Energy/eV
      -------------------------------------------------------------
         1        2.0000           -0.8681881             -23.6246
       ...           ...                  ...                  ...
        55        2.0000           -0.5109283             -13.9031
        56        2.0000           -0.5106425             -13.8953
        57        2.0000           -0.4960297             -13.4977
        58        2.0000           -0.4929107             -13.4128
        59        2.0000           -0.4901309             -13.3371
        60        2.0000           -0.4876112             -13.2686
        61        2.0000           -0.4745832             -12.9141
        62        2.0000           -0.4736160             -12.8877
        63        2.0000           -0.4671185             -12.7109
        64        2.0000           -0.4578657             -12.4592
        65        2.0000           -0.4546899             -12.3727
        66        2.0000           -0.4272316             -11.6256
        67        2.0000           -0.4164991             -11.3335 (HOMO)
        68                         -0.3240862              -8.8188 (LUMO)
        69                         -0.3190092              -8.6807
        70                         -0.3056096              -8.3161
        71                         -0.2608116              -7.0970
        72                         -0.2399929              -6.5305
        73                         -0.2066458              -5.6231
        74                         -0.1682928              -4.5795
        75                         -0.1487713              -4.0483
        76                         -0.1435480              -3.9061
        77                         -0.1400630              -3.8113
        78                         -0.1344585              -3.6588
       ...                                ...                  ...
       134                          0.7511423              20.4396
      -------------------------------------------------------------
                  HL-Gap            0.0924129 Eh            2.5147 eV
             Fermi-level           -0.3702926 Eh          -10.0762 eV

  Mulliken/CM5 charges         n(s)   n(p)   n(d)
     1C     0.16603  0.04574   0.978  2.856  0.000
     2O    -0.40449 -0.48872   1.682  4.723  0.000
     3C     0.56557  0.62897   0.963  2.471  0.000
     4O    -0.59253 -0.64773   1.729  4.863  0.000
     5C    -0.04598  0.02399   1.044  3.002  0.000
     6C     0.31629  0.36286   1.023  2.660  0.000
     7O    -0.58026 -0.61971   1.733  4.847  0.000
     8C     0.44772  0.54977   1.013  2.540  0.000
     9O    -0.54210 -0.58147   1.726  4.817  0.000
    10N    -0.28926 -0.63967   1.432  3.857  0.000
    11C     0.24612  0.39206   1.021  2.733  0.000
    12C     0.15217  0.18999   1.069  2.779  0.000
    13C    -0.10356 -0.24475   1.023  3.081  0.000
    14C    -0.11837 -0.25902   1.028  3.090  0.000
    15N    -0.35842 -0.71732   1.440  3.918  0.000
    16C     0.47694  0.58334   0.978  2.545  0.000
    17O    -0.55251 -0.59877   1.723  4.829  0.000
    18C     0.33308  0.45854   1.004  2.662  0.000
    19N    -0.23833 -0.35033   1.567  3.671  0.000
    20N    -0.25862 -0.36589   1.563  3.695  0.000
    21C     0.39091  0.49914   1.009  2.600  0.000
    22C    -0.11120 -0.24860   1.012  3.099  0.000
    23O    -0.33503 -0.38676   1.690  4.645  0.000
    24N    -0.11855 -0.37427   1.450  3.669  0.000
    25C     0.04040 -0.04786   1.000  2.960  0.000
    26H     0.04712  0.10903   0.953  0.000  0.000
    27H     0.05049  0.11085   0.950  0.000  0.000
    28H     0.04793  0.10983   0.952  0.000  0.000
    29H     0.28325  0.48671   0.717  0.000  0.000
    30H     0.07720  0.13766   0.923  0.000  0.000
    31H     0.05816  0.11604   0.942  0.000  0.000
    32H     0.05087  0.10656   0.949  0.000  0.000
    33H     0.05723  0.11504   0.943  0.000  0.000
    34H     0.05958  0.11595   0.940  0.000  0.000
    35H     0.07695  0.13677   0.923  0.000  0.000
    36H     0.25401  0.46297   0.746  0.000  0.000
    37H     0.07096  0.12675   0.929  0.000  0.000
    38H     0.08112  0.13559   0.919  0.000  0.000
    39H     0.08088  0.13541   0.919  0.000  0.000
    40H     0.07780  0.14803   0.922  0.000  0.000
    41H     0.08105  0.15070   0.919  0.000  0.000
    42H     0.05939  0.13259   0.941  0.000  0.000

Wiberg/Mayer (AO) data.
largest (>0.10) Wiberg bond orders for each atom

 ---------------------------------------------------------------------------
     #   Z sym  total        # sym  WBO       # sym  WBO       # sym  WBO
 ---------------------------------------------------------------------------
     1   6 C    3.877 --    27 H    0.986    26 H    0.980    28 H    0.980
                             2 O    0.903
     2   8 O    2.201 --     3 C    1.105     1 C    0.903     4 O    0.121
     3   6 C    3.865 --     4 O    1.584     2 O    1.105     5 C    1.080
     4   8 O    1.895 --     3 C    1.584     2 O    0.121
     5   6 C    3.850 --     6 C    1.258     3 C    1.080    24 N    1.056
                             7 O    0.139
     6   6 C    3.944 --     7 O    1.573     5 C    1.258     8 C    0.954
     7   8 O    1.883 --     6 C    1.573     5 C    0.139
     8   6 C    3.867 --     9 O    1.661    10 N    1.089     6 C    0.954
     9   8 O    1.933 --     8 C    1.661    10 N    0.117
    10   7 N    3.453 --    11 C    1.207     8 C    1.089    29 H    0.877
                             9 O    0.117
    11   6 C    3.914 --    24 N    1.434    10 N    1.207    12 C    0.978
    12   6 C    3.934 --    14 C    0.985    11 C    0.978    13 C    0.976
                            15 N    0.933
    13   6 C    3.981 --    32 H    0.984    12 C    0.976    31 H    0.976
                            30 H    0.975
    14   6 C    3.986 --    12 C    0.985    33 H    0.984    34 H    0.978
                            35 H    0.977
    15   7 N    3.312 --    16 C    1.209    12 C    0.933    36 H    0.894
                            17 O    0.167
    16   6 C    3.912 --    17 O    1.621    15 N    1.209    18 C    0.993
    17   8 O    1.932 --    16 C    1.621    15 N    0.167
    18   6 C    3.878 --    19 N    1.604    23 O    1.066    16 C    0.993
    19   7 N    3.022 --    18 C    1.604    20 N    1.205
    20   7 N    2.981 --    21 C    1.599    19 N    1.205
    21   6 C    3.869 --    20 N    1.599    23 O    1.084    22 C    1.032
    22   6 C    3.985 --    21 C    1.032    37 H    0.982    39 H    0.963
                            38 H    0.962
    23   8 O    2.334 --    21 C    1.084    18 C    1.066
    24   7 N    3.589 --    11 C    1.434     5 C    1.056    25 C    0.917
    25   6 C    3.910 --    42 H    0.976    41 H    0.976    40 H    0.970
                            24 N    0.917
    26   1 H    1.009 --     1 C    0.980
    27   1 H    1.012 --     1 C    0.986
    28   1 H    1.009 --     1 C    0.980
    29   1 H    0.932 --    10 N    0.877
    30   1 H    1.009 --    13 C    0.975
    31   1 H    1.001 --    13 C    0.976
    32   1 H    1.000 --    13 C    0.984
    33   1 H    0.997 --    14 C    0.984
    34   1 H    0.996 --    14 C    0.978
    35   1 H    0.999 --    14 C    0.977
    36   1 H    0.952 --    15 N    0.894
    37   1 H    0.998 --    22 C    0.982
    38   1 H    0.996 --    22 C    0.962
    39   1 H    0.996 --    22 C    0.963
    40   1 H    1.015 --    25 C    0.970
    41   1 H    1.005 --    25 C    0.976
    42   1 H    1.010 --    25 C    0.976
 ---------------------------------------------------------------------------

Topologies differ in total number of bonds
Writing topology from bond orders to xtbtopo.mol

 dipole moment from electron density (au)
     X       Y       Z   
   4.6965  -0.3205   2.1914  total (Debye):   13.198

           -------------------------------------------------
          |                Geometry Summary                 |
           -------------------------------------------------

      molecular mass/u    :      351.3152409
   center of mass at/Å    :       -0.2127755       0.0147991      -0.2049396
  moments of inertia/u·Å² :        0.1421736E+04   0.4150364E+04   0.5157689E+04
rotational constants/cm⁻¹ :        0.1185708E-01   0.4061724E-02   0.3268447E-02

 * 38 selected distances

     #   Z          #   Z                                           value/Å
     1   6 C        2   8 O                                       1.4276356
     2   8 O        3   6 C                                       1.3358462
     3   6 C        4   8 O                                       1.2208499
     5   6 C        6   6 C                                       1.4231654
     6   6 C        7   8 O                                       1.2311961
     8   6 C        9   8 O                                       1.2129621
     8   6 C       10   7 N                                       1.3873768
    10   7 N       11   6 C                                       1.3526345
    12   6 C       13   6 C                                       1.5372468
    12   6 C       14   6 C                                       1.5377876 (max)
    12   6 C       15   7 N                                       1.4645936
    15   7 N       16   6 C                                       1.3611599
    16   6 C       17   8 O                                       1.2135499
    18   6 C       19   7 N                                       1.2997663
    20   7 N       21   6 C                                       1.2998962
    21   6 C       22   6 C                                       1.4791113
    18   6 C       23   8 O                                       1.3442214
    21   6 C       23   8 O                                       1.3406978
     5   6 C       24   7 N                                       1.4077940
    11   6 C       24   7 N                                       1.3168664
    24   7 N       25   6 C                                       1.4706165
     1   6 C       26   1 H                                       1.0927891
     1   6 C       27   1 H                                       1.0887755
     1   6 C       28   1 H                                       1.0930024
    10   7 N       29   1 H                                       1.0082186 (min)
    13   6 C       30   1 H                                       1.0876729
    13   6 C       31   1 H                                       1.0873382
    13   6 C       32   1 H                                       1.0887890
    14   6 C       33   1 H                                       1.0882362
    14   6 C       34   1 H                                       1.0880722
    14   6 C       35   1 H                                       1.0888718
    15   7 N       36   1 H                                       1.0110246
    22   6 C       37   1 H                                       1.0871176
    22   6 C       38   1 H                                       1.0900509
    22   6 C       39   1 H                                       1.0898941
    25   6 C       40   1 H                                       1.0880420
    25   6 C       41   1 H                                       1.0867647
    25   6 C       42   1 H                                       1.0827134

 * 5 distinct bonds (by element types)

   Z      Z             #   av. dist./Å        max./Å        min./Å
   1 H    6 C          15     1.0885420     1.0930024     1.0827134
   6 C    6 C           4     1.4943278     1.5377876     1.4231654
   1 H    7 N           2     1.0096216     1.0110246     1.0082186
   6 C    7 N           9     1.3734116     1.4706165     1.2997663
   6 C    8 O           8     1.2908699     1.4276356     1.2129621


optimized geometry written to: xtbopt.xyz


           -------------------------------------------------
          | TOTAL ENERGY              -82.992828132082 Eh   |
          | GRADIENT NORM               0.000447212298 Eh/α |
          | HOMO-LUMO GAP               2.514682922900 eV   |
           -------------------------------------------------

------------------------------------------------------------------------
 * finished run on 2023/06/21 at 17:35:13.978     
------------------------------------------------------------------------
 total:
 * wall-time:     0 d,  0 h,  0 min,  5.805 sec
 *  cpu-time:     0 d,  0 h,  0 min,  5.671 sec
 * ratio c/w:     0.977 speedup
 SCF:
 * wall-time:     0 d,  0 h,  0 min,  0.192 sec
 *  cpu-time:     0 d,  0 h,  0 min,  0.165 sec
 * ratio c/w:     0.862 speedup
 ANC optimizer:
 * wall-time:     0 d,  0 h,  0 min,  5.515 sec
 *  cpu-time:     0 d,  0 h,  0 min,  5.467 sec
 * ratio c/w:     0.991 speedup

