16
 energy: -33.392169768871 gnorm: 0.000794325173 xtb: 6.5.1 (579679a)
C            2.69038908562610       -0.19733983251616        0.16550159092697
C            1.26626515786411        0.07327282592950        0.27485242726365
N            0.66974211839709        0.81174593087747        1.27223598420043
N           -0.56768845983610        0.84553974342592        1.04051646617676
C           -0.86235866576236        0.09583206634302       -0.12394976629053
C           -1.60382336125036        0.86965943153715       -1.21482802251056
C           -1.81004209751025       -1.09876636650043        0.35919095324008
O           -2.91431936284201       -0.82757413626197        0.68460211483232
Cl          -1.11462783431651       -2.62234649810587        0.33610405340868
O            0.39362334762824       -0.35856530306859       -0.55961100273395
H            3.22235870539951        0.75272177999187        0.05719198781125
H            2.90228665364568       -0.84684716643551       -0.68059296737372
H            3.04708311460493       -0.64246166126467        1.09780920552039
H           -0.99696294377103        1.72293577129408       -1.50929012717715
H           -1.76290012728389        0.21836122954938       -2.07087628953894
H           -2.55902633059323        1.20383218520469       -0.81453860775565
