
                                 *****************
                                 * O   R   C   A *
                                 *****************

                                            #,                                       
                                            ###                                      
                                            ####                                     
                                            #####                                    
                                            ######                                   
                                           ########,                                 
                                     ,,################,,,,,                         
                               ,,#################################,,                 
                          ,,##########################################,,             
                       ,#########################################, ''#####,          
                    ,#############################################,,   '####,        
                  ,##################################################,,,,####,       
                ,###########''''           ''''###############################       
              ,#####''   ,,,,##########,,,,          '''####'''          '####       
            ,##' ,,,,###########################,,,                        '##       
           ' ,,###''''                  '''############,,,                           
         ,,##''                                '''############,,,,        ,,,,,,###''
      ,#''                                            '''#######################'''  
     '                                                          ''''####''''         
             ,#######,   #######,   ,#######,      ##                                
            ,#'     '#,  ##    ##  ,#'     '#,    #''#        ######   ,####,        
            ##       ##  ##   ,#'  ##            #'  '#       #        #'  '#        
            ##       ##  #######   ##           ,######,      #####,   #    #        
            '#,     ,#'  ##    ##  '#,     ,#' ,#      #,         ##   #,  ,#        
             '#######'   ##     ##  '#######'  #'      '#     #####' # '####'        



                  #######################################################
                  #                        -***-                        #
                  #          Department of theory and spectroscopy      #
                  #    Directorship and core code : Frank Neese         #
                  #        Max Planck Institute fuer Kohlenforschung    #
                  #                Kaiser Wilhelm Platz 1               #
                  #                 D-45470 Muelheim/Ruhr               #
                  #                      Germany                        #
                  #                                                     #
                  #                  All rights reserved                #
                  #                        -***-                        #
                  #######################################################


                         Program Version 5.0.1 -  RELEASE  -


 With contributions from (in alphabetic order):
   Daniel Aravena         : Magnetic Suceptibility
   Michael Atanasov       : Ab Initio Ligand Field Theory (pilot matlab implementation)
   Alexander A. Auer      : GIAO ZORA, VPT2 properties, NMR spectrum
   Ute Becker             : Parallelization
   Giovanni Bistoni       : ED, misc. LED, open-shell LED, HFLD
   Martin Brehm           : Molecular dynamics
   Dmytro Bykov           : SCF Hessian
   Vijay G. Chilkuri      : MRCI spin determinant printing, contributions to CSF-ICE
   Dipayan Datta          : RHF DLPNO-CCSD density
   Achintya Kumar Dutta   : EOM-CC, STEOM-CC
   Dmitry Ganyushin       : Spin-Orbit,Spin-Spin,Magnetic field MRCI
   Miquel Garcia          : C-PCM and meta-GGA Hessian, CC/C-PCM, Gaussian charge scheme
   Yang Guo               : DLPNO-NEVPT2, F12-NEVPT2, CIM, IAO-localization
   Andreas Hansen         : Spin unrestricted coupled pair/coupled cluster methods
   Benjamin Helmich-Paris : MC-RPA, TRAH-SCF, COSX integrals
   Lee Huntington         : MR-EOM, pCC
   Robert Izsak           : Overlap fitted RIJCOSX, COSX-SCS-MP3, EOM
   Marcus Kettner         : VPT2
   Christian Kollmar      : KDIIS, OOCD, Brueckner-CCSD(T), CCSD density, CASPT2, CASPT2-K
   Simone Kossmann        : Meta GGA functionals, TD-DFT gradient, OOMP2, MP2 Hessian
   Martin Krupicka        : Initial AUTO-CI
   Lucas Lang             : DCDCAS
   Marvin Lechner         : AUTO-CI (C++ implementation), FIC-MRCC
   Dagmar Lenk            : GEPOL surface, SMD
   Dimitrios Liakos       : Extrapolation schemes; Compound Job, initial MDCI parallelization
   Dimitrios Manganas     : Further ROCIS development; embedding schemes
   Dimitrios Pantazis     : SARC Basis sets
   Anastasios Papadopoulos: AUTO-CI, single reference methods and gradients
   Taras Petrenko         : DFT Hessian,TD-DFT gradient, ASA, ECA, R-Raman, ABS, FL, XAS/XES, NRVS
   Peter Pinski           : DLPNO-MP2, DLPNO-MP2 Gradient
   Christoph Reimann      : Effective Core Potentials
   Marius Retegan         : Local ZFS, SOC
   Christoph Riplinger    : Optimizer, TS searches, QM/MM, DLPNO-CCSD(T), (RO)-DLPNO pert. Triples
   Tobias Risthaus        : Range-separated hybrids, TD-DFT gradient, RPA, STAB
   Michael Roemelt        : Original ROCIS implementation
   Masaaki Saitow         : Open-shell DLPNO-CCSD energy and density
   Barbara Sandhoefer     : DKH picture change effects
   Avijit Sen             : IP-ROCIS
   Kantharuban Sivalingam : CASSCF convergence, NEVPT2, FIC-MRCI
   Bernardo de Souza      : ESD, SOC TD-DFT
   Georgi Stoychev        : AutoAux, RI-MP2 NMR, DLPNO-MP2 response
   Willem Van den Heuvel  : Paramagnetic NMR
   Boris Wezisla          : Elementary symmetry handling
   Frank Wennmohs         : Technical directorship


 We gratefully acknowledge several colleagues who have allowed us to
 interface, adapt or use parts of their codes:
   Stefan Grimme, W. Hujo, H. Kruse, P. Pracht,  : VdW corrections, initial TS optimization,
                  C. Bannwarth, S. Ehlert          DFT functionals, gCP, sTDA/sTD-DF
   Ed Valeev, F. Pavosevic, A. Kumar             : LibInt (2-el integral package), F12 methods
   Garnet Chan, S. Sharma, J. Yang, R. Olivares  : DMRG
   Ulf Ekstrom                                   : XCFun DFT Library
   Mihaly Kallay                                 : mrcc  (arbitrary order and MRCC methods)
   Jiri Pittner, Ondrej Demel                    : Mk-CCSD
   Frank Weinhold                                : gennbo (NPA and NBO analysis)
   Christopher J. Cramer and Donald G. Truhlar   : smd solvation model
   Lars Goerigk                                  : TD-DFT with DH, B97 family of functionals
   V. Asgeirsson, H. Jonsson                     : NEB implementation
   FAccTs GmbH                                   : IRC, NEB, NEB-TS, DLPNO-Multilevel, CI-OPT
                                                   MM, QMMM, 2- and 3-layer-ONIOM, Crystal-QMMM,
                                                   LR-CPCM, SF, NACMEs, symmetry and pop. for TD-DFT,
                                                   nearIR, NL-DFT gradient (VV10), updates on ESD,
                                                   ML-optimized integration grids
   S Lehtola, MJT Oliveira, MAL Marques          : LibXC Library
   Liviu Ungur et al                             : ANISO software


 Your calculation uses the libint2 library for the computation of 2-el integrals
 For citations please refer to: http://libint.valeyev.net

 Your ORCA version has been built with support for libXC version: 5.1.0
 For citations please refer to: https://tddft.org/programs/libxc/

 This ORCA versions uses:
   CBLAS   interface :  Fast vector & matrix operations
   LAPACKE interface :  Fast linear algebra routines
   SCALAPACK package :  Parallel linear algebra routines
   Shared memory     :  Shared parallel matrices
   BLAS/LAPACK       :  OpenBLAS 0.3.15  USE64BITINT DYNAMIC_ARCH NO_AFFINITY Zen SINGLE_THREADED
        Core in use  :  Zen
   Copyright (c) 2011-2014, The OpenBLAS Project


Your calculation utilizes the geometrical counterpoise correction gCP
Please cite in your paper:
H.Kruse, S. Grimme J.Chem.Phys., 136, (2012), 154101 
   

Your calculation utilizes the atom-pairwise dispersion correction
based on tight binding partial charges (D4)
Cite in your paper:
E.Caldeweyher, C.Bannwarth, S.Grimme, J.Chem.Phys., (2017), 147, 034112.
E.Caldeweyher, S.Ehlert, A.Hansen, H.Neugebauer, S.Grimme, J.Chem.Phys., (2018), in progress.
   

Your calculation utilizes the SMD solvation module
Please cite in your paper:
A.V. Marenich, C.J. Cramer, D.G. Truhlar J. Phys. Chem. B, 113, (2009), 6378 

================================================================================

----- Orbital basis set information -----
Your calculation utilizes the basis: def2-mTZVPP
   Stefan Grimme, Andreas Hansen, Sebastian Ehlert, and Jan-Michael Mewes 
   J. Chem. Phys. 154, 000000 (2021). DOI: 10.1063/5.0040021

----- AuxJ basis set information -----
Your calculation utilizes the basis: def2-mTZVPP/J
   Stefan Grimme, Andreas Hansen, Sebastian Ehlert, and Jan-Michael Mewes 
   J. Chem. Phys. 154, 000000 (2021). DOI: 10.1063/5.0040021

================================================================================
                                        WARNINGS
                       Please study these warnings very carefully!
================================================================================

Using LibXC functional ID 497 : Re-regularized SCAN exchange by Furness et al
[ 1]  J. W. Furness, A. D. Kaplan, J. Ning, J. P. Perdew, and J. Sun, J. Phys. Chem. Lett. 11, 8208 (2020)
[ 2]  J. W. Furness, A. D. Kaplan, J. Ning, J. P. Perdew, and J. Sun, J. Phys. Chem. Lett. 11, 9248 (2020)
Using LibXC functional ID 498 : Re-regularized SCAN correlation by Furness et al
[ 1]  J. W. Furness, A. D. Kaplan, J. Ning, J. P. Perdew, and J. Sun, J. Phys. Chem. Lett. 11, 8208 (2020)
[ 2]  J. W. Furness, A. D. Kaplan, J. Ning, J. P. Perdew, and J. Sun, J. Phys. Chem. Lett. 11, 9248 (2020)
Using LibXC functional ID 497 : Re-regularized SCAN exchange by Furness et al
[ 1]  J. W. Furness, A. D. Kaplan, J. Ning, J. P. Perdew, and J. Sun, J. Phys. Chem. Lett. 11, 8208 (2020)
[ 2]  J. W. Furness, A. D. Kaplan, J. Ning, J. P. Perdew, and J. Sun, J. Phys. Chem. Lett. 11, 9248 (2020)
Using LibXC functional ID 498 : Re-regularized SCAN correlation by Furness et al
[ 1]  J. W. Furness, A. D. Kaplan, J. Ning, J. P. Perdew, and J. Sun, J. Phys. Chem. Lett. 11, 8208 (2020)
[ 2]  J. W. Furness, A. D. Kaplan, J. Ning, J. P. Perdew, and J. Sun, J. Phys. Chem. Lett. 11, 9248 (2020)

INFO   : the flag for use of the SHARK integral package has been found!

================================================================================
                                       INPUT FILE
================================================================================
NAME = /lustre/hpc/kemi/ree/PhD/git/ReactivityQM/calculations/R03/reac01prodE01/conf07/gfn1/orca_calc.inp
|  1> # ORCA input file 
|  2> ! SP r2SCAN-3c CPCM 
|  3> 
|  4> %maxcore 1875.0 
|  5> %pal nprocs 4 end 
|  6> %cpcm smd true SMDsolvent "DMSO" end 
|  7> 
|  8> *xyz -1 1
|  9> C      -0.400343    1.960200   -0.552615
| 10> C      -0.288740    0.469374   -0.097202
| 11> C      -1.752579   -0.063732   -0.006515
| 12> N      -1.758774   -1.496893    0.311508
| 13> C       0.493253   -0.325211   -1.129004
| 14> C       1.691191   -0.928918   -0.853548
| 15> C       2.240440   -0.869203    0.426829
| 16> F       3.455775   -1.507558    0.679291
| 17> C       1.580741   -0.223381    1.474454
| 18> C       0.383955    0.403304    1.263141
| 19> H       0.599001    2.390425   -0.625667
| 20> H      -0.881634    2.031274   -1.529589
| 21> H      -0.978682    2.542521    0.167069
| 22> H      -2.294723    0.468403    0.785685
| 23> H      -2.277056    0.119532   -0.959902
| 24> H      -1.286080   -1.981469   -0.448753
| 25> H      -2.716837   -1.816816    0.307749
| 26> H       0.071301   -0.372439   -2.129136
| 27> H       2.220959   -1.470152   -1.634655
| 28> H       2.028491   -0.227721    2.466588
| 29> H      -0.129662    0.898460    2.084272
| 30> **                         ****END OF INPUT****
================================================================================

                       ****************************
                       * Single Point Calculation *
                       ****************************

---------------------------------
CARTESIAN COORDINATES (ANGSTROEM)
---------------------------------
  C     -0.400343    1.960200   -0.552615
  C     -0.288740    0.469374   -0.097202
  C     -1.752579   -0.063732   -0.006515
  N     -1.758774   -1.496893    0.311508
  C      0.493253   -0.325211   -1.129004
  C      1.691191   -0.928918   -0.853548
  C      2.240440   -0.869203    0.426829
  F      3.455775   -1.507558    0.679291
  C      1.580741   -0.223381    1.474454
  C      0.383955    0.403304    1.263141
  H      0.599001    2.390425   -0.625667
  H     -0.881634    2.031274   -1.529589
  H     -0.978682    2.542521    0.167069
  H     -2.294723    0.468403    0.785685
  H     -2.277056    0.119532   -0.959902
  H     -1.286080   -1.981469   -0.448753
  H     -2.716837   -1.816816    0.307749
  H      0.071301   -0.372439   -2.129136
  H      2.220959   -1.470152   -1.634655
  H      2.028491   -0.227721    2.466588
  H     -0.129662    0.898460    2.084272

----------------------------
CARTESIAN COORDINATES (A.U.)
----------------------------
  NO LB      ZA    FRAG     MASS         X           Y           Z
   0 C     6.0000    0    12.011   -0.756539    3.704241   -1.044291
   1 C     6.0000    0    12.011   -0.545640    0.886988   -0.183685
   2 C     6.0000    0    12.011   -3.311894   -0.120436   -0.012312
   3 N     7.0000    0    14.007   -3.323601   -2.828718    0.588665
   4 C     6.0000    0    12.011    0.932113   -0.614560   -2.133508
   5 C     6.0000    0    12.011    3.195888   -1.755401   -1.612972
   6 C     6.0000    0    12.011    4.233818   -1.642556    0.806590
   7 F     9.0000    0    18.998    6.530468   -2.848872    1.283674
   8 C     6.0000    0    12.011    2.987168   -0.422129    2.786314
   9 C     6.0000    0    12.011    0.725570    0.762134    2.386991
  10 H     1.0000    0     1.008    1.131948    4.517249   -1.182339
  11 H     1.0000    0     1.008   -1.666047    3.838552   -2.890504
  12 H     1.0000    0     1.008   -1.849441    4.804668    0.315715
  13 H     1.0000    0     1.008   -4.336398    0.885153    1.484729
  14 H     1.0000    0     1.008   -4.303012    0.225883   -1.813952
  15 H     1.0000    0     1.008   -2.430339   -3.744434   -0.848020
  16 H     1.0000    0     1.008   -5.134078   -3.433285    0.581561
  17 H     1.0000    0     1.008    0.134739   -0.703808   -4.023484
  18 H     1.0000    0     1.008    4.197004   -2.778185   -3.089050
  19 H     1.0000    0     1.008    3.833292   -0.430330    4.661176
  20 H     1.0000    0     1.008   -0.245026    1.697843    3.938703

--------------------------------
INTERNAL COORDINATES (ANGSTROEM)
--------------------------------
 C      0   0   0     0.000000000000     0.00000000     0.00000000
 C      1   0   0     1.562823852024     0.00000000     0.00000000
 C      2   1   0     1.560528999130   106.01139695     0.00000000
 N      3   2   1     1.468035237477   110.49043133   175.43975194
 C      2   1   3     1.519043693077   109.74361963   118.87300565
 C      5   2   1     1.369450109215   122.97608765   116.94149004
 C      6   5   2     1.394491164316   120.68697571     1.78712907
 F      7   6   5     1.395805620312   119.30323394   179.28632271
 C      7   6   5     1.396354885733   121.50585365     1.47241430
 C      9   7   6     1.367363888287   120.63288454   358.28461413
 H      1   2   3     1.090467136444   109.29516861   179.52788897
 H      1   2   3     1.091407685896   110.76051561   299.10342063
 H      1   2   3     1.091567132987   110.76923437    59.88912889
 H      3   2   1     1.097573967877   109.85620061   294.93384998
 H      3   2   1     1.103453029809   109.81040631    53.52234134
 H      4   3   2     1.017963803646   107.51567212   298.17004126
 H      4   3   2     1.010074040840   108.20419426   183.30523494
 H      5   2   1     1.086525651659   116.61879064   298.83778363
 H      6   5   2     1.087987372183   120.05521619   181.22489299
 H      9   7   6     1.088498402413   119.18655876   178.00424708
 H     10   9   7     1.087767441224   120.34728626   179.53036498

---------------------------
INTERNAL COORDINATES (A.U.)
---------------------------
 C      0   0   0     0.000000000000     0.00000000     0.00000000
 C      1   0   0     2.953309075885     0.00000000     0.00000000
 C      2   1   0     2.948972432398   106.01139695     0.00000000
 N      3   2   1     2.774184553778   110.49043133   175.43975194
 C      2   1   3     2.870576565376   109.74361963   118.87300565
 C      5   2   1     2.587885660485   122.97608765   116.94149004
 C      6   5   2     2.635206396730   120.68697571     1.78712907
 F      7   6   5     2.637690358577   119.30323394   179.28632271
 C      7   6   5     2.638728319798   121.50585365     1.47241430
 C      9   7   6     2.583943274275   120.63288454   358.28461413
 H      1   2   3     2.060684245921   109.29516861   179.52788897
 H      1   2   3     2.062461626800   110.76051561   299.10342063
 H      1   2   3     2.062762938135   110.76923437    59.88912889
 H      3   2   1     2.074114211009   109.85620061   294.93384998
 H      3   2   1     2.085224027984   109.81040631    53.52234134
 H      4   3   2     1.923672803135   107.51567212   298.17004126
 H      4   3   2     1.908763312171   108.20419426   183.30523494
 H      5   2   1     2.053235919115   116.61879064   298.83778363
 H      6   5   2     2.055998170590   120.05521619   181.22489299
 H      9   7   6     2.056963877772   119.18655876   178.00424708
 H     10   9   7     2.055582561309   120.34728626   179.53036498

---------------------
BASIS SET INFORMATION
---------------------
There are 4 groups of distinct atoms

 Group   1 Type C   : 11s6p1d contracted to 5s3p1d pattern {62111/411/1}
 Group   2 Type N   : 11s6p2d contracted to 5s3p2d pattern {62111/411/11}
 Group   3 Type F   : 11s6p2d contracted to 5s3p2d pattern {62111/411/11}
 Group   4 Type H   : 4s1p contracted to 2s1p pattern {31/1}

Atom   0C    basis set group =>   1
Atom   1C    basis set group =>   1
Atom   2C    basis set group =>   1
Atom   3N    basis set group =>   2
Atom   4C    basis set group =>   1
Atom   5C    basis set group =>   1
Atom   6C    basis set group =>   1
Atom   7F    basis set group =>   3
Atom   8C    basis set group =>   1
Atom   9C    basis set group =>   1
Atom  10H    basis set group =>   4
Atom  11H    basis set group =>   4
Atom  12H    basis set group =>   4
Atom  13H    basis set group =>   4
Atom  14H    basis set group =>   4
Atom  15H    basis set group =>   4
Atom  16H    basis set group =>   4
Atom  17H    basis set group =>   4
Atom  18H    basis set group =>   4
Atom  19H    basis set group =>   4
Atom  20H    basis set group =>   4
---------------------------------
AUXILIARY/J BASIS SET INFORMATION
---------------------------------
There are 4 groups of distinct atoms

 Group   1 Type C   : 8s3p3d contracted to 6s3p3d pattern {311111/111/111}
 Group   2 Type N   : 8s3p3d contracted to 6s3p3d pattern {311111/111/111}
 Group   3 Type F   : 8s3p4d contracted to 6s3p4d pattern {311111/111/1111}
 Group   4 Type H   : 5s2p1d contracted to 3s1p1d pattern {311/2/1}

Atom   0C    basis set group =>   1
Atom   1C    basis set group =>   1
Atom   2C    basis set group =>   1
Atom   3N    basis set group =>   2
Atom   4C    basis set group =>   1
Atom   5C    basis set group =>   1
Atom   6C    basis set group =>   1
Atom   7F    basis set group =>   3
Atom   8C    basis set group =>   1
Atom   9C    basis set group =>   1
Atom  10H    basis set group =>   4
Atom  11H    basis set group =>   4
Atom  12H    basis set group =>   4
Atom  13H    basis set group =>   4
Atom  14H    basis set group =>   4
Atom  15H    basis set group =>   4
Atom  16H    basis set group =>   4
Atom  17H    basis set group =>   4
Atom  18H    basis set group =>   4
Atom  19H    basis set group =>   4
Atom  20H    basis set group =>   4


           ************************************************************
           *        Program running with 4 parallel MPI-processes     *
           *              working on a common directory               *
           ************************************************************
------------------------------------------------------------------------------
                           ORCA GTO INTEGRAL CALCULATION
                           -- RI-GTO INTEGRALS CHOSEN --
------------------------------------------------------------------------------
------------------------------------------------------------------------------
                   ___                                                        
                  /   \      - P O W E R E D   B Y -                         
                 /     \                                                     
                 |  |  |   _    _      __       _____    __    __             
                 |  |  |  | |  | |    /  \     |  _  \  |  |  /  |          
                  \  \/   | |  | |   /    \    | | | |  |  | /  /          
                 / \  \   | |__| |  /  /\  \   | |_| |  |  |/  /          
                |  |  |   |  __  | /  /__\  \  |    /   |      \           
                |  |  |   | |  | | |   __   |  |    \   |  |\   \          
                \     /   | |  | | |  |  |  |  | |\  \  |  | \   \       
                 \___/    |_|  |_| |__|  |__|  |_| \__\ |__|  \__/        
                                                                              
                      - O R C A' S   B I G   F R I E N D -                    
                                      &                                       
                       - I N T E G R A L  F E E D E R -                       
                                                                              
 v1 FN, 2020, v2 2021                                                         
------------------------------------------------------------------------------


Reading SHARK input file /lustre/hpc/kemi/ree/PhD/git/ReactivityQM/calculations/R03/reac01prodE01/conf07/gfn1/orca_calc.SHARKINP.tmp ... ok
----------------------
SHARK INTEGRAL PACKAGE
----------------------

Number of atoms                             ...     21
Number of basis functions                   ...    255
Number of shells                            ...    125
Maximum angular momentum                    ...      2
Integral batch strategy                     ... SHARK/LIBINT Hybrid
RI-J (if used) integral strategy            ... SPLIT-RIJ (Revised 2003 algorithm where possible)
Printlevel                                  ...      1
Contraction scheme used                     ... SEGMENTED contraction
Coulomb Range Separation                    ... NOT USED
Exchange Range Separation                   ... NOT USED
Finite Nucleus Model                        ... NOT USED
Auxiliary Coulomb fitting basis             ... AVAILABLE
   # of basis functions in Aux-J            ...    426
   # of shells in Aux-J                     ...    176
   Maximum angular momentum in Aux-J        ...      2
Auxiliary J/K fitting basis                 ... NOT available
Auxiliary Correlation fitting basis         ... NOT available
Auxiliary 'external' fitting basis          ... NOT available
Integral threshold                          ...     1.000000e-10
Primitive cut-off                           ...     1.000000e-11
Primitive pair pre-selection threshold      ...     1.000000e-11

Calculating pre-screening integrals         ... done (  0.1 sec) Dimension = 125
Organizing shell pair data                  ... done (  0.0 sec)
Shell pair information
Total number of shell pairs                 ...      7875
Shell pairs after pre-screening             ...      6950
Total number of primitive shell pairs       ...     28456
Primitive shell pairs kept                  ...     17386
          la=0 lb=0:   2247 shell pairs
          la=1 lb=0:   2622 shell pairs
          la=1 lb=1:    790 shell pairs
          la=2 lb=0:    770 shell pairs
          la=2 lb=1:    447 shell pairs
          la=2 lb=2:     74 shell pairs

Calculating one electron integrals          ... done (  0.0 sec)
Calculating RI/J V-Matrix + Cholesky decomp.... done (  0.0 sec)
Calculating Nuclear repulsion               ... done (  0.0 sec) ENN=    528.488675827579 Eh

SHARK setup successfully completed in   0.2 seconds

Maximum memory used throughout the entire GTOINT-calculation: 11.2 MB


           ************************************************************
           *        Program running with 4 parallel MPI-processes     *
           *              working on a common directory               *
           ************************************************************
-------------------------------------------------------------------------------
                                 ORCA SCF
-------------------------------------------------------------------------------

------------
SCF SETTINGS
------------
Hamiltonian:
 Density Functional     Method          .... DFT(GTOs)
  Functional kind                       .... Exchange
  Functional name                       .... Re-regularized SCAN exchange by Furness et al
  Functional family                     .... MGGA
  Functional refs                              
    [ 0] J. W. Furness, A. D. Kaplan, J. Ning, J. P. Perdew, and J. Sun, J. Phys. Chem. Lett. 11, 8208 (2020)
    [ 1] J. W. Furness, A. D. Kaplan, J. Ning, J. P. Perdew, and J. Sun, J. Phys. Chem. Lett. 11, 9248 (2020)
  Functional external parameters         .... 8
 Parameter  0 :         c1 parameter
 Parameter  1 :         c2 parameter
 Parameter  2 :          d parameter
 Parameter  3 :         k1 parameter
 Parameter  4 :       taur parameter
 Parameter  5 :     alphar parameter
 Parameter  6 :        eta parameter
 Parameter  7 :        dp2 parameter
  Functional kind                       .... Correlation
  Functional name                       .... Re-regularized SCAN correlation by Furness et al
  Functional family                     .... MGGA
  Functional refs                              
    [ 0] J. W. Furness, A. D. Kaplan, J. Ning, J. P. Perdew, and J. Sun, J. Phys. Chem. Lett. 11, 8208 (2020)
    [ 1] J. W. Furness, A. D. Kaplan, J. Ning, J. P. Perdew, and J. Sun, J. Phys. Chem. Lett. 11, 9248 (2020)
  Functional external parameters         .... 0
 Gradients option       PostSCFGGA      .... off
   Density functional embedding theory  .... OFF
 RI-approximation to the Coulomb term is turned on
   Number of AuxJ basis functions       .... 426


General Settings:
 Integral files         IntName         .... /lustre/hpc/kemi/ree/PhD/git/ReactivityQM/calculations/R03/reac01prodE01/conf07/gfn1/orca_calc
 Hartree-Fock type      HFTyp           .... RHF
 Total Charge           Charge          ....   -1
 Multiplicity           Mult            ....    1
 Number of Electrons    NEL             ....   76
 Basis Dimension        Dim             ....  255
 Nuclear Repulsion      ENuc            ....    528.4886758276 Eh

Convergence Acceleration:
 DIIS                   CNVDIIS         .... on
   Start iteration      DIISMaxIt       ....    12
   Startup error        DIISStart       ....  0.200000
   # of expansion vecs  DIISMaxEq       ....     5
   Bias factor          DIISBfac        ....   1.050
   Max. coefficient     DIISMaxC        ....  10.000
 Trust-Rad. Augm. Hess. CNVTRAH         .... auto
   Auto Start mean grad. ratio tolernc. ....  1.125000
   Auto Start start iteration           ....    20
   Auto Start num. interpolation iter.  ....    10
   Max. Number of Micro iterations      ....    16
   Max. Number of Macro iterations      .... Maxiter - #DIIS iter
   Number of Davidson start vectors     ....     2
   Converg. threshold I  (grad. norm)   ....   5.000e-05
   Converg. threshold II (energy diff.) ....   1.000e-06
   Grad. Scal. Fac. for Micro threshold ....   0.100
   Minimum threshold for Micro iter.    ....   0.010
   NR start threshold (gradient norm)   ....   0.001
   Initial trust radius                 ....   0.400
   Minimum AH scaling param. (alpha)    ....   1.000
   Maximum AH scaling param. (alpha)    .... 1000.000
   Orbital update algorithm             .... Taylor
   White noise on init. David. guess    .... on
   Maximum white noise                  ....   0.010
   Quad. conv. algorithm                .... NR
   COSX micro iterations for RIJONX calc.... off
 SOSCF                  CNVSOSCF        .... on
   Start iteration      SOSCFMaxIt      ....   150
   Startup grad/error   SOSCFStart      ....  0.003300
 Level Shifting         CNVShift        .... on
   Level shift para.    LevelShift      ....    0.2500
   Turn off err/grad.   ShiftErr        ....    0.0010
 Zerner damping         CNVZerner       .... off
 Static damping         CNVDamp         .... on
   Fraction old density DampFac         ....    0.7000
   Max. Damping (<1)    DampMax         ....    0.9800
   Min. Damping (>=0)   DampMin         ....    0.0000
   Turn off err/grad.   DampErr         ....    0.1000
 Fernandez-Rico         CNVRico         .... off

SCF Procedure:
 Maximum # iterations   MaxIter         ....   125
 SCF integral mode      SCFMode         .... Direct
   Integral package                     .... SHARK and LIBINT hybrid scheme
 Reset frequency        DirectResetFreq ....    20
 Integral Threshold     Thresh          ....  1.000e-10 Eh
 Primitive CutOff       TCut            ....  1.000e-11 Eh

Convergence Tolerance:
 Convergence Check Mode ConvCheckMode   .... Total+1el-Energy
 Convergence forced     ConvForced      .... 0
 Energy Change          TolE            ....  1.000e-06 Eh
 1-El. energy change                    ....  1.000e-03 Eh
 Orbital Gradient       TolG            ....  5.000e-05
 Orbital Rotation angle TolX            ....  5.000e-05
 DIIS Error             TolErr          ....  1.000e-06


Diagonalization of the overlap matrix:
Smallest eigenvalue                        ... 3.314e-05
Time for diagonalization                   ...    0.011 sec
Threshold for overlap eigenvalues          ... 1.000e-08
Number of eigenvalues below threshold      ... 0
Time for construction of square roots      ...    0.009 sec
Total time needed                          ...    0.020 sec

Time for model grid setup =    0.166 sec

------------------------------
INITIAL GUESS: MODEL POTENTIAL
------------------------------
Loading Hartree-Fock densities                     ... done
Calculating cut-offs                               ... done
Initializing the effective Hamiltonian             ... done
Setting up the integral package (SHARK)            ... done
Starting the Coulomb interaction                   ... done (   0.1 sec)
Reading the grid                                   ... done
Mapping shells                                     ... done
Starting the XC term evaluation                    ... done (   0.1 sec)
  promolecular density results
     # of electrons  =     74.996028745
     EX              =    -60.658383875
     EC              =     -2.492730466
     EX+EC           =    -63.151114341
Transforming the Hamiltonian                       ... done (   0.0 sec)
Diagonalizing the Hamiltonian                      ... done (   0.0 sec)
Back transforming the eigenvectors                 ... done (   0.0 sec)
Now organizing SCF variables                       ... done
                      ------------------
                      INITIAL GUESS DONE (   0.5 sec)
                      ------------------
-------------------
DFT GRID GENERATION
-------------------

General Integration Accuracy     IntAcc      ... 4.388
Radial Grid Type                 RadialGrid  ... OptM3 with GC (2021)
Angular Grid (max. ang.)         AngularGrid ... 4 (Lebedev-302)
Angular grid pruning method      GridPruning ... 4 (adaptive)
Weight generation scheme         WeightScheme... Becke
Basis function cutoff            BFCut       ... 1.0000e-10
Integration weight cutoff        WCut        ... 1.0000e-14
Angular grids for H and He will be reduced by one unit
Partially contracted basis set               ... off
Rotationally invariant grid construction     ... off

Total number of grid points                  ...    95157
Total number of batches                      ...     1495
Average number of points per batch           ...       63
Average number of grid points per atom       ...     4531
Time for grid setup =    0.708 sec


--------------------
CPCM SOLVATION MODEL
--------------------
CPCM parameters:
  Epsilon                                         ...      46.8260
  Refrac                                          ...       1.4170
  Rsolv                                           ...       1.3000
  Surface type                                    ... GAUSSIAN VDW
  Epsilon function type                           ...         CPCM
Solvent:                                     ... DMSO
SMD-CDS solvent descriptors:
  Soln                                       ...    1.4170
  Soln25                                     ...    1.4773
  Sola                                       ...    0.0000
  Solb                                       ...    0.8800
  Solg                                       ...   61.7800
  Solc                                       ...    0.0000
  Solh                                       ...    0.0000
Radii:
 Radius for C  used is    3.4960 Bohr (=   1.8500 Ang.)
 Radius for N  used is    3.5716 Bohr (=   1.8900 Ang.)
 Radius for F  used is    3.2692 Bohr (=   1.7300 Ang.)
 Radius for H  used is    2.2677 Bohr (=   1.2000 Ang.)
Calculating surface                               ...        done! (  0.0s)
GEPOL surface points                              ...         1257
GEPOL Volume                                      ...    1052.8182
GEPOL Surface-area                                ...     637.9837
Calculating surface distance matrix               ...        done! (  0.0s)
Performing Cholesky decomposition & store         ...        done! (  0.1s)
Overall time for CPCM initialization              ...                 0.1s
--------------
SCF ITERATIONS
--------------
ITER       Energy         Delta-E        Max-DP      RMS-DP      [F,P]     Damp
               ***  Starting incremental Fock matrix formation  ***
  0   -465.6550881170   0.000000000000 0.11006439  0.00237046  0.2715713 0.7000
  1   -465.8296027122  -0.174514595188 0.11305472  0.00209678  0.1204325 0.7000
                               ***Turning on DIIS***
  2   -465.8962531202  -0.066650407954 0.16778502  0.00398247  0.0351291 0.0000
  3   -465.9879361398  -0.091683019579 0.10288829  0.00147540  0.0716990 0.0000
  4   -466.0188373109  -0.030901171183 0.04200911  0.00071637  0.0136774 0.0000
  5   -466.0206443122  -0.001807001227 0.01249508  0.00029417  0.0070274 0.0000
                      *** Initiating the SOSCF procedure ***
                           *** Shutting down DIIS ***
                      *** Re-Reading the Fockian *** 
                      *** Removing any level shift *** 
ITER      Energy       Delta-E        Grad      Rot      Max-DP    RMS-DP
  6   -466.02080488  -0.0001605651  0.000479  0.000479  0.011899  0.000233
               *** Restarting incremental Fock matrix formation ***
  7   -466.02081437  -0.0000094953  0.000240  0.001134  0.000796  0.000031
  8   -466.02080879   0.0000055833  0.000577  0.000886  0.000630  0.000020
  9   -466.02081621  -0.0000074210  0.000056  0.000200  0.000295  0.000008
 10   -466.02081610   0.0000001072  0.000065  0.000112  0.000148  0.000004
                 **** Energy Check signals convergence ****
              ***Rediagonalizing the Fockian in SOSCF/NRSCF***

               *****************************************************
               *                     SUCCESS                       *
               *           SCF CONVERGED AFTER  11 CYCLES          *
               *****************************************************


SMD CDS free energy correction energy :                 1.67172     Kcal/mol
Total Energy after SMD CDS correction =              -466.018152262 Eh

----------------
TOTAL SCF ENERGY
----------------

Total Energy       :         -466.01815226 Eh          -12680.99861 eV

Components:
Nuclear Repulsion  :          528.48867583 Eh           14380.90798 eV
Electronic Energy  :         -994.50682809 Eh          -27061.90659 eV
One Electron Energy:        -1696.37249839 Eh          -46160.64244 eV
Two Electron Energy:          701.86567030 Eh           19098.73585 eV
CPCM Dielectric    :           -0.10002980 Eh              -2.72195 eV
SMD CDS (Gcds)     :            0.00266405 Eh               0.07249 eV

Virial components:
Potential Energy   :         -930.09476345 Eh          -25309.16521 eV
Kinetic Energy     :          464.07661119 Eh           12628.16659 eV
Virial Ratio       :            2.00418366


DFT components:
N(Alpha)           :       37.999955868744 electrons
N(Beta)            :       37.999955868744 electrons
N(Total)           :       75.999911737487 electrons
E(X)               :      -62.527530169227 Eh       
E(C)               :       -2.460488302476 Eh       
E(XC)              :      -64.988018471702 Eh       
DFET-embed. en.    :        0.000000000000 Eh       
CPCM Solvation Model Properties:
Surface-charge          :            0.94746954
Charge-correction       :           -0.00753719 Eh              -0.20510 eV
Free-energy (cav+disp)  :            0.00266405 Eh               0.07249 eV

---------------
SCF CONVERGENCE
---------------

  Last Energy change         ...   -2.0928e-07  Tolerance :   1.0000e-06
  Last MAX-Density change    ...    9.8010e-05  Tolerance :   1.0000e-05
  Last RMS-Density change    ...    2.0034e-06  Tolerance :   1.0000e-06
  Last Orbital Gradient      ...    4.3182e-06  Tolerance :   5.0000e-05
  Last Orbital Rotation      ...    2.2800e-05  Tolerance :   5.0000e-05

             **** THE GBW FILE WAS UPDATED (/lustre/hpc/kemi/ree/PhD/git/ReactivityQM/calculations/R03/reac01prodE01/conf07/gfn1/orca_calc.gbw) ****
             **** DENSITY /lustre/hpc/kemi/ree/PhD/git/ReactivityQM/calculations/R03/reac01prodE01/conf07/gfn1/orca_calc.scfp WAS UPDATED ****
             **** ENERGY FILE WAS UPDATED (/lustre/hpc/kemi/ree/PhD/git/ReactivityQM/calculations/R03/reac01prodE01/conf07/gfn1/orca_calc.en.tmp) ****
             **** THE GBW FILE WAS UPDATED (/lustre/hpc/kemi/ree/PhD/git/ReactivityQM/calculations/R03/reac01prodE01/conf07/gfn1/orca_calc.gbw) ****
             **** DENSITY /lustre/hpc/kemi/ree/PhD/git/ReactivityQM/calculations/R03/reac01prodE01/conf07/gfn1/orca_calc.scfp WAS UPDATED ****
----------------
ORBITAL ENERGIES
----------------

  NO   OCC          E(Eh)            E(eV) 
   0   2.0000     -24.451068      -665.3474 
   1   2.0000     -14.119581      -384.2133 
   2   2.0000     -10.036226      -273.0996 
   3   2.0000     -10.025223      -272.8002 
   4   2.0000     -10.021183      -272.6902 
   5   2.0000     -10.001326      -272.1499 
   6   2.0000     -10.000721      -272.1334 
   7   2.0000      -9.992696      -271.9151 
   8   2.0000      -9.979871      -271.5661 
   9   2.0000      -9.978864      -271.5387 
  10   2.0000      -1.127865       -30.6908 
  11   2.0000      -0.830534       -22.6000 
  12   2.0000      -0.771717       -20.9995 
  13   2.0000      -0.706149       -19.2153 
  14   2.0000      -0.677402       -18.4331 
  15   2.0000      -0.608877       -16.5684 
  16   2.0000      -0.590359       -16.0645 
  17   2.0000      -0.537500       -14.6261 
  18   2.0000      -0.516186       -14.0461 
  19   2.0000      -0.461666       -12.5626 
  20   2.0000      -0.438324       -11.9274 
  21   2.0000      -0.415052       -11.2941 
  22   2.0000      -0.411958       -11.2099 
  23   2.0000      -0.388272       -10.5654 
  24   2.0000      -0.379758       -10.3337 
  25   2.0000      -0.364728        -9.9248 
  26   2.0000      -0.355940        -9.6856 
  27   2.0000      -0.348176        -9.4744 
  28   2.0000      -0.346798        -9.4369 
  29   2.0000      -0.331361        -9.0168 
  30   2.0000      -0.303736        -8.2651 
  31   2.0000      -0.302685        -8.2365 
  32   2.0000      -0.274872        -7.4796 
  33   2.0000      -0.253238        -6.8909 
  34   2.0000      -0.252364        -6.8672 
  35   2.0000      -0.208088        -5.6624 
  36   2.0000      -0.196665        -5.3515 
  37   2.0000      -0.085551        -2.3280 
  38   0.0000       0.003095         0.0842 
  39   0.0000       0.086747         2.3605 
  40   0.0000       0.089663         2.4399 
  41   0.0000       0.101709         2.7676 
  42   0.0000       0.117030         3.1846 
  43   0.0000       0.126561         3.4439 
  44   0.0000       0.128802         3.5049 
  45   0.0000       0.150334         4.0908 
  46   0.0000       0.157025         4.2729 
  47   0.0000       0.160264         4.3610 
  48   0.0000       0.168091         4.5740 
  49   0.0000       0.168524         4.5858 
  50   0.0000       0.180914         4.9229 
  51   0.0000       0.188870         5.1394 
  52   0.0000       0.203018         5.5244 
  53   0.0000       0.210886         5.7385 
  54   0.0000       0.215734         5.8704 
  55   0.0000       0.218372         5.9422 
  56   0.0000       0.228966         6.2305 
  57   0.0000       0.240501         6.5444 
  58   0.0000       0.251040         6.8311 
  59   0.0000       0.259445         7.0598 
  60   0.0000       0.261751         7.1226 
  61   0.0000       0.273297         7.4368 
  62   0.0000       0.283793         7.7224 
  63   0.0000       0.302953         8.2438 
  64   0.0000       0.320226         8.7138 
  65   0.0000       0.323039         8.7903 
  66   0.0000       0.324193         8.8217 
  67   0.0000       0.336053         9.1445 
  68   0.0000       0.341810         9.3011 
  69   0.0000       0.345759         9.4086 
  70   0.0000       0.352834         9.6011 
  71   0.0000       0.361098         9.8260 
  72   0.0000       0.366038         9.9604 
  73   0.0000       0.384641        10.4666 
  74   0.0000       0.400473        10.8974 
  75   0.0000       0.412187        11.2162 
  76   0.0000       0.413514        11.2523 
  77   0.0000       0.429551        11.6887 
  78   0.0000       0.450912        12.2699 
  79   0.0000       0.457692        12.4544 
  80   0.0000       0.469476        12.7751 
  81   0.0000       0.475836        12.9481 
  82   0.0000       0.507122        13.7995 
  83   0.0000       0.511108        13.9080 
  84   0.0000       0.530546        14.4369 
  85   0.0000       0.538329        14.6487 
  86   0.0000       0.553660        15.0658 
  87   0.0000       0.577205        15.7066 
  88   0.0000       0.581572        15.8254 
  89   0.0000       0.591253        16.0888 
  90   0.0000       0.600425        16.3384 
  91   0.0000       0.612945        16.6791 
  92   0.0000       0.619334        16.8529 
  93   0.0000       0.641659        17.4604 
  94   0.0000       0.657829        17.9005 
  95   0.0000       0.680440        18.5157 
  96   0.0000       0.688984        18.7482 
  97   0.0000       0.697478        18.9793 
  98   0.0000       0.705549        19.1990 
  99   0.0000       0.718709        19.5571 
 100   0.0000       0.742894        20.2152 
 101   0.0000       0.778197        21.1758 
 102   0.0000       0.796342        21.6696 
 103   0.0000       0.801788        21.8178 
 104   0.0000       0.875251        23.8168 
 105   0.0000       0.883498        24.0412 
 106   0.0000       0.900114        24.4934 
 107   0.0000       0.942727        25.6529 
 108   0.0000       1.015814        27.6417 
 109   0.0000       1.034698        28.1556 
 110   0.0000       1.083990        29.4969 
 111   0.0000       1.087335        29.5879 
 112   0.0000       1.109305        30.1857 
 113   0.0000       1.125936        30.6383 
 114   0.0000       1.132807        30.8252 
 115   0.0000       1.154512        31.4159 
 116   0.0000       1.165581        31.7171 
 117   0.0000       1.169332        31.8191 
 118   0.0000       1.209332        32.9076 
 119   0.0000       1.249608        34.0036 
 120   0.0000       1.290562        35.1180 
 121   0.0000       1.309866        35.6433 
 122   0.0000       1.322317        35.9821 
 123   0.0000       1.327126        36.1129 
 124   0.0000       1.355111        36.8744 
 125   0.0000       1.366831        37.1934 
 126   0.0000       1.368077        37.2273 
 127   0.0000       1.374452        37.4007 
 128   0.0000       1.397747        38.0346 
 129   0.0000       1.406866        38.2828 
 130   0.0000       1.412233        38.4288 
 131   0.0000       1.453181        39.5431 
 132   0.0000       1.458152        39.6783 
 133   0.0000       1.478448        40.2306 
 134   0.0000       1.481821        40.3224 
 135   0.0000       1.488828        40.5131 
 136   0.0000       1.495740        40.7012 
 137   0.0000       1.516063        41.2542 
 138   0.0000       1.518721        41.3265 
 139   0.0000       1.535943        41.7951 
 140   0.0000       1.537346        41.8333 
 141   0.0000       1.554737        42.3065 
 142   0.0000       1.557541        42.3829 
 143   0.0000       1.588785        43.2330 
 144   0.0000       1.594499        43.3885 
 145   0.0000       1.608511        43.7698 
 146   0.0000       1.611338        43.8467 
 147   0.0000       1.641153        44.6580 
 148   0.0000       1.645187        44.7678 
 149   0.0000       1.654764        45.0284 
 150   0.0000       1.695563        46.1386 
 151   0.0000       1.705916        46.4203 
 152   0.0000       1.728199        47.0267 
 153   0.0000       1.793755        48.8106 
 154   0.0000       1.844428        50.1894 
 155   0.0000       1.886510        51.3345 
 156   0.0000       1.923309        52.3359 
 157   0.0000       1.933423        52.6111 
 158   0.0000       1.940789        52.8116 
 159   0.0000       1.960642        53.3518 
 160   0.0000       1.969200        53.5847 
 161   0.0000       1.997430        54.3528 
 162   0.0000       2.012193        54.7546 
 163   0.0000       2.050787        55.8048 
 164   0.0000       2.055318        55.9280 
 165   0.0000       2.060172        56.0601 
 166   0.0000       2.064048        56.1656 
 167   0.0000       2.075742        56.4838 
 168   0.0000       2.088484        56.8305 
 169   0.0000       2.105925        57.3051 
 170   0.0000       2.160693        58.7954 
 171   0.0000       2.163499        58.8718 
 172   0.0000       2.170223        59.0548 
 173   0.0000       2.176031        59.2128 
 174   0.0000       2.206246        60.0350 
 175   0.0000       2.218993        60.3819 
 176   0.0000       2.231765        60.7294 
 177   0.0000       2.267568        61.7037 
 178   0.0000       2.291003        62.3414 
 179   0.0000       2.296603        62.4937 
 180   0.0000       2.300282        62.5938 
 181   0.0000       2.317456        63.0612 
 182   0.0000       2.342188        63.7342 
 183   0.0000       2.349804        63.9414 
 184   0.0000       2.358840        64.1873 
 185   0.0000       2.370507        64.5048 
 186   0.0000       2.395048        65.1726 
 187   0.0000       2.397421        65.2372 
 188   0.0000       2.431878        66.1748 
 189   0.0000       2.434873        66.2563 
 190   0.0000       2.451475        66.7080 
 191   0.0000       2.496236        67.9260 
 192   0.0000       2.505509        68.1784 
 193   0.0000       2.523581        68.6701 
 194   0.0000       2.574340        70.0514 
 195   0.0000       2.576511        70.1104 
 196   0.0000       2.592065        70.5337 
 197   0.0000       2.608577        70.9830 
 198   0.0000       2.612348        71.0856 
 199   0.0000       2.662567        72.4521 
 200   0.0000       2.673217        72.7419 
 201   0.0000       2.699239        73.4500 
 202   0.0000       2.710938        73.7684 
 203   0.0000       2.725009        74.1513 
 204   0.0000       2.758776        75.0701 
 205   0.0000       2.773094        75.4597 
 206   0.0000       2.785663        75.8017 
 207   0.0000       2.815007        76.6002 
 208   0.0000       2.829516        76.9951 
 209   0.0000       2.879516        78.3556 
 210   0.0000       2.898442        78.8706 
 211   0.0000       2.916617        79.3652 
 212   0.0000       2.950226        80.2797 
 213   0.0000       2.962016        80.6006 
 214   0.0000       3.052245        83.0558 
 215   0.0000       3.095879        84.2432 
 216   0.0000       3.153232        85.8038 
 217   0.0000       3.162844        86.0654 
 218   0.0000       3.185638        86.6856 
 219   0.0000       3.240743        88.1851 
 220   0.0000       3.280308        89.2617 
 221   0.0000       3.289315        89.5068 
 222   0.0000       3.294819        89.6566 
 223   0.0000       3.347565        91.0919 
 224   0.0000       3.363132        91.5155 
 225   0.0000       3.397220        92.4430 
 226   0.0000       3.402076        92.5752 
 227   0.0000       3.410215        92.7967 
 228   0.0000       3.435941        93.4967 
 229   0.0000       3.469552        94.4113 
 230   0.0000       3.485477        94.8446 
 231   0.0000       3.543402        96.4209 
 232   0.0000       3.561388        96.9103 
 233   0.0000       3.569052        97.1188 
 234   0.0000       3.610125        98.2365 
 235   0.0000       3.617372        98.4337 
 236   0.0000       3.650229        99.3278 
 237   0.0000       3.679064       100.1124 
 238   0.0000       3.725923       101.3875 
 239   0.0000       3.764736       102.4437 
 240   0.0000       3.832238       104.2805 
 241   0.0000       4.110204       111.8443 
 242   0.0000       4.153050       113.0102 
 243   0.0000       4.377187       119.1093 
 244   0.0000       4.490311       122.1876 
 245   0.0000      21.633496       588.6773 
 246   0.0000      21.958192       597.5128 
 247   0.0000      22.057985       600.2283 
 248   0.0000      22.090035       601.1004 
 249   0.0000      22.125817       602.0741 
 250   0.0000      22.241853       605.2316 
 251   0.0000      22.305215       606.9558 
 252   0.0000      22.379294       608.9716 
 253   0.0000      31.924755       868.7168 
 254   0.0000      57.155294      1555.2746 

                    ********************************
                    * MULLIKEN POPULATION ANALYSIS *
                    ********************************

-----------------------
MULLIKEN ATOMIC CHARGES
-----------------------
   0 C :   -0.554822
   1 C :    0.647754
   2 C :   -0.340084
   3 N :   -0.637969
   4 C :   -0.711855
   5 C :   -0.265297
   6 C :    0.155009
   7 F :   -0.316791
   8 C :   -0.272899
   9 C :   -0.691399
  10 H :    0.158840
  11 H :    0.152827
  12 H :    0.150804
  13 H :    0.153005
  14 H :    0.137224
  15 H :    0.285636
  16 H :    0.276203
  17 H :    0.173136
  18 H :    0.166057
  19 H :    0.166169
  20 H :    0.168450
Sum of atomic charges:   -1.0000000

--------------------------------
MULLIKEN REDUCED ORBITAL CHARGES
--------------------------------
  0 C s       :     3.360778  s :     3.360778
      pz      :     1.082814  p :     3.166683
      px      :     1.115444
      py      :     0.968424
      dz2     :     0.005343  d :     0.027362
      dxz     :     0.004601
      dyz     :     0.005343
      dx2y2   :     0.005388
      dxy     :     0.006685
  1 C s       :     2.680214  s :     2.680214
      pz      :     0.913763  p :     2.611876
      px      :     0.889467
      py      :     0.808646
      dz2     :     0.011371  d :     0.060155
      dxz     :     0.011766
      dyz     :     0.010452
      dx2y2   :     0.016527
      dxy     :     0.010038
  2 C s       :     3.376521  s :     3.376521
      pz      :     1.086034  p :     2.913761
      px      :     0.992902
      py      :     0.834824
      dz2     :     0.007390  d :     0.049802
      dxz     :     0.008713
      dyz     :     0.011054
      dx2y2   :     0.012908
      dxy     :     0.009736
  3 N s       :     3.542285  s :     3.542285
      pz      :     1.597238  p :     4.051029
      px      :     1.324852
      py      :     1.128939
      dz2     :     0.005047  d :     0.044655
      dxz     :     0.005144
      dyz     :     0.012749
      dx2y2   :     0.012136
      dxy     :     0.009579
  4 C s       :     3.380997  s :     3.380997
      pz      :     1.101080  p :     3.296052
      px      :     1.005556
      py      :     1.189415
      dz2     :     0.007963  d :     0.034806
      dxz     :     0.009315
      dyz     :     0.004219
      dx2y2   :     0.006775
      dxy     :     0.006534
  5 C s       :     3.199325  s :     3.199325
      pz      :     0.965382  p :     3.022648
      px      :     1.010020
      py      :     1.047246
      dz2     :     0.008826  d :     0.043324
      dxz     :     0.011010
      dyz     :     0.008740
      dx2y2   :     0.006820
      dxy     :     0.007929
  6 C s       :     3.101284  s :     3.101284
      pz      :     0.839851  p :     2.673989
      px      :     0.735863
      py      :     1.098275
      dz2     :     0.015613  d :     0.069717
      dxz     :     0.018847
      dyz     :     0.010769
      dx2y2   :     0.012056
      dxy     :     0.012433
  7 F s       :     3.914980  s :     3.914980
      pz      :     1.937776  p :     5.384871
      px      :     1.597126
      py      :     1.849969
      dz2     :     0.002325  d :     0.016940
      dxz     :     0.004498
      dyz     :     0.001795
      dx2y2   :     0.004459
      dxy     :     0.003863
  8 C s       :     3.200761  s :     3.200761
      pz      :     1.001188  p :     3.028951
      px      :     1.005436
      py      :     1.022326
      dz2     :     0.006984  d :     0.043187
      dxz     :     0.012296
      dyz     :     0.005560
      dx2y2   :     0.011383
      dxy     :     0.006964
  9 C s       :     3.385571  s :     3.385571
      pz      :     1.040332  p :     3.270810
      px      :     1.011117
      py      :     1.219362
      dz2     :     0.007786  d :     0.035018
      dxz     :     0.010254
      dyz     :     0.005389
      dx2y2   :     0.005689
      dxy     :     0.005899
 10 H s       :     0.823049  s :     0.823049
      pz      :     0.003704  p :     0.018111
      px      :     0.009674
      py      :     0.004733
 11 H s       :     0.828954  s :     0.828954
      pz      :     0.009436  p :     0.018219
      px      :     0.005090
      py      :     0.003693
 12 H s       :     0.830995  s :     0.830995
      pz      :     0.006651  p :     0.018201
      px      :     0.005674
      py      :     0.005876
 13 H s       :     0.829536  s :     0.829536
      pz      :     0.007228  p :     0.017458
      px      :     0.005469
      py      :     0.004762
 14 H s       :     0.845504  s :     0.845504
      pz      :     0.008890  p :     0.017273
      px      :     0.005183
      py      :     0.003200
 15 H s       :     0.681850  s :     0.681850
      pz      :     0.014711  p :     0.032514
      px      :     0.009988
      py      :     0.007816
 16 H s       :     0.691327  s :     0.691327
      pz      :     0.008855  p :     0.032470
      px      :     0.016999
      py      :     0.006616
 17 H s       :     0.806375  s :     0.806375
      pz      :     0.010096  p :     0.020489
      px      :     0.004967
      py      :     0.005426
 18 H s       :     0.814594  s :     0.814594
      pz      :     0.007709  p :     0.019349
      px      :     0.005459
      py      :     0.006181
 19 H s       :     0.814507  s :     0.814507
      pz      :     0.010392  p :     0.019324
      px      :     0.004865
      py      :     0.004067
 20 H s       :     0.811120  s :     0.811120
      pz      :     0.007912  p :     0.020430
      px      :     0.005483
      py      :     0.007035


                     *******************************
                     * LOEWDIN POPULATION ANALYSIS *
                     *******************************

----------------------
LOEWDIN ATOMIC CHARGES
----------------------
   0 C :   -0.440542
   1 C :   -0.144957
   2 C :   -0.081685
   3 N :   -0.775655
   4 C :   -0.341276
   5 C :   -0.214870
   6 C :    0.007585
   7 F :   -0.395713
   8 C :   -0.217370
   9 C :   -0.330896
  10 H :    0.152579
  11 H :    0.152502
  12 H :    0.153081
  13 H :    0.172218
  14 H :    0.154076
  15 H :    0.242586
  16 H :    0.239838
  17 H :    0.159978
  18 H :    0.174370
  19 H :    0.174263
  20 H :    0.159889

-------------------------------
LOEWDIN REDUCED ORBITAL CHARGES
-------------------------------
  0 C s       :     2.998679  s :     2.998679
      pz      :     1.144257  p :     3.379464
      px      :     1.150894
      py      :     1.084313
      dz2     :     0.012671  d :     0.062400
      dxz     :     0.011417
      dyz     :     0.011497
      dx2y2   :     0.012468
      dxy     :     0.014346
  1 C s       :     2.867910  s :     2.867910
      pz      :     1.080068  p :     3.161727
      px      :     1.039835
      py      :     1.041824
      dz2     :     0.021828  d :     0.115320
      dxz     :     0.022023
      dyz     :     0.019382
      dx2y2   :     0.034446
      dxy     :     0.017641
  2 C s       :     2.883861  s :     2.883861
      pz      :     1.086994  p :     3.089626
      px      :     1.047680
      py      :     0.954952
      dz2     :     0.016526  d :     0.108198
      dxz     :     0.018630
      dyz     :     0.025139
      dx2y2   :     0.026931
      dxy     :     0.020972
  3 N s       :     3.253501  s :     3.253501
      pz      :     1.616140  p :     4.196276
      px      :     1.337455
      py      :     1.242681
      dz2     :     0.037657  d :     0.325878
      dxz     :     0.022514
      dyz     :     0.090834
      dx2y2   :     0.082298
      dxy     :     0.092575
  4 C s       :     2.918026  s :     2.918026
      pz      :     1.082117  p :     3.349686
      px      :     1.102512
      py      :     1.165056
      dz2     :     0.017986  d :     0.073564
      dxz     :     0.020801
      dyz     :     0.008820
      dx2y2   :     0.012611
      dxy     :     0.013345
  5 C s       :     2.904115  s :     2.904115
      pz      :     1.074836  p :     3.219329
      px      :     1.088816
      py      :     1.055678
      dz2     :     0.019477  d :     0.091426
      dxz     :     0.024403
      dyz     :     0.018317
      dx2y2   :     0.013195
      dxy     :     0.016035
  6 C s       :     2.799267  s :     2.799267
      pz      :     1.083018  p :     3.040569
      px      :     0.855055
      py      :     1.102496
      dz2     :     0.033524  d :     0.152579
      dxz     :     0.042624
      dyz     :     0.021752
      dx2y2   :     0.026076
      dxy     :     0.028604
  7 F s       :     3.758102  s :     3.758102
      pz      :     1.926705  p :     5.476509
      px      :     1.672738
      py      :     1.877066
      dz2     :     0.015635  d :     0.161103
      dxz     :     0.033796
      dyz     :     0.012784
      dx2y2   :     0.053869
      dxy     :     0.045018
  8 C s       :     2.904885  s :     2.904885
      pz      :     1.084629  p :     3.221472
      px      :     1.088163
      py      :     1.048680
      dz2     :     0.016820  d :     0.091013
      dxz     :     0.026864
      dyz     :     0.011222
      dx2y2   :     0.022141
      dxy     :     0.013967
  9 C s       :     2.918871  s :     2.918871
      pz      :     1.067864  p :     3.337958
      px      :     1.105209
      py      :     1.164885
      dz2     :     0.016798  d :     0.074067
      dxz     :     0.023507
      dyz     :     0.011485
      dx2y2   :     0.010651
      dxy     :     0.011626
 10 H s       :     0.803457  s :     0.803457
      pz      :     0.008095  p :     0.043964
      px      :     0.024375
      py      :     0.011494
 11 H s       :     0.803116  s :     0.803116
      pz      :     0.023832  p :     0.044382
      px      :     0.011873
      py      :     0.008677
 12 H s       :     0.802677  s :     0.802677
      pz      :     0.016238  p :     0.044242
      px      :     0.013482
      py      :     0.014521
 13 H s       :     0.787168  s :     0.787168
      pz      :     0.017676  p :     0.040614
      px      :     0.013086
      py      :     0.009852
 14 H s       :     0.804385  s :     0.804385
      pz      :     0.021254  p :     0.041539
      px      :     0.012712
      py      :     0.007573
 15 H s       :     0.669980  s :     0.669980
      pz      :     0.041269  p :     0.087434
      px      :     0.024960
      py      :     0.021205
 16 H s       :     0.672783  s :     0.672783
      pz      :     0.023717  p :     0.087379
      px      :     0.046001
      py      :     0.017661
 17 H s       :     0.790593  s :     0.790593
      pz      :     0.024439  p :     0.049430
      px      :     0.011523
      py      :     0.013468
 18 H s       :     0.781515  s :     0.781515
      pz      :     0.017954  p :     0.044115
      px      :     0.012330
      py      :     0.013830
 19 H s       :     0.781654  s :     0.781654
      pz      :     0.024435  p :     0.044083
      px      :     0.010919
      py      :     0.008729
 20 H s       :     0.791382  s :     0.791382
      pz      :     0.019126  p :     0.048730
      px      :     0.012633
      py      :     0.016970


                      *****************************
                      * MAYER POPULATION ANALYSIS *
                      *****************************

  NA   - Mulliken gross atomic population
  ZA   - Total nuclear charge
  QA   - Mulliken gross atomic charge
  VA   - Mayer's total valence
  BVA  - Mayer's bonded valence
  FA   - Mayer's free valence

  ATOM       NA         ZA         QA         VA         BVA        FA
  0 C      6.5548     6.0000    -0.5548     3.7040     3.7040    -0.0000
  1 C      5.3522     6.0000     0.6478     2.8430     2.8430    -0.0000
  2 C      6.3401     6.0000    -0.3401     3.8315     3.8315    -0.0000
  3 N      7.6380     7.0000    -0.6380     2.6624     2.6624    -0.0000
  4 C      6.7119     6.0000    -0.7119     3.5972     3.5972     0.0000
  5 C      6.2653     6.0000    -0.2653     3.7005     3.7005     0.0000
  6 C      5.8450     6.0000     0.1550     3.5625     3.5625     0.0000
  7 F      9.3168     9.0000    -0.3168     0.8606     0.8606    -0.0000
  8 C      6.2729     6.0000    -0.2729     3.7089     3.7089     0.0000
  9 C      6.6914     6.0000    -0.6914     3.6838     3.6838    -0.0000
 10 H      0.8412     1.0000     0.1588     0.9651     0.9651    -0.0000
 11 H      0.8472     1.0000     0.1528     0.9656     0.9656     0.0000
 12 H      0.8492     1.0000     0.1508     0.9666     0.9666     0.0000
 13 H      0.8470     1.0000     0.1530     0.9575     0.9575    -0.0000
 14 H      0.8628     1.0000     0.1372     0.9584     0.9584     0.0000
 15 H      0.7144     1.0000     0.2856     0.9163     0.9163    -0.0000
 16 H      0.7238     1.0000     0.2762     0.9145     0.9145    -0.0000
 17 H      0.8269     1.0000     0.1731     0.9672     0.9672     0.0000
 18 H      0.8339     1.0000     0.1661     0.9646     0.9646    -0.0000
 19 H      0.8338     1.0000     0.1662     0.9645     0.9645     0.0000
 20 H      0.8316     1.0000     0.1684     0.9690     0.9690    -0.0000

  Mayer bond orders larger than 0.100000
B(  0-C ,  1-C ) :   0.8201 B(  0-C , 10-H ) :   0.9878 B(  0-C , 11-H ) :   0.9809 
B(  0-C , 12-H ) :   0.9784 B(  1-C ,  2-C ) :   0.8262 B(  1-C ,  3-N ) :  -0.1345 
B(  1-C ,  4-C ) :   0.8088 B(  1-C ,  9-C ) :   0.7994 B(  2-C ,  3-N ) :   0.9536 
B(  2-C , 13-H ) :   0.9864 B(  2-C , 14-H ) :   0.9898 B(  3-N , 15-H ) :   0.8907 
B(  3-N , 16-H ) :   0.9032 B(  4-C ,  5-C ) :   1.4680 B(  4-C ,  9-C ) :   0.2193 
B(  4-C , 17-H ) :   0.9633 B(  5-C ,  6-C ) :   1.3388 B(  5-C , 18-H ) :   0.9457 
B(  6-C ,  7-F ) :   0.8228 B(  6-C ,  8-C ) :   1.3158 B(  8-C ,  9-C ) :   1.5083 
B(  8-C , 19-H ) :   0.9439 B(  9-C , 20-H ) :   0.9643 

-------
TIMINGS
-------

Total SCF time: 0 days 0 hours 0 min 19 sec 

Total time                  ....      19.751 sec
Sum of individual times     ....      19.333 sec  ( 97.9%)

Fock matrix formation       ....      17.893 sec  ( 90.6%)
  Split-RI-J                ....       1.945 sec  ( 10.9% of F)
  XC integration            ....      10.169 sec  ( 56.8% of F)
    Basis function eval.    ....       1.686 sec  ( 16.6% of XC)
    Density eval.           ....       3.404 sec  ( 33.5% of XC)
    XC-Functional eval.     ....       1.472 sec  ( 14.5% of XC)
    XC-Potential eval.      ....       3.255 sec  ( 32.0% of XC)
Diagonalization             ....       0.111 sec  (  0.6%)
Density matrix formation    ....       0.005 sec  (  0.0%)
Population analysis         ....       0.034 sec  (  0.2%)
Initial guess               ....       0.293 sec  (  1.5%)
Orbital Transformation      ....       0.000 sec  (  0.0%)
Orbital Orthonormalization  ....       0.000 sec  (  0.0%)
DIIS solution               ....       0.067 sec  (  0.3%)
SOSCF solution              ....       0.056 sec  (  0.3%)
Grid generation             ....       0.874 sec  (  4.4%)

Maximum memory used throughout the entire SCF-calculation: 47.2 MB


-------------------------------------------------------------------------------
                          DFT DISPERSION CORRECTION                            
                                                                               
                                 DFTD4 V2.5                                    
-------------------------------------------------------------------------------
The R2SCAN3C composite method is recognized
Using three-body term ABC
Active option DFTDOPT                   ...         5   

Starting D4
-------------------------   ----------------
Dispersion correction           -0.007644108
-------------------------   ----------------

------------------   -----------------
gCP correction             0.010405967
------------------   -----------------

-------------------------   --------------------
FINAL SINGLE POINT ENERGY      -466.015390402499
-------------------------   --------------------


                            ***************************************
                            *     ORCA property calculations      *
                            ***************************************

                                    ---------------------
                                    Active property flags
                                    ---------------------
   (+) Dipole Moment


------------------------------------------------------------------------------
                       ORCA ELECTRIC PROPERTIES CALCULATION
------------------------------------------------------------------------------

Dipole Moment Calculation                       ... on
Quadrupole Moment Calculation                   ... off
Polarizability Calculation                      ... off
GBWName                                         ... /lustre/hpc/kemi/ree/PhD/git/ReactivityQM/calculations/R03/reac01prodE01/conf07/gfn1/orca_calc.gbw
Electron density                                ... /lustre/hpc/kemi/ree/PhD/git/ReactivityQM/calculations/R03/reac01prodE01/conf07/gfn1/orca_calc.scfp
The origin for moment calculation is the CENTER OF MASS  = ( 1.115467, -0.565256  0.297278)

-------------
DIPOLE MOMENT
-------------
                                X             Y             Z
Electronic contribution:     12.22967      -6.24459       2.74285
Nuclear contribution   :    -14.05550       6.62236      -3.52883
                        -----------------------------------------
Total Dipole Moment    :     -1.82583       0.37777      -0.78598
                        -----------------------------------------
Magnitude (a.u.)       :      2.02340
Magnitude (Debye)      :      5.14306



--------------------
Rotational spectrum 
--------------------
 
Rotational constants in cm-1:     0.074299     0.030325     0.028508 
Rotational constants in MHz :  2227.429810   909.114286   854.643225 

 Dipole components along the rotational axes: 
x,y,z [a.u.] :    -1.950031    -0.151048     0.518358 
x,y,z [Debye]:    -4.956585    -0.383935     1.317561 

 

Timings for individual modules:

Sum of individual times         ...       20.447 sec (=   0.341 min)
GTO integral calculation        ...        0.475 sec (=   0.008 min)   2.3 %
SCF iterations                  ...       19.972 sec (=   0.333 min)  97.7 %
                             ****ORCA TERMINATED NORMALLY****
TOTAL RUN TIME: 0 days 0 hours 0 minutes 21 seconds 147 msec
