42
 energy: -83.620004868455 gnorm: 0.000669146379 xtb: 6.5.1 (579679a)
C            7.00891050675944       -0.30906818843363        0.82137598101878
O            5.70635399299043        0.24978646277472        0.94188095207178
C            4.76583905145070       -0.25018815536991        0.11549172132273
O            5.02880648617050       -1.12914820058164       -0.68515626725493
C            3.43385446861936        0.36616319408806        0.28376599636918
N            2.47748862990780       -0.10390121095228       -0.57587192246048
C            1.26195843800893        0.39144950094345       -0.48104925500218
C            0.20665694556622       -0.11048589828495       -1.46793320649469
C           -0.10461689880832        1.06482652519162       -2.42088635494125
C            0.74600209429618       -1.31218999737228       -2.25361228775238
N           -0.95882316273335       -0.50291674687959       -0.67615555658411
C           -2.21089883467305       -0.73701915742264       -1.34927812382558
O           -2.22989481208029       -1.10712214080372       -2.56452867829452
C           -3.30174496587902       -0.78438294829806       -0.50494049433634
O           -3.29703617769962       -0.15497377804873        0.78554308251806
C           -4.55304674672606        0.25593298265999        0.96730633465920
C           -4.88956273132025        0.97779157066360        2.22842867459977
N           -5.40060617686800       -0.00546481479556        0.04499783199302
N           -4.68809706168676       -0.72397598088161       -0.98825638285178
C           -5.29860844405740       -2.06077021610546       -1.07751623305432
N            0.84292470100533        1.32689351415807        0.37902854578792
C            1.72835888032530        1.84458390311368        1.25427833719700
O            1.45964198369961        2.72818213677182        2.09962207697763
C            3.09952462375230        1.33061709240278        1.19889909984743
O            3.94606406643351        1.88106236272539        2.10355596640632
H            7.37822546696045       -0.20728563379047       -0.20361444226777
H            6.99801217991231       -1.36957803753812        1.09040557706799
H            7.65444763847074        0.23990246152870        1.50492909461010
H           -0.48934326457886        1.90935102335687       -1.84817447785816
H           -0.84137094111750        0.77366172121952       -3.16899389277968
H            0.80808696895580        1.37564614795637       -2.93025009338636
H            1.67314435452239       -1.03997793638391       -2.75890440696450
H            0.02214051035134       -1.64194034589053       -2.99784946987940
H            0.95187146910742       -2.13742121023527       -1.57050423661637
H           -1.08139963749626        0.13772294094714        0.10818843544869
H           -5.95520047929667        1.19058239169840        2.25532860774342
H           -4.33351079090644        1.91301846609070        2.29188652436896
H           -4.62198660344543        0.36544888108241        3.08888939653459
H           -6.34954269259463       -1.94839347665020       -1.34165527659894
H           -4.78008806879845       -2.60954111998969       -1.86340416115605
H           -5.21664867752349       -2.60810296087751       -0.13219757969416
H            3.40371471104624        2.53122587621418        2.60126756352450
