      -----------------------------------------------------------      
     |                   =====================                   |     
     |                           x T B                           |     
     |                   =====================                   |     
     |                         S. Grimme                         |     
     |          Mulliken Center for Theoretical Chemistry        |     
     |                    University of Bonn                     |     
      -----------------------------------------------------------      

   * xtb version 6.5.1 (579679a) compiled by 'ehlert@majestix' on 2022-07-11

   xtb is free software: you can redistribute it and/or modify it under
   the terms of the GNU Lesser General Public License as published by
   the Free Software Foundation, either version 3 of the License, or
   (at your option) any later version.
   
   xtb is distributed in the hope that it will be useful,
   but WITHOUT ANY WARRANTY; without even the implied warranty of
   MERCHANTABILITY or FITNESS FOR A PARTICULAR PURPOSE.  See the
   GNU Lesser General Public License for more details.
   
   Cite this work as:
   * C. Bannwarth, E. Caldeweyher, S. Ehlert, A. Hansen, P. Pracht,
     J. Seibert, S. Spicher, S. Grimme, WIREs Comput. Mol. Sci., 2020, 11,
     e01493. DOI: 10.1002/wcms.1493
   
   for GFN2-xTB:
   * C. Bannwarth, S. Ehlert and S. Grimme., J. Chem. Theory Comput., 2019,
     15, 1652-1671. DOI: 10.1021/acs.jctc.8b01176
   for GFN1-xTB:
   * S. Grimme, C. Bannwarth, P. Shushkov, J. Chem. Theory Comput., 2017,
     13, 1989-2009. DOI: 10.1021/acs.jctc.7b00118
   for GFN0-xTB:
   * P. Pracht, E. Caldeweyher, S. Ehlert, S. Grimme, ChemRxiv, 2019, preprint.
     DOI: 10.26434/chemrxiv.8326202.v1
   for GFN-FF:
   * S. Spicher and S. Grimme, Angew. Chem. Int. Ed., 2020, 59, 15665-15673.
     DOI: 10.1002/anie.202004239
   
   for ALPB and GBSA implicit solvation:
   * S. Ehlert, M. Stahn, S. Spicher, S. Grimme, J. Chem. Theory Comput.,
     2021, 17, 4250-4261. DOI: 10.1021/acs.jctc.1c00471
   
   for DFT-D4:
   * E. Caldeweyher, C. Bannwarth and S. Grimme, J. Chem. Phys., 2017,
     147, 034112. DOI: 10.1063/1.4993215
   * E. Caldeweyher, S. Ehlert, A. Hansen, H. Neugebauer, S. Spicher,
     C. Bannwarth and S. Grimme, J. Chem. Phys., 2019, 150, 154122.
     DOI: 10.1063/1.5090222
   * E. Caldeweyher, J.-M. Mewes, S. Ehlert and S. Grimme, Phys. Chem. Chem. Phys.
     2020, 22, 8499-8512. DOI: 10.1039/D0CP00502A
   
   for sTDA-xTB:
   * S. Grimme and C. Bannwarth, J. Chem. Phys., 2016, 145, 054103.
     DOI: 10.1063/1.4959605
   
   in the mass-spec context:
   * V. Asgeirsson, C. Bauer and S. Grimme, Chem. Sci., 2017, 8, 4879.
     DOI: 10.1039/c7sc00601b
   * J. Koopman and S. Grimme, ACS Omega 2019, 4, 12, 15120-15133.
     DOI: 10.1021/acsomega.9b02011
   
   for metadynamics refer to:
   * S. Grimme, J. Chem. Theory Comput., 2019, 155, 2847-2862
     DOI: 10.1021/acs.jctc.9b00143
   
   for SPH calculations refer to:
   * S. Spicher and S. Grimme, J. Chem. Theory Comput., 2021, 17, 1701-1714
     DOI: 10.1021/acs.jctc.0c01306
   
   with help from (in alphabetical order)
   P. Atkinson, C. Bannwarth, F. Bohle, G. Brandenburg, E. Caldeweyher
   M. Checinski, S. Dohm, S. Ehlert, S. Ehrlich, I. Gerasimov, C. Hölzer
   A. Katbashev, J. Koopman, C. Lavigne, S. Lehtola, F. März, M. Müller,
   F. Musil, H. Neugebauer, J. Pisarek, C. Plett, P. Pracht, F. Pultar,
   J. Seibert, P. Shushkov, S. Spicher, M. Stahn, M. Steiner, T. Strunk,
   J. Stückrath, T. Rose, and J. Unsleber
   
 * started run on 2023/06/21 at 17:40:20.796     

           -------------------------------------------------
          |                Calculation Setup                |
           -------------------------------------------------

          program call               : /lustre/hpc/kemi/ree/PhD/git/ReactivityQM/dep/xtb-6.5.1/bin/xtb --gfn 1 /lustre/hpc/kemi/ree/PhD/git/ReactivityQM/calculations/R02oxygendeprot/reac02prodN01/conf05/R02oxygendeprot_reac02prodN01_conf05_gfn1.xyz --opt --vfukui --chrg 1 --uhf 0 --alpb DMSO
          hostname                   : node070
          coordinate file            : /lustre/hpc/kemi/ree/PhD/git/ReactivityQM/calculations/R02oxygendeprot/reac02prodN01/conf05/R02oxygendeprot_reac02prodN01_conf05_gfn1.xyz
          omp threads                :                     1

   ID    Z sym.   atoms
    1    6 C      1, 4
    2    8 O      2, 5
    3    5 B      3
    4    1 H      6-13

           -------------------------------------------------
          |                 G F N 1 - x T B                 |
           -------------------------------------------------

        Reference                      10.1021/acs.jctc.7b00118
      * Hamiltonian:
        H0-scaling (s, p, d)           1.850000    2.250000    2.000000
        zeta-weighting                 0.000000
      * Dispersion:
        s8                             2.400000
        a1                             0.630000
        a2                             5.000000
        s9                             0.000000
      * Repulsion:
        kExp                           1.500000
        rExp                           1.000000
      * Coulomb:
        alpha                          2.000000
        third order                    atomic
        anisotropic                    false
      * Halogen bond correction:
        rad-scale                      1.300000
        damping                        0.440000

      * Solvation model:               ALPB
        Solvent                        DMSO
        Parameter file                 internal GFN1-xTB/ALPB
        Dielectric constant                4.6680E+01
        Reference state                gsolv [1 M gas/solution]
        Free energy shift                  7.6243E-03 Eh       4.7843E+00 kcal/mol
        Temperature                        2.9815E+02 K
        Density                            1.1000E+00 kg/L
        Solvent mass                       7.8130E+01 g/mol
        Interaction kernel             P16
        Born radius scaling (c1)           1.7672E+00
        Born radii integrator          GBOBC
        Born offset                        0.0000E+00 a0       0.0000E+00 AA
        H-bond correction              true
        Ion screening                  false
        Surface tension                    1.0000E-05 Eh       1.5569E+01 dyn/cm
        Grid points                               230 per atom

          ...................................................
          :                      SETUP                      :
          :.................................................:
          :  # basis functions                  36          :
          :  # atomic orbitals                  36          :
          :  # shells                           26          :
          :  # electrons                        30          :
          :  # halogen bonds                     0          :
          :  max. iterations                   250          :
          :  Hamiltonian                  GFN1-xTB          :
          :  restarted?                      false          :
          :  GBSA solvation                   true          :
          :  PC potential                    false          :
          :  electronic temp.          300.0000000     K    :
          :  accuracy                    1.0000000          :
          :  -> integral cutoff          0.2500000E+02      :
          :  -> integral neglect         0.1000000E-07      :
          :  -> SCF convergence          0.1000000E-05 Eh   :
          :  -> wf. convergence          0.2000000E-04 e    :
          :  Broyden damping             0.4000000          :
          ...................................................

 iter      E             dE          RMSdq      gap      omega  full diag
   1    -19.1279537 -0.191280E+02  0.759E+00    8.66       0.0  T
   2    -19.2232437 -0.952900E-01  0.426E+00    7.48       1.0  T
   3    -19.2236923 -0.448642E-03  0.112E+00    7.06       1.0  T
   4    -19.2248605 -0.116821E-02  0.221E-01    7.30       1.0  T
   5    -19.2250343 -0.173791E-03  0.188E-01    7.14       1.0  T
   6    -19.2255233 -0.489030E-03  0.145E-02    7.23       1.9  T
   7    -19.2255234 -0.969913E-07  0.637E-03    7.22       4.4  T
   8    -19.2255240 -0.589678E-06  0.706E-04    7.23      39.3  T
   9    -19.2255240 -0.534044E-08  0.770E-05    7.23     360.1  T
  10    -19.2255240  0.236575E-10  0.557E-05    7.23     497.6  T

   *** convergence criteria satisfied after 10 iterations ***

         #    Occupation            Energy/Eh            Energy/eV
      -------------------------------------------------------------
         1        2.0000           -0.9032211             -24.5779
       ...           ...                  ...                  ...
         9        2.0000           -0.5934289             -16.1480
        10        2.0000           -0.5888315             -16.0229
        11        2.0000           -0.5751993             -15.6520
        12        2.0000           -0.5585085             -15.1978
        13        2.0000           -0.5447612             -14.8237
        14        2.0000           -0.5375084             -14.6263
        15        2.0000           -0.5255662             -14.3014 (HOMO)
        16                         -0.2599812              -7.0744 (LUMO)
        17                         -0.2057672              -5.5992
        18                         -0.1851957              -5.0394
        19                         -0.1570135              -4.2726
        20                         -0.1149730              -3.1286
       ...                                ...                  ...
        36                          0.5316214              14.4662
      -------------------------------------------------------------
                  HL-Gap            0.2655850 Eh            7.2269 eV
             Fermi-level           -0.3927737 Eh          -10.6879 eV

 SCC (total)                   0 d,  0 h,  0 min,  0.014 sec
 SCC setup                      ...        0 min,  0.001 sec (  4.231%)
 Dispersion                     ...        0 min,  0.000 sec (  0.443%)
 classical contributions        ...        0 min,  0.000 sec (  0.208%)
 integral evaluation            ...        0 min,  0.003 sec ( 23.823%)
 iterations                     ...        0 min,  0.003 sec ( 22.887%)
 molecular gradient             ...        0 min,  0.007 sec ( 46.530%)
 printout                       ...        0 min,  0.000 sec (  1.673%)

         :::::::::::::::::::::::::::::::::::::::::::::::::::::
         ::                     SUMMARY                     ::
         :::::::::::::::::::::::::::::::::::::::::::::::::::::
         :: total energy             -19.054374722554 Eh    ::
         :: total w/o Gsasa/hb       -19.037807925739 Eh    ::
         :: gradient norm              0.080981348603 Eh/a0 ::
         :: HOMO-LUMO gap              7.226935357742 eV    ::
         ::.................................................::
         :: SCC energy               -19.225524041754 Eh    ::
         :: -> electrostatic           0.169535504328 Eh    ::
         :: -> Gsolv                  -0.100753638639 Eh    ::
         ::    -> Gelec               -0.084186841824 Eh    ::
         ::    -> Gsasa               -0.010778040494 Eh    ::
         ::    -> Ghb                 -0.013413035326 Eh    ::
         ::    -> Gshift               0.007624279005 Eh    ::
         :: repulsion energy           0.174679028087 Eh    ::
         :: dispersion energy         -0.003529708888 Eh    ::
         :: halogen bond corr.         0.000000000000 Eh    ::
         :: add. restraining           0.000000000000 Eh    ::
         :: total charge               1.000000000000 e     ::
         :::::::::::::::::::::::::::::::::::::::::::::::::::::

      ----------------------------------------------------------- 
     |                   =====================                   |
     |                        A N C O P T                        |
     |                   =====================                   |
     |               Approximate Normal Coordinate               |
     |                Rational Function Optimizer                |
      ----------------------------------------------------------- 

          ...................................................
          :                      SETUP                      :
          :.................................................:
          :   optimization level            normal          :
          :   max. optcycles                   200          :
          :   ANC micro-cycles                  20          :
          :   degrees of freedom                33          :
          :.................................................:
          :   RF solver                   davidson          :
          :   write xtbopt.log                true          :
          :   linear?                        false          :
          :   energy convergence         0.5000000E-05 Eh   :
          :   grad. convergence          0.1000000E-02 Eh/α :
          :   maximium RF displ.         1.0000000          :
          :   Hlow (freq-cutoff)         0.1000000E-01      :
          :   Hmax (freq-cutoff)         5.0000000          :
          :   S6 in model hess.         20.0000000          :
          ...................................................

generating ANC from model Hessian ...
Using Lindh-Hessian (1995)
 Shifting diagonal of input Hessian by   7.059525398808841E-003
 Lowest  eigenvalues of input Hessian
    0.000000    0.000000    0.000000    0.000000    0.000000    0.000000
    0.010000    0.012984    0.013734    0.016720    0.027113    0.029592
    0.038372    0.045775    0.059156    0.072378    0.075725    0.080226
 Highest eigenvalues
    1.125160    1.131409    1.142261    1.335398    1.448990    1.797661
 

........................................................................
.............................. CYCLE    1 ..............................
........................................................................
   1    -19.2255240 -0.192255E+02  0.274E-05    7.23       0.0  T
   2    -19.2255240 -0.933298E-11  0.366E-06    7.23    7587.3  T
   3    -19.2255240 -0.195399E-12  0.146E-06    7.23   18957.5  T
     SCC iter.                  ...        0 min,  0.001 sec
     gradient                   ...        0 min,  0.006 sec
 * total energy  :   -19.0543747 Eh     change       -0.3646861E-10 Eh
   gradient norm :     0.0809822 Eh/α   predicted     0.0000000E+00 (-100.00%)
   displ. norm   :     0.3434312 α      lambda       -0.1203208E-01
   maximum displ.:     0.2770776 α      in ANC's #6, #12, #14, ...

........................................................................
.............................. CYCLE    2 ..............................
........................................................................
   1    -19.2471493 -0.192471E+02  0.836E-02    7.54       0.0  T
   2    -19.2472012 -0.519237E-04  0.367E-02    7.53       1.0  T
   3    -19.2472030 -0.181233E-05  0.190E-02    7.52       1.5  T
   4    -19.2472031 -0.517917E-07  0.324E-03    7.52       8.6  T
   5    -19.2472031 -0.444793E-07  0.652E-04    7.52      42.6  T
   6    -19.2472031 -0.135797E-08  0.135E-04    7.52     205.3  T
   7    -19.2472031 -0.348379E-10  0.411E-05    7.52     674.7  T
     SCC iter.                  ...        0 min,  0.002 sec
     gradient                   ...        0 min,  0.006 sec
 * total energy  :   -19.0631941 Eh     change       -0.8819364E-02 Eh
   gradient norm :     0.0369370 Eh/α   predicted    -0.6725605E-02 ( -23.74%)
   displ. norm   :     0.3308345 α      lambda       -0.4930953E-02
   maximum displ.:     0.3016058 α      in ANC's #6, #12, #21, ...

........................................................................
.............................. CYCLE    3 ..............................
........................................................................
   1    -19.2606098 -0.192606E+02  0.654E-02    7.77       0.0  T
   2    -19.2606511 -0.413581E-04  0.259E-02    7.77       1.1  T
   3    -19.2606525 -0.133216E-05  0.137E-02    7.76       2.0  T
   4    -19.2606525 -0.600106E-07  0.281E-03    7.76       9.9  T
   5    -19.2606525 -0.196231E-07  0.607E-04    7.76      45.7  T
   6    -19.2606525 -0.121406E-08  0.112E-04    7.76     248.1  T
   7    -19.2606525 -0.236078E-10  0.427E-05    7.76     648.9  T
     SCC iter.                  ...        0 min,  0.002 sec
     gradient                   ...        0 min,  0.007 sec
 * total energy  :   -19.0657740 Eh     change       -0.2579888E-02 Eh
   gradient norm :     0.0174265 Eh/α   predicted    -0.2735328E-02 (   6.03%)
   displ. norm   :     0.1123171 α      lambda       -0.5603571E-03
   maximum displ.:     0.1007580 α      in ANC's #6, #1, #7, ...

........................................................................
.............................. CYCLE    4 ..............................
........................................................................
   1    -19.2594601 -0.192595E+02  0.159E-02    7.76       0.0  T
   2    -19.2594610 -0.899120E-06  0.856E-03    7.77       3.2  T
   3    -19.2594610 -0.614074E-07  0.295E-03    7.77       9.4  T
   4    -19.2594610 -0.265586E-08  0.586E-04    7.77      47.3  T
   5    -19.2594610 -0.681631E-09  0.124E-04    7.77     222.9  T
   6    -19.2594610 -0.548717E-10  0.413E-05    7.77     671.3  T
     SCC iter.                  ...        0 min,  0.002 sec
     gradient                   ...        0 min,  0.006 sec
 * total energy  :   -19.0662107 Eh     change       -0.4366912E-03 Eh
   gradient norm :     0.0111788 Eh/α   predicted    -0.2837145E-03 ( -35.03%)
   displ. norm   :     0.1735736 α      lambda       -0.6169377E-03
   maximum displ.:     0.1363033 α      in ANC's #6, #1, #7, ...

........................................................................
.............................. CYCLE    5 ..............................
........................................................................
   1    -19.2586571 -0.192587E+02  0.310E-02    7.76       0.0  T
   2    -19.2586637 -0.656930E-05  0.141E-02    7.77       2.0  T
   3    -19.2586639 -0.203468E-06  0.628E-03    7.77       4.4  T
   4    -19.2586639 -0.119882E-07  0.117E-03    7.77      23.7  T
   5    -19.2586639 -0.226487E-08  0.309E-04    7.77      89.8  T
   6    -19.2586639 -0.337028E-09  0.687E-05    7.77     403.5  T
   7    -19.2586639 -0.629186E-11  0.143E-05    7.77    1932.8  T
     SCC iter.                  ...        0 min,  0.002 sec
     gradient                   ...        0 min,  0.006 sec
 * total energy  :   -19.0665849 Eh     change       -0.3742257E-03 Eh
   gradient norm :     0.0072138 Eh/α   predicted    -0.3177639E-03 ( -15.09%)
   displ. norm   :     0.0549027 α      lambda       -0.1147833E-03
   maximum displ.:     0.0339218 α      in ANC's #1, #6, #21, ...

........................................................................
.............................. CYCLE    6 ..............................
........................................................................
   1    -19.2593108 -0.192593E+02  0.136E-02    7.76       0.0  T
   2    -19.2593122 -0.149196E-05  0.511E-03    7.76       5.4  T
   3    -19.2593123 -0.276345E-07  0.234E-03    7.76      11.8  T
   4    -19.2593123 -0.133909E-08  0.438E-04    7.76      63.3  T
   5    -19.2593123 -0.274252E-09  0.103E-04    7.76     270.4  T
   6    -19.2593123 -0.346354E-10  0.190E-05    7.76    1460.2  T
     SCC iter.                  ...        0 min,  0.002 sec
     gradient                   ...        0 min,  0.006 sec
 * total energy  :   -19.0666663 Eh     change       -0.8139643E-04 Eh
   gradient norm :     0.0048245 Eh/α   predicted    -0.5756651E-04 ( -29.28%)
   displ. norm   :     0.0491204 α      lambda       -0.6749581E-04
   maximum displ.:     0.0351233 α      in ANC's #1, #6, #21, ...

........................................................................
.............................. CYCLE    7 ..............................
........................................................................
   1    -19.2598138 -0.192598E+02  0.112E-02    7.75       0.0  T
   2    -19.2598144 -0.559375E-06  0.478E-03    7.75       5.8  T
   3    -19.2598144 -0.987979E-08  0.194E-03    7.75      14.3  T
   4    -19.2598144 -0.113409E-08  0.282E-04    7.75      98.3  T
   5    -19.2598144 -0.149967E-09  0.764E-05    7.75     363.1  T
   6    -19.2598144 -0.112799E-10  0.130E-05    7.75    2128.3  T
     SCC iter.                  ...        0 min,  0.002 sec
     gradient                   ...        0 min,  0.006 sec
 * total energy  :   -19.0667109 Eh     change       -0.4466265E-04 Eh
   gradient norm :     0.0031100 Eh/α   predicted    -0.3382826E-04 ( -24.26%)
   displ. norm   :     0.0340222 α      lambda       -0.2691491E-04
   maximum displ.:     0.0253508 α      in ANC's #1, #7, #3, ...

........................................................................
.............................. CYCLE    8 ..............................
........................................................................
   1    -19.2598330 -0.192598E+02  0.487E-03    7.75       0.0  T
   2    -19.2598331 -0.404344E-07  0.280E-03    7.75       9.9  T
   3    -19.2598331 -0.288942E-08  0.677E-04    7.75      41.0  T
   4    -19.2598331 -0.331262E-09  0.120E-04    7.75     230.7  T
   5    -19.2598331 -0.350084E-10  0.542E-05    7.75     512.1  T
     SCC iter.                  ...        0 min,  0.001 sec
     gradient                   ...        0 min,  0.006 sec
 * total energy  :   -19.0667296 Eh     change       -0.1867190E-04 Eh
   gradient norm :     0.0022094 Eh/α   predicted    -0.1347482E-04 ( -27.83%)
   displ. norm   :     0.0265932 α      lambda       -0.1372743E-04
   maximum displ.:     0.0188931 α      in ANC's #1, #7, #9, ...

........................................................................
.............................. CYCLE    9 ..............................
........................................................................
   1    -19.2596133 -0.192596E+02  0.466E-03    7.75       0.0  T
   2    -19.2596136 -0.314761E-06  0.214E-03    7.75      13.0  T
   3    -19.2596136 -0.716551E-08  0.120E-03    7.75      23.2  T
   4    -19.2596136 -0.740858E-09  0.124E-04    7.75     223.4  T
   5    -19.2596136 -0.233769E-10  0.514E-05    7.75     539.6  T
     SCC iter.                  ...        0 min,  0.001 sec
     gradient                   ...        0 min,  0.006 sec
 * total energy  :   -19.0667382 Eh     change       -0.8597921E-05 Eh
   gradient norm :     0.0011117 Eh/α   predicted    -0.6868212E-05 ( -20.12%)
   displ. norm   :     0.0166263 α      lambda       -0.2991204E-05
   maximum displ.:     0.0105399 α      in ANC's #1, #2, #7, ...

........................................................................
.............................. CYCLE   10 ..............................
........................................................................
   1    -19.2594388 -0.192594E+02  0.508E-03    7.75       0.0  T
   2    -19.2594392 -0.379126E-06  0.168E-03    7.75      16.5  T
   3    -19.2594392 -0.687359E-08  0.885E-04    7.75      31.3  T
   4    -19.2594392 -0.406690E-09  0.163E-04    7.75     169.9  T
   5    -19.2594392 -0.261551E-10  0.400E-05    7.75     693.3  T
     SCC iter.                  ...        0 min,  0.001 sec
     gradient                   ...        0 min,  0.006 sec
 * total energy  :   -19.0667404 Eh     change       -0.2130915E-05 Eh
   gradient norm :     0.0003839 Eh/α   predicted    -0.1497168E-05 ( -29.74%)
   displ. norm   :     0.0079596 α      lambda       -0.7382672E-06
   maximum displ.:     0.0047769 α      in ANC's #2, #1, #7, ...

   *** GEOMETRY OPTIMIZATION CONVERGED AFTER 10 ITERATIONS ***

------------------------------------------------------------------------
 total energy gain   :        -0.0123656 Eh       -7.7595 kcal/mol
 total RMSD          :         0.2713910 a0        0.1436 Å
 total power (kW/mol):        -3.2465952 (step) -258.6227 (real)
------------------------------------------------------------------------

 ANCopt (total)                0 d,  0 h,  0 min,  0.126 sec
 optimizer setup                ...        0 min,  0.001 sec (  0.525%)
 model hessian                  ...        0 min,  0.002 sec (  1.974%)
 ANC generation                 ...        0 min,  0.000 sec (  0.233%)
 coordinate transformation      ...        0 min,  0.000 sec (  0.059%)
 single point calculation       ...        0 min,  0.118 sec ( 93.987%)
 optimization log               ...        0 min,  0.002 sec (  1.728%)
 hessian update                 ...        0 min,  0.000 sec (  0.068%)
 rational function              ...        0 min,  0.001 sec (  0.886%)

================
 final structure:
================
13
 xtb: 6.5.1 (579679a)
C            1.67977303186337       -0.48769716660534        0.12224085053551
O            0.74004332433300        0.61585048249848       -0.01160830436037
B           -0.74794099548466        0.57333644449525       -0.06670771823374
C           -1.44331310484896       -0.80814440905497       -0.05864883543474
O           -1.34023067072802        1.74791428394197       -0.12642200786767
H            1.11693057994733       -1.40813909229951       -0.00687796246210
H            2.43383524232305       -0.38747866813680       -0.65626802293195
H            2.12691968114793       -0.44395741757649        1.11464784224937
H            1.17675429918142        1.47857660577842       -0.00866420436095
H           -1.13042526806047       -1.40830136145484       -0.91299486328225
H           -2.52575046188860       -0.69424939475272       -0.09828381548631
H           -1.18966380297539       -1.37162451561156        0.83882192001201
H           -0.89693185481002        2.59391420877811       -0.12923687837685
 
 Bond Distances (Angstroems)
 ---------------------------
C1-O2=1.4556         C1-H6=1.0866         C1-H7=1.0885         C1-H8=1.0894         O2-C1=1.4556         O2-B3=1.4896         
O2-H9=0.9670         B3-O2=1.4896         B3-C4=1.5466         B3-O5=1.3168         C4-B3=1.5466         C4-H10=1.0900        
C4-H11=1.0891        C4-H12=1.0896        O5-B3=1.3168         O5-H13=0.9551        H6-C1=1.0866         H7-C1=1.0885         
H8-C1=1.0894         H9-O2=0.9670         H10-C4=1.0900        H11-C4=1.0891        H12-C4=1.0896        H13-O5=0.9551        
 C  H  Rav=1.0889 sigma=0.0011  Rmin=1.0866  Rmax=1.0900     6
 C  B  Rav=1.5466 sigma=0.0000  Rmin=1.5466  Rmax=1.5466     1
 O  H  Rav=0.9610 sigma=0.0059  Rmin=0.9551  Rmax=0.9670     2
 O  B  Rav=1.4032 sigma=0.0864  Rmin=1.3168  Rmax=1.4896     2
 O  C  Rav=1.4556 sigma=0.0000  Rmin=1.4556  Rmax=1.4556     1
 
 selected bond angles (degree)
 --------------------
H6-C1-O2=107.27                H7-C1-O2=108.16                H7-C1-H6=110.60                H8-C1-O2=108.56                
H8-C1-H6=110.79                H8-C1-H7=111.32                B3-O2-C1=128.80                H9-O2-C1=112.62                
H9-O2-B3=118.47                C4-B3-O2=118.32                O5-B3-O2=115.18                O5-B3-C4=126.49                
H10-C4-B3=111.02               H11-C4-B3=110.69               H11-C4-H10=108.32              H12-C4-B3=111.19               
H12-C4-H10=107.10              H12-C4-H11=108.39              H13-O5-B3=125.55               
 
 selected dihedral angles (degree)
 ---------------------------------
B3-O2-C1-H6= 10.36            B3-O2-C1-H7=129.69            B3-O2-C1-H8=250.60            H9-O2-C1-H6=186.45            
H9-O2-C1-H7=305.77            H9-O2-C1-H8= 66.68            C4-B3-O2-C1=356.42            C4-B3-O2-H9=180.53            
O5-B3-O2-C1=176.81            O5-B3-O2-H9=  0.92            H10-C4-B3-O2=300.11           H10-C4-B3-O5=119.66           
H11-C4-B3-O2=179.77           H11-C4-B3-O5=359.33           H12-C4-B3-O2= 59.24           H12-C4-B3-O5=238.80           
H13-O5-B3-O2=359.47           H13-O5-B3-C4=179.90           
           -------------------------------------------------
          |                Final Singlepoint                |
           -------------------------------------------------

          ...................................................
          :                      SETUP                      :
          :.................................................:
          :  # basis functions                  36          :
          :  # atomic orbitals                  36          :
          :  # shells                           26          :
          :  # electrons                        30          :
          :  # halogen bonds                     0          :
          :  max. iterations                   250          :
          :  Hamiltonian                  GFN1-xTB          :
          :  restarted?                      false          :
          :  GBSA solvation                   true          :
          :  PC potential                    false          :
          :  electronic temp.          300.0000000     K    :
          :  accuracy                    1.0000000          :
          :  -> integral cutoff          0.2500000E+02      :
          :  -> integral neglect         0.1000000E-07      :
          :  -> SCF convergence          0.1000000E-05 Eh   :
          :  -> wf. convergence          0.2000000E-04 e    :
          :  Broyden damping             0.4000000          :
          ...................................................

 iter      E             dE          RMSdq      gap      omega  full diag
   1    -19.2594392 -0.192594E+02  0.110E-05    7.75       0.0  T
   2    -19.2594392 -0.888178E-13  0.608E-06    7.75    4559.2  T
   3    -19.2594392 -0.248690E-13  0.997E-07    7.75   27822.1  T

   *** convergence criteria satisfied after 3 iterations ***

         #    Occupation            Energy/Eh            Energy/eV
      -------------------------------------------------------------
         1        2.0000           -0.9093905             -24.7458
       ...           ...                  ...                  ...
         9        2.0000           -0.6078249             -16.5398
        10        2.0000           -0.5996511             -16.3173
        11        2.0000           -0.5728221             -15.5873
        12        2.0000           -0.5537023             -15.0670
        13        2.0000           -0.5463729             -14.8676
        14        2.0000           -0.5427093             -14.7679
        15        2.0000           -0.5332759             -14.5112 (HOMO)
        16                         -0.2484964              -6.7619 (LUMO)
        17                         -0.1913943              -5.2081
        18                         -0.1801994              -4.9035
        19                         -0.1574750              -4.2851
        20                         -0.1130665              -3.0767
       ...                                ...                  ...
        36                          0.6177213              16.8091
      -------------------------------------------------------------
                  HL-Gap            0.2847795 Eh            7.7492 eV
             Fermi-level           -0.3908861 Eh          -10.6366 eV

 SCC (total)                   0 d,  0 h,  0 min,  0.012 sec
 SCC setup                      ...        0 min,  0.000 sec (  3.756%)
 Dispersion                     ...        0 min,  0.000 sec (  0.405%)
 classical contributions        ...        0 min,  0.000 sec (  0.138%)
 integral evaluation            ...        0 min,  0.003 sec ( 28.658%)
 iterations                     ...        0 min,  0.001 sec (  8.405%)
 molecular gradient             ...        0 min,  0.007 sec ( 56.642%)
 printout                       ...        0 min,  0.000 sec (  1.774%)

         :::::::::::::::::::::::::::::::::::::::::::::::::::::
         ::                     SUMMARY                     ::
         :::::::::::::::::::::::::::::::::::::::::::::::::::::
         :: total energy             -19.066740350634 Eh    ::
         :: total w/o Gsasa/hb       -19.051711732503 Eh    ::
         :: gradient norm              0.000383989632 Eh/a0 ::
         :: HOMO-LUMO gap              7.749244311192 eV    ::
         ::.................................................::
         :: SCC energy               -19.259439208971 Eh    ::
         :: -> electrostatic           0.166196551691 Eh    ::
         :: -> Gsolv                  -0.101771481826 Eh    ::
         ::    -> Gelec               -0.086742863695 Eh    ::
         ::    -> Gsasa               -0.010558254141 Eh    ::
         ::    -> Ghb                 -0.012094642995 Eh    ::
         ::    -> Gshift               0.007624279005 Eh    ::
         :: repulsion energy           0.196289161386 Eh    ::
         :: dispersion energy         -0.003590303048 Eh    ::
         :: halogen bond corr.         0.000000000000 Eh    ::
         :: add. restraining           0.000000000000 Eh    ::
         :: total charge               1.000000000000 e     ::
         :::::::::::::::::::::::::::::::::::::::::::::::::::::

           -------------------------------------------------
          |                Property Printout                |
           -------------------------------------------------

    * Orbital Energies and Occupations

         #    Occupation            Energy/Eh            Energy/eV
      -------------------------------------------------------------
         1        2.0000           -0.9093905             -24.7458
       ...           ...                  ...                  ...
         3        2.0000           -0.7654449             -20.8288
         4        2.0000           -0.7514604             -20.4483
         5        2.0000           -0.6980132             -18.9939
         6        2.0000           -0.6869657             -18.6933
         7        2.0000           -0.6581730             -17.9098
         8        2.0000           -0.6551596             -17.8278
         9        2.0000           -0.6078249             -16.5398
        10        2.0000           -0.5996511             -16.3173
        11        2.0000           -0.5728221             -15.5873
        12        2.0000           -0.5537023             -15.0670
        13        2.0000           -0.5463729             -14.8676
        14        2.0000           -0.5427093             -14.7679
        15        2.0000           -0.5332759             -14.5112 (HOMO)
        16                         -0.2484964              -6.7619 (LUMO)
        17                         -0.1913943              -5.2081
        18                         -0.1801994              -4.9035
        19                         -0.1574750              -4.2851
        20                         -0.1130665              -3.0767
        21                         -0.1097890              -2.9875
        22                         -0.1031428              -2.8067
        23                         -0.0819348              -2.2296
        24                         -0.0695453              -1.8924
        25                         -0.0478769              -1.3028
        26                          0.0688617               1.8738
       ...                                ...                  ...
        36                          0.6177213              16.8091
      -------------------------------------------------------------
                  HL-Gap            0.2847795 Eh            7.7492 eV
             Fermi-level           -0.3908861 Eh          -10.6366 eV

  Mulliken/CM5 charges         n(s)   n(p)   n(d)
     1C     0.14398  0.01879   1.006  2.850  0.000
     2O    -0.41137 -0.61281   1.672  4.740  0.000
     3B     0.59203  0.41485   0.854  1.554  0.000
     4C    -0.20772 -0.28517   1.031  3.177  0.000
     5O    -0.54435 -0.68757   1.664  4.880  0.000
     6H     0.08810  0.15074   0.912  0.000  0.000
     7H     0.09628  0.15545   0.904  0.000  0.000
     8H     0.09400  0.15308   0.906  0.000  0.000
     9H     0.46925  0.65157   0.531  0.000  0.000
    10H     0.08125  0.13981   0.919  0.000  0.000
    11H     0.08316  0.14217   0.917  0.000  0.000
    12H     0.08040  0.13898   0.920  0.000  0.000
    13H     0.43499  0.62012   0.565  0.000  0.000

Wiberg/Mayer (AO) data.
largest (>0.10) Wiberg bond orders for each atom

 ---------------------------------------------------------------------------
     #   Z sym  total        # sym  WBO       # sym  WBO       # sym  WBO
 ---------------------------------------------------------------------------
     1   6 C    3.786 --     6 H    0.981     8 H    0.980     7 H    0.980
                             2 O    0.817
     2   8 O    2.369 --     1 C    0.817     9 H    0.754     3 B    0.735
     3   5 B    3.140 --     5 O    1.285     4 C    1.044     2 O    0.735
     4   6 C    3.988 --     3 B    1.044    11 H    0.975    12 H    0.959
                            10 H    0.958
     5   8 O    2.156 --     3 B    1.285    13 H    0.790
     6   1 H    0.997 --     1 C    0.981
     7   1 H    0.994 --     1 C    0.980
     8   1 H    0.994 --     1 C    0.980
     9   1 H    0.782 --     2 O    0.754
    10   1 H    0.993 --     4 C    0.958
    11   1 H    0.993 --     4 C    0.975
    12   1 H    0.993 --     4 C    0.959
    13   1 H    0.812 --     5 O    0.790
 ---------------------------------------------------------------------------

Topologies differ in total number of bonds
Writing topology from bond orders to xtbtopo.mol

 dipole moment from electron density (au)
     X       Y       Z   
   1.9267   1.5099   0.0585  total (Debye):    6.224

           -------------------------------------------------
          |                Geometry Summary                 |
           -------------------------------------------------

      molecular mass/u    :       74.8948357
   center of mass at/Å    :       -0.1832983       0.3578202      -0.0270183
  moments of inertia/u·Å² :        0.6798246E+02   0.1373616E+03   0.1989483E+03
rotational constants/cm⁻¹ :        0.2479703E+00   0.1227245E+00   0.8473373E-01

 * 12 selected distances

     #   Z          #   Z                                           value/Å
     1   6 C        2   8 O                                       1.4556185
     2   8 O        3   5 B                                       1.4896111
     3   5 B        4   6 C                                       1.5466406 (max)
     3   5 B        5   8 O                                       1.3168167
     1   6 C        6   1 H                                       1.0865896
     1   6 C        7   1 H                                       1.0884530
     1   6 C        8   1 H                                       1.0893692
     2   8 O        9   1 H                                       0.9669652
     4   6 C       10   1 H                                       1.0899516
     4   6 C       11   1 H                                       1.0891345
     4   6 C       12   1 H                                       1.0896338
     5   8 O       13   1 H                                       0.9551114 (min)

 * 5 distinct bonds (by element types)

   Z      Z             #   av. dist./Å        max./Å        min./Å
   1 H    6 C           6     1.0888553     1.0899516     1.0865896
   5 B    6 C           1     1.5466406     1.5466406     1.5466406
   1 H    8 O           2     0.9610383     0.9669652     0.9551114
   5 B    8 O           2     1.4032139     1.4896111     1.3168167
   6 C    8 O           1     1.4556185     1.4556185     1.4556185


optimized geometry written to: xtbopt.xyz


           -------------------------------------------------
          | TOTAL ENERGY              -19.066740350634 Eh   |
          | GRADIENT NORM               0.000383989632 Eh/α |
          | HOMO-LUMO GAP               7.749244311192 eV   |
           -------------------------------------------------

------------------------------------------------------------------------
 * finished run on 2023/06/21 at 17:40:21.070     
------------------------------------------------------------------------
 total:
 * wall-time:     0 d,  0 h,  0 min,  0.274 sec
 *  cpu-time:     0 d,  0 h,  0 min,  0.169 sec
 * ratio c/w:     0.618 speedup
 SCF:
 * wall-time:     0 d,  0 h,  0 min,  0.014 sec
 *  cpu-time:     0 d,  0 h,  0 min,  0.014 sec
 * ratio c/w:     0.980 speedup
 ANC optimizer:
 * wall-time:     0 d,  0 h,  0 min,  0.142 sec
 *  cpu-time:     0 d,  0 h,  0 min,  0.137 sec
 * ratio c/w:     0.961 speedup

