      -----------------------------------------------------------      
     |                   =====================                   |     
     |                           x T B                           |     
     |                   =====================                   |     
     |                         S. Grimme                         |     
     |          Mulliken Center for Theoretical Chemistry        |     
     |                    University of Bonn                     |     
      -----------------------------------------------------------      

   * xtb version 6.5.1 (579679a) compiled by 'ehlert@majestix' on 2022-07-11

   xtb is free software: you can redistribute it and/or modify it under
   the terms of the GNU Lesser General Public License as published by
   the Free Software Foundation, either version 3 of the License, or
   (at your option) any later version.
   
   xtb is distributed in the hope that it will be useful,
   but WITHOUT ANY WARRANTY; without even the implied warranty of
   MERCHANTABILITY or FITNESS FOR A PARTICULAR PURPOSE.  See the
   GNU Lesser General Public License for more details.
   
   Cite this work as:
   * C. Bannwarth, E. Caldeweyher, S. Ehlert, A. Hansen, P. Pracht,
     J. Seibert, S. Spicher, S. Grimme, WIREs Comput. Mol. Sci., 2020, 11,
     e01493. DOI: 10.1002/wcms.1493
   
   for GFN2-xTB:
   * C. Bannwarth, S. Ehlert and S. Grimme., J. Chem. Theory Comput., 2019,
     15, 1652-1671. DOI: 10.1021/acs.jctc.8b01176
   for GFN1-xTB:
   * S. Grimme, C. Bannwarth, P. Shushkov, J. Chem. Theory Comput., 2017,
     13, 1989-2009. DOI: 10.1021/acs.jctc.7b00118
   for GFN0-xTB:
   * P. Pracht, E. Caldeweyher, S. Ehlert, S. Grimme, ChemRxiv, 2019, preprint.
     DOI: 10.26434/chemrxiv.8326202.v1
   for GFN-FF:
   * S. Spicher and S. Grimme, Angew. Chem. Int. Ed., 2020, 59, 15665-15673.
     DOI: 10.1002/anie.202004239
   
   for ALPB and GBSA implicit solvation:
   * S. Ehlert, M. Stahn, S. Spicher, S. Grimme, J. Chem. Theory Comput.,
     2021, 17, 4250-4261. DOI: 10.1021/acs.jctc.1c00471
   
   for DFT-D4:
   * E. Caldeweyher, C. Bannwarth and S. Grimme, J. Chem. Phys., 2017,
     147, 034112. DOI: 10.1063/1.4993215
   * E. Caldeweyher, S. Ehlert, A. Hansen, H. Neugebauer, S. Spicher,
     C. Bannwarth and S. Grimme, J. Chem. Phys., 2019, 150, 154122.
     DOI: 10.1063/1.5090222
   * E. Caldeweyher, J.-M. Mewes, S. Ehlert and S. Grimme, Phys. Chem. Chem. Phys.
     2020, 22, 8499-8512. DOI: 10.1039/D0CP00502A
   
   for sTDA-xTB:
   * S. Grimme and C. Bannwarth, J. Chem. Phys., 2016, 145, 054103.
     DOI: 10.1063/1.4959605
   
   in the mass-spec context:
   * V. Asgeirsson, C. Bauer and S. Grimme, Chem. Sci., 2017, 8, 4879.
     DOI: 10.1039/c7sc00601b
   * J. Koopman and S. Grimme, ACS Omega 2019, 4, 12, 15120-15133.
     DOI: 10.1021/acsomega.9b02011
   
   for metadynamics refer to:
   * S. Grimme, J. Chem. Theory Comput., 2019, 155, 2847-2862
     DOI: 10.1021/acs.jctc.9b00143
   
   for SPH calculations refer to:
   * S. Spicher and S. Grimme, J. Chem. Theory Comput., 2021, 17, 1701-1714
     DOI: 10.1021/acs.jctc.0c01306
   
   with help from (in alphabetical order)
   P. Atkinson, C. Bannwarth, F. Bohle, G. Brandenburg, E. Caldeweyher
   M. Checinski, S. Dohm, S. Ehlert, S. Ehrlich, I. Gerasimov, C. Hölzer
   A. Katbashev, J. Koopman, C. Lavigne, S. Lehtola, F. März, M. Müller,
   F. Musil, H. Neugebauer, J. Pisarek, C. Plett, P. Pracht, F. Pultar,
   J. Seibert, P. Shushkov, S. Spicher, M. Stahn, M. Steiner, T. Strunk,
   J. Stückrath, T. Rose, and J. Unsleber
   
 * started run on 2023/06/21 at 17:07:39.399     

           -------------------------------------------------
          |                Calculation Setup                |
           -------------------------------------------------

          program call               : /lustre/hpc/kemi/ree/PhD/git/ReactivityQM/dep/xtb-6.5.1/bin/xtb --gfn 1 /lustre/hpc/kemi/ree/PhD/git/ReactivityQM/calculations/R02oxygendeprot/reac01prodE06/conf10/R02oxygendeprot_reac01prodE06_conf10_gfn1.xyz --opt --vfukui --chrg -2 --uhf 0 --alpb DMSO
          hostname                   : node070
          coordinate file            : /lustre/hpc/kemi/ree/PhD/git/ReactivityQM/calculations/R02oxygendeprot/reac01prodE06/conf10/R02oxygendeprot_reac01prodE06_conf10_gfn1.xyz
          omp threads                :                     1

   ID    Z sym.   atoms
    1    6 C      1, 3, 5, 6, 8, 11-15, 17, 19, 22, 23
    2    8 O      2, 4, 7, 9, 18, 24
    3    7 N      10, 16, 20, 21, 25
    4    1 H      26-42

           -------------------------------------------------
          |                 G F N 1 - x T B                 |
           -------------------------------------------------

        Reference                      10.1021/acs.jctc.7b00118
      * Hamiltonian:
        H0-scaling (s, p, d)           1.850000    2.250000    2.000000
        zeta-weighting                 0.000000
      * Dispersion:
        s8                             2.400000
        a1                             0.630000
        a2                             5.000000
        s9                             0.000000
      * Repulsion:
        kExp                           1.500000
        rExp                           1.000000
      * Coulomb:
        alpha                          2.000000
        third order                    atomic
        anisotropic                    false
      * Halogen bond correction:
        rad-scale                      1.300000
        damping                        0.440000

      * Solvation model:               ALPB
        Solvent                        DMSO
        Parameter file                 internal GFN1-xTB/ALPB
        Dielectric constant                4.6680E+01
        Reference state                gsolv [1 M gas/solution]
        Free energy shift                  7.6243E-03 Eh       4.7843E+00 kcal/mol
        Temperature                        2.9815E+02 K
        Density                            1.1000E+00 kg/L
        Solvent mass                       7.8130E+01 g/mol
        Interaction kernel             P16
        Born radius scaling (c1)           1.7672E+00
        Born radii integrator          GBOBC
        Born offset                        0.0000E+00 a0       0.0000E+00 AA
        H-bond correction              true
        Ion screening                  false
        Surface tension                    1.0000E-05 Eh       1.5569E+01 dyn/cm
        Grid points                               230 per atom

          ...................................................
          :                      SETUP                      :
          :.................................................:
          :  # basis functions                 134          :
          :  # atomic orbitals                 134          :
          :  # shells                           84          :
          :  # electrons                       136          :
          :  # halogen bonds                     0          :
          :  max. iterations                   250          :
          :  Hamiltonian                  GFN1-xTB          :
          :  restarted?                      false          :
          :  GBSA solvation                   true          :
          :  PC potential                    false          :
          :  electronic temp.          300.0000000     K    :
          :  accuracy                    1.0000000          :
          :  -> integral cutoff          0.2500000E+02      :
          :  -> integral neglect         0.1000000E-07      :
          :  -> SCF convergence          0.1000000E-05 Eh   :
          :  -> wf. convergence          0.2000000E-04 e    :
          :  Broyden damping             0.4000000          :
          ...................................................

 iter      E             dE          RMSdq      gap      omega  full diag
   1    -83.9892832 -0.839893E+02  0.867E+00    1.46       0.0  T
   2    -84.0229935 -0.337103E-01  0.545E+00    0.45       1.0  T
   3    -84.0493449 -0.263514E-01  0.305E+00    0.20       1.0  T
   4    -84.2601875 -0.210843E+00  0.116E+00    1.08       1.0  T
   5    -84.2742864 -0.140988E-01  0.846E-01    1.01       1.0  T
   6    -84.3023181 -0.280318E-01  0.471E-01    0.20       1.0  T
   7    -84.0486018  0.253716E+00  0.156E+00    0.82       1.0  T
   8    -84.3011692 -0.252567E+00  0.505E-01    0.32       1.0  T
   9    -84.3260718 -0.249026E-01  0.137E-01    0.04       1.0  T
  10    -84.3113700  0.147018E-01  0.375E-01    0.16       1.0  T
  11    -84.3025636  0.880638E-02  0.449E-01    0.02       1.0  T
  12    -84.3169236 -0.143600E-01  0.305E-01    0.13       1.0  T
  13    -84.3286728 -0.117491E-01  0.897E-03    0.06       1.7  T
  14    -84.3284291  0.243738E-03  0.442E-02    0.06       1.0  T
  15    -84.3286610 -0.231971E-03  0.129E-02    0.06       1.2  T
  16    -84.3286665 -0.549378E-05  0.110E-02    0.06       1.4  T
  17    -84.3286812 -0.146302E-04  0.283E-03    0.06       5.5  T
  18    -84.3286815 -0.362488E-06  0.226E-03    0.06       6.8  T
  19    -84.3286822 -0.658183E-06  0.439E-05    0.06     351.2  T
  20    -84.3286822 -0.247525E-09  0.648E-06    0.06    2381.9  T

   *** convergence criteria satisfied after 20 iterations ***

         #    Occupation            Energy/Eh            Energy/eV
      -------------------------------------------------------------
         1        2.0000           -0.8130447             -22.1241
       ...           ...                  ...                  ...
        62        2.0000           -0.3998658             -10.8809
        63        2.0000           -0.3934372             -10.7060
        64        2.0000           -0.3907408             -10.6326
        65        2.0000           -0.3832445             -10.4286
        66        2.0000           -0.3657359              -9.9522
        67        2.0000           -0.3297029              -8.9717
        68        1.5404           -0.2694223              -7.3314 (HOMO)
        69        0.4596           -0.2671243              -7.2688 (LUMO)
        70                         -0.2361851              -6.4269
        71                         -0.2188411              -5.9550
        72                         -0.1631807              -4.4404
        73                         -0.1502653              -4.0889
       ...                                ...                  ...
       134                          0.7962568              21.6673
      -------------------------------------------------------------
                  HL-Gap            0.0022981 Eh            0.0625 eV
             Fermi-level           -0.2682733 Eh           -7.3001 eV

 SCC (total)                   0 d,  0 h,  0 min,  0.202 sec
 SCC setup                      ...        0 min,  0.002 sec (  0.924%)
 Dispersion                     ...        0 min,  0.000 sec (  0.148%)
 classical contributions        ...        0 min,  0.000 sec (  0.049%)
 integral evaluation            ...        0 min,  0.029 sec ( 14.580%)
 iterations                     ...        0 min,  0.109 sec ( 54.151%)
 molecular gradient             ...        0 min,  0.060 sec ( 29.444%)
 printout                       ...        0 min,  0.001 sec (  0.689%)

         :::::::::::::::::::::::::::::::::::::::::::::::::::::
         ::                     SUMMARY                     ::
         :::::::::::::::::::::::::::::::::::::::::::::::::::::
         :: total energy             -83.605411575690 Eh    ::
         :: total w/o Gsasa/hb       -83.586542789083 Eh    ::
         :: gradient norm              0.125430347103 Eh/a0 ::
         :: HOMO-LUMO gap              0.062533383772 eV    ::
         ::.................................................::
         :: SCC energy               -84.328682176468 Eh    ::
         :: -> electrostatic           0.686181715482 Eh    ::
         :: -> Gsolv                  -0.269263616679 Eh    ::
         ::    -> Gelec               -0.250394830071 Eh    ::
         ::    -> Gsasa               -0.023941343068 Eh    ::
         ::    -> Ghb                 -0.002551722544 Eh    ::
         ::    -> Gshift               0.007624279005 Eh    ::
         :: repulsion energy           0.750009162612 Eh    ::
         :: dispersion energy         -0.026738561834 Eh    ::
         :: halogen bond corr.         0.000000000000 Eh    ::
         :: add. restraining           0.000000000000 Eh    ::
         :: total charge              -2.000000000000 e     ::
         :::::::::::::::::::::::::::::::::::::::::::::::::::::

      ----------------------------------------------------------- 
     |                   =====================                   |
     |                        A N C O P T                        |
     |                   =====================                   |
     |               Approximate Normal Coordinate               |
     |                Rational Function Optimizer                |
      ----------------------------------------------------------- 

          ...................................................
          :                      SETUP                      :
          :.................................................:
          :   optimization level            normal          :
          :   max. optcycles                   200          :
          :   ANC micro-cycles                  20          :
          :   degrees of freedom               120          :
          :.................................................:
          :   RF solver                   davidson          :
          :   write xtbopt.log                true          :
          :   linear?                        false          :
          :   energy convergence         0.5000000E-05 Eh   :
          :   grad. convergence          0.1000000E-02 Eh/α :
          :   maximium RF displ.         1.0000000          :
          :   Hlow (freq-cutoff)         0.1000000E-01      :
          :   Hmax (freq-cutoff)         5.0000000          :
          :   S6 in model hess.         20.0000000          :
          ...................................................

generating ANC from model Hessian ...
Using Lindh-Hessian (1995)
 Shifting diagonal of input Hessian by   9.863724228123021E-003
 Lowest  eigenvalues of input Hessian
    0.000000    0.000000    0.000000    0.000000    0.000000    0.000000
    0.010000    0.010247    0.010565    0.011013    0.011440    0.012816
    0.012966    0.014448    0.014696    0.015876    0.016022    0.016981
 Highest eigenvalues
    1.917411    2.089458    2.161523    2.229337    2.297513    2.305329
 

........................................................................
.............................. CYCLE    1 ..............................
........................................................................
   1    -84.3286822 -0.843287E+02  0.839E-06    0.06       0.0  T
   2    -84.3286822  0.227128E-08  0.133E-04    0.06     115.8  T
   3    -84.3286822 -0.228009E-08  0.501E-07    0.06   30806.6  T
     SCC iter.                  ...        0 min,  0.040 sec
     gradient                   ...        0 min,  0.074 sec
 * total energy  :   -83.6054116 Eh     change       -0.4561684E-11 Eh
   gradient norm :     0.1254305 Eh/α   predicted     0.0000000E+00 (-100.00%)
   displ. norm   :     0.2598619 α      lambda       -0.1548621E-01
   maximum displ.:     0.0934958 α      in ANC's #57, #24, #30, ...

........................................................................
.............................. CYCLE    2 ..............................
........................................................................
   1    -84.3128771 -0.843129E+02  0.366E-01    0.17       0.0  T
   2    -84.0330873  0.279790E+00  0.166E+00    0.76       1.0  T
   3    -84.2616396 -0.228552E+00  0.739E-01    0.03       1.0  T
   4    -84.3090082 -0.473686E-01  0.411E-01    0.21       1.0  T
   5    -84.3297021 -0.206939E-01  0.173E-02    0.07       1.0  T
   6    -84.3294102  0.291912E-03  0.516E-02    0.06       1.0  T
   7    -84.3296755 -0.265310E-03  0.154E-02    0.07       1.0  T
   8    -84.3296677  0.783835E-05  0.180E-02    0.07       1.0  T
   9    -84.3296592  0.843393E-05  0.196E-02    0.06       1.0  T
  10    -84.3297032 -0.439555E-04  0.572E-03    0.07       2.7  T
  11    -84.3297071 -0.394681E-05  0.971E-04    0.07      15.9  T
  12    -84.3297072 -0.103264E-06  0.312E-04    0.07      49.4  T
  13    -84.3297073 -0.123258E-07  0.335E-05    0.07     460.8  T
  14    -84.3297073 -0.903810E-10  0.166E-05    0.07     928.7  T
     SCC iter.                  ...        0 min,  0.075 sec
     gradient                   ...        0 min,  0.060 sec
 * total energy  :   -83.6163004 Eh     change       -0.1088880E-01 Eh
   gradient norm :     0.0560690 Eh/α   predicted    -0.8272043E-02 ( -24.03%)
   displ. norm   :     0.2632545 α      lambda       -0.5877452E-02
   maximum displ.:     0.0984101 α      in ANC's #24, #57, #9, ...

........................................................................
.............................. CYCLE    3 ..............................
........................................................................
   1    -84.3256575 -0.843257E+02  0.294E-01    0.13       0.0  T
   2    -84.0336805  0.291977E+00  0.168E+00    0.60       1.0  T
   3    -84.3142699 -0.280589E+00  0.425E-01    0.03       1.0  T
   4    -84.3237951 -0.952522E-02  0.314E-01    0.15       1.0  T
   5    -84.3357178 -0.119226E-01  0.337E-02    0.08       1.0  T
   6    -84.3336532  0.206452E-02  0.137E-01    0.05       1.0  T
   7    -84.3357076 -0.205439E-02  0.354E-02    0.08       1.0  T
   8    -84.3358598 -0.152121E-03  0.391E-03    0.07       3.9  T
   9    -84.3358607 -0.910287E-06  0.291E-03    0.07       5.3  T
  10    -84.3358613 -0.601466E-06  0.189E-03    0.07       8.2  T
  11    -84.3358617 -0.420775E-06  0.278E-04    0.07      55.6  T
  12    -84.3358617 -0.882960E-08  0.157E-05    0.07     981.3  T
  13    -84.3358617 -0.150919E-10  0.617E-06    0.07    2500.5  T
     SCC iter.                  ...        0 min,  0.068 sec
     gradient                   ...        0 min,  0.059 sec
 * total energy  :   -83.6196847 Eh     change       -0.3384289E-02 Eh
   gradient norm :     0.0177653 Eh/α   predicted    -0.3143962E-02 (  -7.10%)
   displ. norm   :     0.1686804 α      lambda       -0.7255336E-03
   maximum displ.:     0.0686781 α      in ANC's #7, #2, #3, ...

........................................................................
.............................. CYCLE    4 ..............................
........................................................................
   1    -84.3377552 -0.843378E+02  0.113E-01    0.09       0.0  T
   2    -84.0723282  0.265427E+00  0.151E+00    0.19       1.0  T
   3    -84.3390275 -0.266699E+00  0.389E-02    0.08       1.0  T
   4    -84.3391369 -0.109334E-03  0.216E-02    0.07       1.0  T
   5    -84.3391912 -0.543058E-04  0.583E-03    0.07       2.6  T
   6    -84.3391935 -0.236472E-05  0.339E-03    0.07       4.5  T
   7    -84.3391943 -0.765620E-06  0.138E-03    0.07      11.2  T
   8    -84.3391945 -0.220362E-06  0.486E-05    0.07     317.2  T
   9    -84.3391945  0.784723E-10  0.444E-05    0.07     347.5  T
     SCC iter.                  ...        0 min,  0.048 sec
     gradient                   ...        0 min,  0.059 sec
 * total energy  :   -83.6202074 Eh     change       -0.5227044E-03 Eh
   gradient norm :     0.0103772 Eh/α   predicted    -0.3730972E-03 ( -28.62%)
   displ. norm   :     0.2748964 α      lambda       -0.6083290E-03
   maximum displ.:     0.1205131 α      in ANC's #7, #2, #3, ...

........................................................................
.............................. CYCLE    5 ..............................
........................................................................
   1    -84.3405694 -0.843406E+02  0.102E-01    0.09       0.0  T
   2    -84.0875663  0.253003E+00  0.148E+00    0.16       1.0  T
   3    -84.3414204 -0.253854E+00  0.508E-02    0.08       1.0  T
   4    -84.3417009 -0.280542E-03  0.111E-02    0.07       1.4  T
   5    -84.3417017 -0.804134E-06  0.110E-02    0.08       1.4  T
   6    -84.3417150 -0.132884E-04  0.192E-03    0.07       8.0  T
   7    -84.3417149  0.124862E-06  0.157E-03    0.07       9.8  T
   8    -84.3417152 -0.288657E-06  0.627E-05    0.07     246.0  T
   9    -84.3417152 -0.502212E-10  0.302E-05    0.07     510.7  T
     SCC iter.                  ...        0 min,  0.048 sec
     gradient                   ...        0 min,  0.060 sec
 * total energy  :   -83.6206310 Eh     change       -0.4236243E-03 Eh
   gradient norm :     0.0076012 Eh/α   predicted    -0.3271640E-03 ( -22.77%)
   displ. norm   :     0.3096249 α      lambda       -0.4135559E-03
   maximum displ.:     0.1397800 α      in ANC's #2, #7, #4, ...

........................................................................
.............................. CYCLE    6 ..............................
........................................................................
   1    -84.3411668 -0.843412E+02  0.840E-02    0.09       0.0  T
   2    -84.1204743  0.220693E+00  0.138E+00    0.12       1.0  T
   3    -84.3416852 -0.221211E+00  0.470E-02    0.08       1.0  T
   4    -84.3419435 -0.258346E-03  0.630E-03    0.08       2.5  T
   5    -84.3419304  0.130898E-04  0.119E-02    0.08       1.3  T
   6    -84.3419457 -0.152675E-04  0.257E-03    0.08       6.0  T
   7    -84.3419463 -0.582411E-06  0.190E-04    0.08      81.1  T
   8    -84.3419463 -0.151161E-09  0.166E-04    0.08      93.2  T
     SCC iter.                  ...        0 min,  0.043 sec
     gradient                   ...        0 min,  0.062 sec
 * total energy  :   -83.6209482 Eh     change       -0.3171717E-03 Eh
   gradient norm :     0.0102250 Eh/α   predicted    -0.2266018E-03 ( -28.56%)
   displ. norm   :     0.3877236 α      lambda       -0.4409282E-03
   maximum displ.:     0.1887223 α      in ANC's #2, #4, #7, ...

........................................................................
.............................. CYCLE    7 ..............................
........................................................................
   1    -84.3410727 -0.843411E+02  0.359E-02    0.08       0.0  T
   2    -84.2935210  0.475517E-01  0.636E-01    0.03       1.0  T
   3    -84.3411276 -0.476066E-01  0.263E-02    0.08       1.0  T
   4    -84.3412021 -0.745605E-04  0.889E-03    0.08       1.7  T
   5    -84.3411885  0.136229E-04  0.133E-02    0.08       1.2  T
   6    -84.3412053 -0.167963E-04  0.490E-03    0.08       3.2  T
   7    -84.3412077 -0.242396E-05  0.129E-03    0.08      11.9  T
   8    -84.3412079 -0.170888E-06  0.433E-04    0.08      35.6  T
   9    -84.3412079 -0.213884E-07  0.399E-05    0.08     387.2  T
  10    -84.3412079 -0.192045E-09  0.428E-06    0.08    3609.2  T
     SCC iter.                  ...        0 min,  0.053 sec
     gradient                   ...        0 min,  0.059 sec
 * total energy  :   -83.6212954 Eh     change       -0.3472549E-03 Eh
   gradient norm :     0.0112322 Eh/α   predicted    -0.2536073E-03 ( -26.97%)
   displ. norm   :     0.4007386 α      lambda       -0.4184106E-03
   maximum displ.:     0.2169572 α      in ANC's #2, #4, #3, ...

........................................................................
.............................. CYCLE    8 ..............................
........................................................................
   1    -84.3401637 -0.843402E+02  0.381E-02    0.07       0.0  T
   2    -84.3272680  0.128956E-01  0.339E-01    0.16       1.0  T
   3    -84.3402515 -0.129834E-01  0.273E-02    0.08       1.0  T
   4    -84.3403318 -0.803250E-04  0.287E-03    0.08       5.4  T
   5    -84.3403186  0.132210E-04  0.112E-02    0.08       1.4  T
   6    -84.3403315 -0.129503E-04  0.300E-03    0.08       5.1  T
   7    -84.3403325 -0.101653E-05  0.996E-04    0.08      15.5  T
   8    -84.3403326 -0.114915E-06  0.755E-05    0.08     204.3  T
   9    -84.3403326 -0.490360E-09  0.141E-05    0.08    1093.0  T
     SCC iter.                  ...        0 min,  0.047 sec
     gradient                   ...        0 min,  0.060 sec
 * total energy  :   -83.6216152 Eh     change       -0.3197859E-03 Eh
   gradient norm :     0.0089459 Eh/α   predicted    -0.2428037E-03 ( -24.07%)
   displ. norm   :     0.3632817 α      lambda       -0.2900765E-03
   maximum displ.:     0.2133980 α      in ANC's #2, #4, #3, ...

........................................................................
.............................. CYCLE    9 ..............................
........................................................................
   1    -84.3394086 -0.843394E+02  0.842E-02    0.06       0.0  T
   2    -84.3177877  0.216208E-01  0.456E-01    0.27       1.0  T
   3    -84.3385640 -0.207763E-01  0.120E-01    0.10       1.0  T
   4    -84.3402147 -0.165071E-02  0.146E-02    0.07       1.1  T
   5    -84.3402055  0.924363E-05  0.173E-02    0.07       1.0  T
   6    -84.3402395 -0.340076E-04  0.335E-03    0.08       4.6  T
   7    -84.3402404 -0.969986E-06  0.101E-03    0.08      15.3  T
   8    -84.3402405 -0.135191E-07  0.906E-04    0.08      17.0  T
   9    -84.3402406 -0.962467E-07  0.742E-05    0.08     208.0  T
  10    -84.3402406 -0.226322E-09  0.585E-05    0.08     263.7  T
     SCC iter.                  ...        0 min,  0.056 sec
     gradient                   ...        0 min,  0.062 sec
 * total energy  :   -83.6218275 Eh     change       -0.2123321E-03 Eh
   gradient norm :     0.0059404 Eh/α   predicted    -0.1641798E-03 ( -22.68%)
   displ. norm   :     0.2710764 α      lambda       -0.1492363E-03
   maximum displ.:     0.1710658 α      in ANC's #2, #3, #4, ...

........................................................................
.............................. CYCLE   10 ..............................
........................................................................
   1    -84.3401656 -0.843402E+02  0.651E-02    0.07       0.0  T
   2    -84.3204852  0.196804E-01  0.426E-01    0.23       1.0  T
   3    -84.3400786 -0.195934E-01  0.697E-02    0.09       1.0  T
   4    -84.3405594 -0.480761E-03  0.293E-02    0.07       1.0  T
   5    -84.3406469 -0.875156E-04  0.112E-02    0.07       1.4  T
   6    -84.3406519 -0.506508E-05  0.871E-03    0.08       1.8  T
   7    -84.3406606 -0.863420E-05  0.164E-03    0.08       9.4  T
   8    -84.3406608 -0.239941E-06  0.833E-04    0.08      18.5  T
   9    -84.3406609 -0.800467E-07  0.152E-04    0.08     101.6  T
  10    -84.3406609 -0.269979E-08  0.822E-06    0.08    1876.2  T
     SCC iter.                  ...        0 min,  0.051 sec
     gradient                   ...        0 min,  0.056 sec
 * total energy  :   -83.6219380 Eh     change       -0.1104789E-03 Eh
   gradient norm :     0.0040701 Eh/α   predicted    -0.8010312E-04 ( -27.49%)
   displ. norm   :     0.1830674 α      lambda       -0.8716100E-04
   maximum displ.:     0.1295188 α      in ANC's #2, #6, #3, ...

........................................................................
.............................. CYCLE   11 ..............................
........................................................................
   1    -84.3416926 -0.843417E+02  0.578E-02    0.07       0.0  T
   2    -84.3231473  0.185454E-01  0.411E-01    0.21       1.0  T
   3    -84.3418097 -0.186625E-01  0.475E-02    0.08       1.0  T
   4    -84.3419099 -0.100204E-03  0.376E-02    0.07       1.0  T
   5    -84.3420730 -0.163098E-03  0.392E-03    0.08       3.9  T
   6    -84.3420736 -0.620512E-06  0.328E-03    0.08       4.7  T
   7    -84.3420747 -0.104666E-05  0.133E-03    0.08      11.6  T
   8    -84.3420749 -0.216293E-06  0.930E-05    0.08     165.9  T
   9    -84.3420749 -0.919144E-09  0.139E-05    0.08    1107.8  T
     SCC iter.                  ...        0 min,  0.046 sec
     gradient                   ...        0 min,  0.057 sec
 * total energy  :   -83.6220020 Eh     change       -0.6397766E-04 Eh
   gradient norm :     0.0032819 Eh/α   predicted    -0.4504194E-04 ( -29.60%)
   displ. norm   :     0.1662135 α      lambda       -0.6521890E-04
   maximum displ.:     0.1143999 α      in ANC's #2, #6, #1, ...

........................................................................
.............................. CYCLE   12 ..............................
........................................................................
   1    -84.3419470 -0.843419E+02  0.114E-02    0.07       0.0  T
   2    -84.3400161  0.193090E-02  0.128E-01    0.10       1.0  T
   3    -84.3419545 -0.193842E-02  0.913E-03    0.08       1.7  T
   4    -84.3419543  0.163239E-06  0.789E-03    0.08       2.0  T
   5    -84.3419607 -0.633268E-05  0.236E-03    0.08       6.5  T
   6    -84.3419610 -0.387496E-06  0.559E-04    0.08      27.6  T
   7    -84.3419611 -0.230710E-07  0.171E-04    0.08      90.0  T
   8    -84.3419611 -0.320793E-08  0.127E-05    0.08    1217.9  T
     SCC iter.                  ...        0 min,  0.041 sec
     gradient                   ...        0 min,  0.060 sec
 * total energy  :   -83.6220482 Eh     change       -0.4617234E-04 Eh
   gradient norm :     0.0032730 Eh/α   predicted    -0.3351305E-04 ( -27.42%)
   displ. norm   :     0.1436366 α      lambda       -0.6025842E-04
   maximum displ.:     0.1065108 α      in ANC's #2, #6, #8, ...

........................................................................
.............................. CYCLE   13 ..............................
........................................................................
   1    -84.3428927 -0.843429E+02  0.212E-02    0.07       0.0  T
   2    -84.3368830  0.600974E-02  0.230E-01    0.12       1.0  T
   3    -84.3429383 -0.605532E-02  0.603E-03    0.08       2.6  T
   4    -84.3429352  0.313065E-05  0.750E-03    0.08       2.1  T
   5    -84.3429415 -0.638057E-05  0.164E-03    0.08       9.4  T
   6    -84.3429417 -0.208289E-06  0.594E-04    0.08      26.0  T
   7    -84.3429418 -0.338572E-07  0.150E-04    0.08     102.7  T
   8    -84.3429418 -0.220405E-08  0.667E-05    0.08     231.4  T
     SCC iter.                  ...        0 min,  0.042 sec
     gradient                   ...        0 min,  0.061 sec
 * total energy  :   -83.6220940 Eh     change       -0.4579202E-04 Eh
   gradient norm :     0.0033245 Eh/α   predicted    -0.3075225E-04 ( -32.84%)
   displ. norm   :     0.1403883 α      lambda       -0.5079952E-04
   maximum displ.:     0.0985868 α      in ANC's #2, #6, #8, ...

........................................................................
.............................. CYCLE   14 ..............................
........................................................................
   1    -84.3427229 -0.843427E+02  0.544E-03    0.08       0.0  T
   2    -84.3422642  0.458710E-03  0.621E-02    0.07       1.0  T
   3    -84.3427183 -0.454029E-03  0.863E-03    0.08       1.8  T
   4    -84.3427194 -0.114835E-05  0.746E-03    0.08       2.1  T
   5    -84.3427245 -0.505542E-05  0.331E-03    0.08       4.7  T
   6    -84.3427255 -0.108316E-05  0.317E-04    0.08      48.7  T
   7    -84.3427256 -0.895315E-08  0.306E-05    0.08     504.1  T
   8    -84.3427256  0.262048E-10  0.247E-05    0.08     625.9  T
     SCC iter.                  ...        0 min,  0.039 sec
     gradient                   ...        0 min,  0.057 sec
 * total energy  :   -83.6221349 Eh     change       -0.4098418E-04 Eh
   gradient norm :     0.0030593 Eh/α   predicted    -0.2590408E-04 ( -36.79%)
   displ. norm   :     0.1646489 α      lambda       -0.5169629E-04
   maximum displ.:     0.1134857 α      in ANC's #2, #8, #6, ...

........................................................................
.............................. CYCLE   15 ..............................
........................................................................
   1    -84.3425274 -0.843425E+02  0.162E-02    0.08       0.0  T
   2    -84.3346785  0.784896E-02  0.258E-01    0.05       1.0  T
   3    -84.3425223 -0.784378E-02  0.171E-02    0.08       1.0  T
   4    -84.3425403 -0.179993E-04  0.113E-02    0.08       1.4  T
   5    -84.3425513 -0.110006E-04  0.506E-03    0.08       3.0  T
   6    -84.3425540 -0.277782E-05  0.728E-04    0.08      21.2  T
   7    -84.3425541 -0.403814E-07  0.313E-04    0.08      49.3  T
   8    -84.3425541 -0.113753E-07  0.421E-05    0.08     366.4  T
   9    -84.3425541 -0.157527E-09  0.897E-06    0.08    1720.9  T
     SCC iter.                  ...        0 min,  0.044 sec
     gradient                   ...        0 min,  0.056 sec
 * total energy  :   -83.6221732 Eh     change       -0.3825858E-04 Eh
   gradient norm :     0.0024042 Eh/α   predicted    -0.2655339E-04 ( -30.59%)
   displ. norm   :     0.1424474 α      lambda       -0.3320440E-04
   maximum displ.:     0.0977370 α      in ANC's #2, #8, #1, ...

........................................................................
.............................. CYCLE   16 ..............................
........................................................................
   1    -84.3422753 -0.843423E+02  0.162E-02    0.08       0.0  T
   2    -84.3345913  0.768396E-02  0.256E-01    0.05       1.0  T
   3    -84.3422662 -0.767482E-02  0.178E-02    0.08       1.0  T
   4    -84.3422934 -0.272722E-04  0.901E-03    0.08       1.7  T
   5    -84.3422947 -0.130494E-05  0.792E-03    0.08       1.9  T
   6    -84.3423013 -0.655468E-05  0.197E-03    0.08       7.8  T
   7    -84.3423017 -0.405517E-06  0.246E-04    0.08      62.6  T
   8    -84.3423017 -0.599890E-08  0.778E-05    0.08     198.5  T
   9    -84.3423017 -0.571873E-09  0.267E-05    0.08     577.2  T
     SCC iter.                  ...        0 min,  0.045 sec
     gradient                   ...        0 min,  0.058 sec
 * total energy  :   -83.6221980 Eh     change       -0.2481061E-04 Eh
   gradient norm :     0.0021373 Eh/α   predicted    -0.1694232E-04 ( -31.71%)
   displ. norm   :     0.1348582 α      lambda       -0.3030633E-04
   maximum displ.:     0.0919763 α      in ANC's #2, #1, #8, ...

........................................................................
.............................. CYCLE   17 ..............................
........................................................................
   1    -84.3425327 -0.843425E+02  0.173E-02    0.08       0.0  T
   2    -84.3337470  0.878569E-02  0.274E-01    0.05       1.0  T
   3    -84.3425237 -0.877673E-02  0.183E-02    0.08       1.0  T
   4    -84.3425578 -0.340718E-04  0.721E-03    0.08       2.1  T
   5    -84.3425586 -0.826564E-06  0.626E-03    0.08       2.5  T
   6    -84.3425626 -0.402303E-05  0.162E-03    0.08       9.6  T
   7    -84.3425629 -0.268934E-06  0.276E-04    0.08      55.8  T
   8    -84.3425629 -0.812530E-08  0.640E-05    0.08     241.1  T
   9    -84.3425629 -0.409585E-09  0.157E-05    0.08     983.2  T
     SCC iter.                  ...        0 min,  0.044 sec
     gradient                   ...        0 min,  0.056 sec
 * total energy  :   -83.6222206 Eh     change       -0.2255524E-04 Eh
   gradient norm :     0.0019307 Eh/α   predicted    -0.1543291E-04 ( -31.58%)
   displ. norm   :     0.2242784 α      lambda       -0.2987302E-04
   maximum displ.:     0.1478946 α      in ANC's #2, #1, #8, ...

........................................................................
.............................. CYCLE   18 ..............................
........................................................................
   1    -84.3424181 -0.843424E+02  0.197E-02    0.08       0.0  T
   2    -84.3311225  0.112956E-01  0.311E-01    0.05       1.0  T
   3    -84.3424076 -0.112851E-01  0.204E-02    0.08       1.0  T
   4    -84.3424536 -0.460065E-04  0.605E-03    0.08       2.6  T
   5    -84.3424540 -0.407855E-06  0.526E-03    0.08       2.9  T
   6    -84.3424570 -0.299055E-05  0.835E-04    0.08      18.5  T
   7    -84.3424571 -0.622846E-07  0.235E-04    0.08      65.6  T
   8    -84.3424571 -0.486520E-08  0.101E-04    0.08     153.5  T
   9    -84.3424571 -0.101970E-08  0.269E-05    0.08     573.1  T
     SCC iter.                  ...        0 min,  0.045 sec
     gradient                   ...        0 min,  0.057 sec
 * total energy  :   -83.6222480 Eh     change       -0.2738097E-04 Eh
   gradient norm :     0.0027334 Eh/α   predicted    -0.1527233E-04 ( -44.22%)
   displ. norm   :     0.0685495 α      lambda       -0.1993301E-04
   maximum displ.:     0.0382953 α      in ANC's #2, #1, #4, ...

........................................................................
.............................. CYCLE   19 ..............................
........................................................................
   1    -84.3431435 -0.843431E+02  0.398E-03    0.08       0.0  T
   2    -84.3429052  0.238218E-03  0.452E-02    0.09       1.0  T
   3    -84.3431437 -0.238506E-03  0.328E-03    0.08       4.7  T
   4    -84.3431442 -0.411848E-06  0.233E-03    0.08       6.6  T
   5    -84.3431447 -0.579003E-06  0.460E-04    0.08      33.6  T
   6    -84.3431447 -0.155572E-07  0.127E-04    0.08     121.3  T
   7    -84.3431447 -0.137317E-08  0.157E-05    0.08     984.2  T
     SCC iter.                  ...        0 min,  0.034 sec
     gradient                   ...        0 min,  0.057 sec
 * total energy  :   -83.6222627 Eh     change       -0.1472059E-04 Eh
   gradient norm :     0.0022510 Eh/α   predicted    -0.1001727E-04 ( -31.95%)
   displ. norm   :     0.1253618 α      lambda       -0.2793891E-04
   maximum displ.:     0.0667584 α      in ANC's #2, #1, #4, ...

........................................................................
.............................. CYCLE   20 ..............................
........................................................................
   1    -84.3432568 -0.843433E+02  0.176E-02    0.08       0.0  T
   2    -84.3388552  0.440161E-02  0.196E-01    0.12       1.0  T
   3    -84.3432824 -0.442723E-02  0.780E-03    0.08       2.0  T
   4    -84.3432892 -0.674406E-05  0.154E-03    0.08      10.0  T
   5    -84.3432882  0.958934E-06  0.316E-03    0.08       4.9  T
   6    -84.3432893 -0.105591E-05  0.267E-04    0.08      57.8  T
   7    -84.3432893 -0.377547E-08  0.318E-05    0.08     485.5  T
   8    -84.3432893  0.384972E-10  0.271E-05    0.08     569.7  T
     SCC iter.                  ...        0 min,  0.040 sec
     gradient                   ...        0 min,  0.057 sec
 * total energy  :   -83.6222816 Eh     change       -0.1890846E-04 Eh
   gradient norm :     0.0018036 Eh/α   predicted    -0.1419270E-04 ( -24.94%)
   displ. norm   :     0.1275159 α      lambda       -0.1279296E-04
   maximum displ.:     0.0690709 α      in ANC's #1, #2, #4, ...
 * RMSD in coord.:     0.5245189 α      energy gain  -0.1687001E-01 Eh

generating ANC from model Hessian ...
Using Lindh-Hessian (1995)
 Shifting diagonal of input Hessian by   9.852678763557502E-003
 Lowest  eigenvalues of input Hessian
    0.000000    0.000000    0.000000    0.000000    0.000000    0.000000
    0.010000    0.010253    0.010533    0.011114    0.011453    0.012694
    0.013021    0.014239    0.015598    0.015930    0.016150    0.017023
 Highest eigenvalues
    1.994287    2.089072    2.136849    2.206527    2.274403    2.300253
 

........................................................................
.............................. CYCLE   21 ..............................
........................................................................
   1    -84.3428987 -0.843429E+02  0.291E-02    0.08       0.0  T
   2    -84.3337746  0.912409E-02  0.284E-01    0.14       1.0  T
   3    -84.3429875 -0.921292E-02  0.545E-03    0.08       2.8  T
   4    -84.3429852  0.231639E-05  0.653E-03    0.08       2.4  T
   5    -84.3429895 -0.429911E-05  0.279E-03    0.08       5.5  T
   6    -84.3429900 -0.467368E-06  0.181E-03    0.08       8.5  T
   7    -84.3429903 -0.383856E-06  0.943E-05    0.08     163.6  T
   8    -84.3429903 -0.244071E-09  0.796E-05    0.08     193.7  T
     SCC iter.                  ...        0 min,  0.039 sec
     gradient                   ...        0 min,  0.058 sec
 * total energy  :   -83.6222931 Eh     change       -0.1146771E-04 Eh
   gradient norm :     0.0017155 Eh/α   predicted     0.0000000E+00 (-100.00%)
   displ. norm   :     0.0215974 α      lambda       -0.3438144E-05
   maximum displ.:     0.0092119 α      in ANC's #1, #3, #14, ...

........................................................................
.............................. CYCLE   22 ..............................
........................................................................
   1    -84.3428407 -0.843428E+02  0.633E-03    0.08       0.0  T
   2    -84.3420181  0.822567E-03  0.845E-02    0.09       1.0  T
   3    -84.3428450 -0.826907E-03  0.195E-03    0.08       7.9  T
   4    -84.3428441  0.882505E-06  0.329E-03    0.08       4.7  T
   5    -84.3428450 -0.936148E-06  0.158E-03    0.08       9.8  T
   6    -84.3428452 -0.167880E-06  0.863E-04    0.08      17.9  T
   7    -84.3428453 -0.787155E-07  0.738E-05    0.08     209.2  T
   8    -84.3428453 -0.483112E-09  0.275E-05    0.08     561.7  T
     SCC iter.                  ...        0 min,  0.040 sec
     gradient                   ...        0 min,  0.057 sec
 * total energy  :   -83.6223000 Eh     change       -0.6928491E-05 Eh
   gradient norm :     0.0006451 Eh/α   predicted    -0.2935543E-05 ( -57.63%)
   displ. norm   :     0.0546835 α      lambda       -0.7523820E-05
   maximum displ.:     0.0252557 α      in ANC's #1, #3, #14, ...

........................................................................
.............................. CYCLE   23 ..............................
........................................................................
   1    -84.3427037 -0.843427E+02  0.119E-02    0.08       0.0  T
   2    -84.3402356  0.246816E-02  0.147E-01    0.10       1.0  T
   3    -84.3427194 -0.248386E-02  0.237E-03    0.08       6.5  T
   4    -84.3427160  0.345600E-05  0.582E-03    0.08       2.6  T
   5    -84.3427190 -0.305586E-05  0.268E-03    0.08       5.8  T
   6    -84.3427197 -0.640786E-06  0.907E-04    0.08      17.0  T
   7    -84.3427197 -0.793147E-07  0.186E-04    0.08      82.7  T
   8    -84.3427197 -0.352571E-08  0.358E-05    0.08     431.2  T
     SCC iter.                  ...        0 min,  0.040 sec
     gradient                   ...        0 min,  0.057 sec
 * total energy  :   -83.6223079 Eh     change       -0.7954661E-05 Eh
   gradient norm :     0.0009562 Eh/α   predicted    -0.4171318E-05 ( -47.56%)
   displ. norm   :     0.0415339 α      lambda       -0.3080651E-05
   maximum displ.:     0.0218512 α      in ANC's #1, #3, #4, ...

........................................................................
.............................. CYCLE   24 ..............................
........................................................................
   1    -84.3427300 -0.843427E+02  0.108E-02    0.08       0.0  T
   2    -84.3406132  0.211677E-02  0.136E-01    0.10       1.0  T
   3    -84.3427427 -0.212953E-02  0.163E-03    0.08       9.5  T
   4    -84.3427424  0.310586E-06  0.230E-03    0.08       6.7  T
   5    -84.3427430 -0.578381E-06  0.602E-04    0.08      25.6  T
   6    -84.3427430 -0.330225E-07  0.155E-04    0.08      99.8  T
   7    -84.3427430 -0.180260E-08  0.573E-05    0.08     269.5  T
     SCC iter.                  ...        0 min,  0.031 sec
     gradient                   ...        0 min,  0.059 sec
 * total energy  :   -83.6223116 Eh     change       -0.3693990E-05 Eh
   gradient norm :     0.0010265 Eh/α   predicted    -0.1673146E-05 ( -54.71%)
   displ. norm   :     0.0606671 α      lambda       -0.4262693E-05
   maximum displ.:     0.0335165 α      in ANC's #1, #3, #8, ...

........................................................................
.............................. CYCLE   25 ..............................
........................................................................
   1    -84.3427599 -0.843428E+02  0.140E-02    0.08       0.0  T
   2    -84.3394544  0.330547E-02  0.169E-01    0.11       1.0  T
   3    -84.3427817 -0.332728E-02  0.156E-03    0.08       9.9  T
   4    -84.3427815  0.207091E-06  0.195E-03    0.08       7.9  T
   5    -84.3427819 -0.449630E-06  0.328E-04    0.08      47.0  T
   6    -84.3427819 -0.518824E-08  0.120E-04    0.08     128.7  T
   7    -84.3427819 -0.103235E-08  0.454E-05    0.08     339.5  T
     SCC iter.                  ...        0 min,  0.034 sec
     gradient                   ...        0 min,  0.056 sec
 * total energy  :   -83.6223159 Eh     change       -0.4296167E-05 Eh
   gradient norm :     0.0006939 Eh/α   predicted    -0.2136323E-05 ( -50.27%)
   displ. norm   :     0.0554311 α      lambda       -0.3514665E-05
   maximum displ.:     0.0323773 α      in ANC's #1, #3, #6, ...

   *** GEOMETRY OPTIMIZATION CONVERGED AFTER 25 ITERATIONS ***

------------------------------------------------------------------------
 total energy gain   :        -0.0169043 Eh      -10.6076 kcal/mol
 total RMSD          :         0.5238024 a0        0.2772 Å
 total power (kW/mol):        -1.7752944 (step)  -13.0647 (real)
------------------------------------------------------------------------

 ANCopt (total)                0 d,  0 h,  0 min,  3.397 sec
 optimizer setup                ...        0 min,  0.001 sec (  0.023%)
 model hessian                  ...        0 min,  0.062 sec (  1.823%)
 ANC generation                 ...        0 min,  0.005 sec (  0.148%)
 coordinate transformation      ...        0 min,  0.001 sec (  0.016%)
 single point calculation       ...        0 min,  3.319 sec ( 97.699%)
 optimization log               ...        0 min,  0.005 sec (  0.160%)
 hessian update                 ...        0 min,  0.001 sec (  0.015%)
 rational function              ...        0 min,  0.002 sec (  0.070%)

================
 final structure:
================
42
 xtb: 6.5.1 (579679a)
C            3.89424583954606        3.51615442109420       -1.96870478558787
O            3.27720896347507        2.85924217941496       -0.87823497999919
C            2.69085089515183        1.65369272499759       -1.16815563121693
O            2.72589918013593        1.23186715047331       -2.32728972522240
C            2.05411236676491        0.97783029890677       -0.04629730829552
C            1.98537339538945        1.55120823677314        1.26161618204389
O            2.60894395833643        2.58527047542341        1.65580255895717
C            1.03381040833431        0.88157492720834        2.19409437427697
O            0.70092931162663        1.33096873502425        3.30049410811066
N            0.40467823749065       -0.25594732473096        1.72173394918691
C            1.02667689243423       -1.04855587079563        0.66326469896616
C            2.21276490713503       -1.84163874141781        1.27558915929829
C           -0.05803984802905       -1.99735598428605        0.04904703440482
C            0.52004901846915       -2.71822967012215       -1.17672559336757
C           -0.60384334627083       -3.02764525367666        1.04828988768276
N           -1.13642943180536       -1.09942067771470       -0.37075998537194
C           -2.31288963888901       -1.51513131832324       -0.92305721859225
O           -2.51695995695772       -2.66313358632469       -1.36118253208315
C           -3.31961859171908       -0.47240895540912       -1.01107428687364
N           -4.52703618720677       -0.56357584573867       -1.54701284270638
N           -5.11402135793612        0.66257700252664       -1.39730335588840
C           -4.26114973789295        1.42504151039898       -0.79261223131917
C           -4.44651430253690        2.84527451085548       -0.40805293286626
O           -3.10094496242054        0.79025317375389       -0.51378049928306
N            1.49159291631929       -0.21052523962487       -0.39978141572889
H            4.34304898489713        4.43252857635243       -1.58479831906746
H            4.67372182483128        2.88926128875209       -2.41662957699453
H            3.16253353995428        3.76659641296302       -2.74557912580919
H           -0.07149314422853       -0.78062983932049        2.43873443170379
H            1.88193881577475       -2.46066295005958        2.10641030060390
H            2.68005862465124       -2.46968978937931        0.52048320598493
H            2.95448457796460       -1.13328637792721        1.64485814012059
H           -0.25983186861115       -3.26769154144978       -1.70133313217191
H            0.96673211039975       -1.98942582651252       -1.85548365767544
H            1.28543918802604       -3.42834604297101       -0.86766740863187
H           -1.02663111564597       -2.53924322130987        1.92490566890256
H           -1.38595058106785       -3.62196417089260        0.57615183048489
H            0.18736335382343       -3.70218516414060        1.36925139513613
H           -1.14468077401541       -0.20122141794176        0.10064149636168
H           -4.33829055220809        2.96378421438277        0.67029206057625
H           -5.43921628454579        3.17242015000977       -0.70702824020054
H           -3.69891662894316        3.47236782075132       -0.89485669784888
 
 Bond Distances (Angstroems)
 ---------------------------
C1-O2=1.4147         C1-H26=1.0902        C1-H27=1.0960        C1-H28=1.0962        O2-C1=1.4147         O2-C3=1.3716         
C3-O2=1.3716         C3-O4=1.2340         C3-C5=1.4563         O4-C3=1.2340         C5-C3=1.4563         C5-C6=1.4297         
C5-N25=1.3615        C6-C5=1.4297         C6-O7=1.2702         C6-C8=1.4911         O7-C6=1.2702         C8-C6=1.4911         
C8-O9=1.2397         C8-N10=1.3831        O9-C8=1.2397         N10-C8=1.3831        N10-C11=1.4613       N10-H29=1.0080       
C11-N10=1.4613       C11-C12=1.5527       C11-C13=1.5666       C11-N25=1.4313       C12-C11=1.5527       C12-H30=1.0876       
C12-H31=1.0877       C12-H32=1.0901       C13-C11=1.5666       C13-C14=1.5350       C13-C15=1.5355       C13-N16=1.4647       
C14-C13=1.5350       C14-H33=1.0887       C14-H34=1.0915       C14-H35=1.0889       C15-C13=1.5355       C15-H36=1.0889       
C15-H37=1.0899       C15-H38=1.0881       N16-C13=1.4647       N16-C17=1.3645       N16-H39=1.0144       C17-N16=1.3645       
C17-O18=1.2456       C17-C19=1.4521       O18-C17=1.2456       C19-C17=1.4521       C19-N20=1.3242       C19-O24=1.3746       
N20-C19=1.3242       N20-N21=1.3676       N21-N20=1.3676       N21-C22=1.2940       C22-N21=1.2940       C22-C23=1.4830       
C22-O24=1.3516       C23-C22=1.4830       C23-H40=1.0902       C23-H41=1.0871       C23-H42=1.0905       O24-C19=1.3746       
O24-C22=1.3516       N25-C5=1.3615        N25-C11=1.4313       H26-C1=1.0902        H27-C1=1.0960        H28-C1=1.0962        
H29-N10=1.0080       H30-C12=1.0876       H31-C12=1.0877       H32-C12=1.0901       H33-C14=1.0887       H34-C14=1.0915       
H35-C14=1.0889       H36-C15=1.0889       H37-C15=1.0899       H38-C15=1.0881       H39-N16=1.0144       H40-C23=1.0902       
H41-C23=1.0871       H42-C23=1.0905       
 C  H  Rav=1.0901 sigma=0.0026  Rmin=1.0871  Rmax=1.0962    15
 C  C  Rav=1.5002 sigma=0.0462  Rmin=1.4297  Rmax=1.5666     9
 N  H  Rav=1.0112 sigma=0.0032  Rmin=1.0080  Rmax=1.0144     2
 N  C  Rav=1.3856 sigma=0.0584  Rmin=1.2940  Rmax=1.4647     8
 N  N  Rav=1.3676 sigma=0.0000  Rmin=1.3676  Rmax=1.3676     1
 O  C  Rav=1.3127 sigma=0.0680  Rmin=1.2340  Rmax=1.4147     8
 
 selected bond angles (degree)
 --------------------
H26-C1-O2=107.36               H27-C1-O2=111.08               H27-C1-H26=109.39              H28-C1-O2=111.18               
H28-C1-H26=109.41              H28-C1-H27=108.41              C3-O2-C1=115.57                O4-C3-O2=119.13                
C5-C3-O2=115.59                C5-C3-O4=125.27                C6-C5-C3=122.66                N25-C5-C3=112.69               
N25-C5-C6=124.59               O7-C6-C5=125.93                C8-C6-C5=115.00                C8-C6-O7=119.00                
O9-C8-C6=124.52                N10-C8-C6=116.49               N10-C8-O9=118.74               C11-N10-C8=119.99              
H29-N10-C8=113.58              H29-N10-C11=115.72             
 
 selected dihedral angles (degree)
 ---------------------------------
C3-O2-C1-H26=181.99           C3-O2-C1-H27=301.54           C3-O2-C1-H28= 62.35           O4-C3-O2-C1=359.46            
C5-C3-O2-C1=180.07            C6-C5-C3-O2=  2.74            C6-C5-C3-O4=183.40            N25-C5-C3-O2=179.97           
N25-C5-C3-O4=  0.63           O7-C6-C5-C3=349.35            O7-C6-C5-N25=172.46           C8-C6-C5-C3=166.24            
C8-C6-C5-N25=349.35           O9-C8-C6-C5=190.08            O9-C8-C6-O7=  7.20            N10-C8-C6-C5=  4.22           
N10-C8-C6-O7=181.34           C11-N10-C8-C6= 24.75          C11-N10-C8-O9=199.24          H29-N10-C8-C6=167.74          
H29-N10-C8-O9=342.24          
           -------------------------------------------------
          |                Final Singlepoint                |
           -------------------------------------------------

          ...................................................
          :                      SETUP                      :
          :.................................................:
          :  # basis functions                 134          :
          :  # atomic orbitals                 134          :
          :  # shells                           84          :
          :  # electrons                       136          :
          :  # halogen bonds                     0          :
          :  max. iterations                   250          :
          :  Hamiltonian                  GFN1-xTB          :
          :  restarted?                      false          :
          :  GBSA solvation                   true          :
          :  PC potential                    false          :
          :  electronic temp.          300.0000000     K    :
          :  accuracy                    1.0000000          :
          :  -> integral cutoff          0.2500000E+02      :
          :  -> integral neglect         0.1000000E-07      :
          :  -> SCF convergence          0.1000000E-05 Eh   :
          :  -> wf. convergence          0.2000000E-04 e    :
          :  Broyden damping             0.4000000          :
          ...................................................

 iter      E             dE          RMSdq      gap      omega  full diag
   1    -84.3427819 -0.843428E+02  0.111E-05    0.08       0.0  T
   2    -84.3427819  0.238524E-08  0.143E-04    0.08     107.9  T
   3    -84.3427819 -0.239599E-08  0.333E-06    0.08    4636.9  T

   *** convergence criteria satisfied after 3 iterations ***

         #    Occupation            Energy/Eh            Energy/eV
      -------------------------------------------------------------
         1        2.0000           -0.8181122             -22.2620
       ...           ...                  ...                  ...
        62        2.0000           -0.4041684             -10.9980
        63        2.0000           -0.3965334             -10.7902
        64        2.0000           -0.3915081             -10.6535
        65        2.0000           -0.3802470             -10.3470
        66        2.0000           -0.3639278              -9.9030
        67        2.0000           -0.3341863              -9.0937
        68        1.6483           -0.2750698              -7.4850 (HOMO)
        69        0.3517           -0.2721350              -7.4052 (LUMO)
        70                         -0.2382246              -6.4824
        71                         -0.2216707              -6.0320
        72                         -0.1651172              -4.4931
        73                         -0.1514961              -4.1224
       ...                                ...                  ...
       134                          0.7390292              20.1100
      -------------------------------------------------------------
                  HL-Gap            0.0029348 Eh            0.0799 eV
             Fermi-level           -0.2736024 Eh           -7.4451 eV

 SCC (total)                   0 d,  0 h,  0 min,  0.098 sec
 SCC setup                      ...        0 min,  0.002 sec (  1.669%)
 Dispersion                     ...        0 min,  0.000 sec (  0.232%)
 classical contributions        ...        0 min,  0.000 sec (  0.079%)
 integral evaluation            ...        0 min,  0.024 sec ( 24.576%)
 iterations                     ...        0 min,  0.015 sec ( 15.311%)
 molecular gradient             ...        0 min,  0.056 sec ( 56.985%)
 printout                       ...        0 min,  0.001 sec (  1.126%)

         :::::::::::::::::::::::::::::::::::::::::::::::::::::
         ::                     SUMMARY                     ::
         :::::::::::::::::::::::::::::::::::::::::::::::::::::
         :: total energy             -83.622315923656 Eh    ::
         :: total w/o Gsasa/hb       -83.603671451516 Eh    ::
         :: gradient norm              0.000696382201 Eh/a0 ::
         :: HOMO-LUMO gap              0.079861046733 eV    ::
         ::.................................................::
         :: SCC energy               -84.342781920455 Eh    ::
         :: -> electrostatic           0.701124766780 Eh    ::
         :: -> Gsolv                  -0.272778760151 Eh    ::
         ::    -> Gelec               -0.254134288010 Eh    ::
         ::    -> Gsasa               -0.023944304509 Eh    ::
         ::    -> Ghb                 -0.002324446636 Eh    ::
         ::    -> Gshift               0.007624279005 Eh    ::
         :: repulsion energy           0.747679869082 Eh    ::
         :: dispersion energy         -0.027213872283 Eh    ::
         :: halogen bond corr.         0.000000000000 Eh    ::
         :: add. restraining           0.000000000000 Eh    ::
         :: total charge              -2.000000000000 e     ::
         :::::::::::::::::::::::::::::::::::::::::::::::::::::

           -------------------------------------------------
          |                Property Printout                |
           -------------------------------------------------

    * Orbital Energies and Occupations

         #    Occupation            Energy/Eh            Energy/eV
      -------------------------------------------------------------
         1        2.0000           -0.8181122             -22.2620
       ...           ...                  ...                  ...
        56        2.0000           -0.4416056             -12.0167
        57        2.0000           -0.4385186             -11.9327
        58        2.0000           -0.4192831             -11.4093
        59        2.0000           -0.4161376             -11.3237
        60        2.0000           -0.4140012             -11.2655
        61        2.0000           -0.4075113             -11.0889
        62        2.0000           -0.4041684             -10.9980
        63        2.0000           -0.3965334             -10.7902
        64        2.0000           -0.3915081             -10.6535
        65        2.0000           -0.3802470             -10.3470
        66        2.0000           -0.3639278              -9.9030
        67        2.0000           -0.3341863              -9.0937
        68        1.6483           -0.2750698              -7.4850 (HOMO)
        69        0.3517           -0.2721350              -7.4052 (LUMO)
        70                         -0.2382246              -6.4824
        71                         -0.2216707              -6.0320
        72                         -0.1651172              -4.4931
        73                         -0.1514961              -4.1224
        74                         -0.1286495              -3.5007
        75                         -0.1121100              -3.0507
        76                         -0.1068056              -2.9063
        77                         -0.0996029              -2.7103
        78                         -0.0858316              -2.3356
        79                         -0.0833650              -2.2685
       ...                                ...                  ...
       134                          0.7390292              20.1100
      -------------------------------------------------------------
                  HL-Gap            0.0029348 Eh            0.0799 eV
             Fermi-level           -0.2736024 Eh           -7.4451 eV

  Mulliken/CM5 charges         n(s)   n(p)   n(d)
     1C     0.17825  0.05965   0.966  2.856  0.000
     2O    -0.44079 -0.52275   1.690  4.750  0.000
     3C     0.52512  0.58853   0.986  2.489  0.000
     4O    -0.64750 -0.69050   1.741  4.906  0.000
     5C     0.01946  0.09782   1.049  2.931  0.000
     6C     0.22766  0.27028   1.026  2.747  0.000
     7O    -0.69503 -0.73105   1.758  4.937  0.000
     8C     0.41562  0.51477   1.016  2.568  0.000
     9O    -0.65240 -0.68972   1.745  4.908  0.000
    10N    -0.39545 -0.74333   1.450  3.945  0.000
    11C     0.26625  0.36861   1.045  2.689  0.000
    12C    -0.11596 -0.25254   1.021  3.095  0.000
    13C     0.15698  0.19646   1.069  2.774  0.000
    14C    -0.08934 -0.22828   1.011  3.078  0.000
    15C    -0.11057 -0.25178   1.017  3.094  0.000
    16N    -0.34378 -0.69017   1.433  3.911  0.000
    17C     0.41320  0.51699   0.973  2.614  0.000
    18O    -0.65324 -0.69705   1.740  4.913  0.000
    19C     0.28883  0.40719   1.007  2.704  0.000
    20N    -0.30204 -0.39999   1.579  3.723  0.000
    21N    -0.30243 -0.41018   1.570  3.733  0.000
    22C     0.36734  0.47596   0.996  2.636  0.000
    23C    -0.10865 -0.24592   1.009  3.100  0.000
    24O    -0.39100 -0.44572   1.705  4.686  0.000
    25N    -0.53438 -0.70900   1.561  3.973  0.000
    26H     0.02343  0.08362   0.977  0.000  0.000
    27H     0.02307  0.08494   0.977  0.000  0.000
    28H     0.02191  0.08329   0.978  0.000  0.000
    29H     0.21760  0.42037   0.782  0.000  0.000
    30H     0.02046  0.07690   0.980  0.000  0.000
    31H     0.02462  0.08096   0.975  0.000  0.000
    32H     0.02945  0.08879   0.971  0.000  0.000
    33H     0.03087  0.09200   0.969  0.000  0.000
    34H     0.02566  0.08786   0.974  0.000  0.000
    35H     0.01520  0.07001   0.985  0.000  0.000
    36H     0.02814  0.08635   0.972  0.000  0.000
    37H     0.04167  0.10183   0.958  0.000  0.000
    38H     0.02596  0.08055   0.974  0.000  0.000
    39H     0.22119  0.43511   0.779  0.000  0.000
    40H     0.06198  0.11630   0.938  0.000  0.000
    41H     0.05172  0.10768   0.948  0.000  0.000
    42H     0.06091  0.11516   0.939  0.000  0.000

Wiberg/Mayer (AO) data.
largest (>0.10) Wiberg bond orders for each atom

 ---------------------------------------------------------------------------
     #   Z sym  total        # sym  WBO       # sym  WBO       # sym  WBO
 ---------------------------------------------------------------------------
     1   6 C    3.912 --    26 H    0.987    28 H    0.980    27 H    0.980
                             2 O    0.939
     2   8 O    2.135 --     3 C    1.015     1 C    0.939     4 O    0.101
     3   6 C    3.813 --     4 O    1.545     5 C    1.115     2 O    1.015
     4   8 O    1.813 --     3 C    1.545     2 O    0.101
     5   6 C    3.911 --    25 N    1.283     6 C    1.224     3 C    1.115
     6   6 C    3.867 --     7 O    1.412     5 C    1.224     8 C    1.012
     7   8 O    1.654 --     6 C    1.412
     8   6 C    3.855 --     9 O    1.535    10 N    1.139     6 C    1.012
     9   8 O    1.795 --     8 C    1.535    10 N    0.123
    10   7 N    3.241 --     8 C    1.139    11 C    0.926    29 H    0.917
                             9 O    0.123
    11   6 C    3.942 --    25 N    1.024    12 C    0.963    13 C    0.949
                            10 N    0.926
    12   6 C    3.974 --    30 H    0.985    32 H    0.984    31 H    0.983
                            11 C    0.963
    13   6 C    3.934 --    14 C    0.998    15 C    0.993    11 C    0.949
                            16 N    0.932
    14   6 C    3.994 --    13 C    0.998    35 H    0.985    33 H    0.982
                            34 H    0.980
    15   6 C    3.992 --    13 C    0.993    38 H    0.984    36 H    0.982
                            37 H    0.981
    16   7 N    3.263 --    17 C    1.195    13 C    0.932    39 H    0.903
                            18 O    0.142
    17   6 C    3.822 --    18 O    1.464    16 N    1.195    19 C    1.083
    18   8 O    1.741 --    17 C    1.464    16 N    0.142
    19   6 C    3.730 --    20 N    1.472    17 C    1.083    24 O    0.992
    20   7 N    2.801 --    19 C    1.472    21 N    1.188
    21   7 N    2.980 --    22 C    1.626    20 N    1.188
    22   6 C    3.829 --    21 N    1.626    24 O    1.053    23 C    1.026
    23   6 C    3.993 --    22 C    1.026    41 H    0.985    40 H    0.969
                            42 H    0.969
    24   8 O    2.222 --    22 C    1.053    19 C    0.992
    25   7 N    2.636 --     5 C    1.283    11 C    1.024
    26   1 H    1.018 --     1 C    0.987
    27   1 H    1.018 --     1 C    0.980
    28   1 H    1.017 --     1 C    0.980
    29   1 H    0.968 --    10 N    0.917
    30   1 H    1.006 --    12 C    0.985
    31   1 H    1.012 --    12 C    0.983
    32   1 H    1.011 --    12 C    0.984
    33   1 H    1.020 --    14 C    0.982
    34   1 H    1.035 --    14 C    0.980
    35   1 H    1.008 --    14 C    0.985
    36   1 H    1.006 --    15 C    0.982
    37   1 H    1.015 --    15 C    0.981
    38   1 H    1.007 --    15 C    0.984
    39   1 H    0.978 --    16 N    0.903
    40   1 H    0.999 --    23 C    0.969
    41   1 H    1.003 --    23 C    0.985
    42   1 H    1.000 --    23 C    0.969
 ---------------------------------------------------------------------------

Topologies differ in total number of bonds
Writing topology from bond orders to xtbtopo.mol

 dipole moment from electron density (au)
     X       Y       Z   
  -1.1685  -1.4126   0.8865  total (Debye):    5.176

           -------------------------------------------------
          |                Geometry Summary                 |
           -------------------------------------------------

      molecular mass/u    :      351.3152409
   center of mass at/Å    :       -0.1579064       0.2146945      -0.1234820
  moments of inertia/u·Å² :        0.1798758E+04   0.3449967E+04   0.3935278E+04
rotational constants/cm⁻¹ :        0.9371816E-02   0.4886316E-02   0.4283721E-02

 * 35 selected distances

     #   Z          #   Z                                           value/Å
     1   6 C        2   8 O                                       1.4147060
     2   8 O        3   6 C                                       1.3715756
     3   6 C        4   8 O                                       1.2340005
     5   6 C        6   6 C                                       1.4297291
     8   6 C        9   8 O                                       1.2397118
     8   6 C       10   7 N                                       1.3830723
    10   7 N       11   6 C                                       1.4613241
    13   6 C       14   6 C                                       1.5350455
    13   6 C       15   6 C                                       1.5355403 (max)
    13   6 C       16   7 N                                       1.4647356
    16   7 N       17   6 C                                       1.3645170
    17   6 C       19   6 C                                       1.4520746
    19   6 C       20   7 N                                       1.3241598
    21   7 N       22   6 C                                       1.2939837
    22   6 C       23   6 C                                       1.4830064
    19   6 C       24   8 O                                       1.3745673
    22   6 C       24   8 O                                       1.3515838
     5   6 C       25   7 N                                       1.3614582
     1   6 C       26   1 H                                       1.0902065
     1   6 C       27   1 H                                       1.0959994
     1   6 C       28   1 H                                       1.0962016
    10   7 N       29   1 H                                       1.0080282 (min)
    12   6 C       30   1 H                                       1.0876125
    12   6 C       31   1 H                                       1.0876565
    12   6 C       32   1 H                                       1.0900784
    14   6 C       33   1 H                                       1.0887313
    14   6 C       34   1 H                                       1.0915098
    14   6 C       35   1 H                                       1.0888547
    15   6 C       36   1 H                                       1.0889176
    15   6 C       37   1 H                                       1.0898721
    15   6 C       38   1 H                                       1.0881308
    16   7 N       39   1 H                                       1.0144208
    23   6 C       40   1 H                                       1.0902225
    23   6 C       41   1 H                                       1.0871375
    23   6 C       42   1 H                                       1.0904707

 * 5 distinct bonds (by element types)

   Z      Z             #   av. dist./Å        max./Å        min./Å
   1 H    6 C          15     1.0901068     1.0962016     1.0871375
   6 C    6 C           5     1.4870792     1.5355403     1.4297291
   1 H    7 N           2     1.0112245     1.0144208     1.0080282
   6 C    7 N           7     1.3790358     1.4647356     1.2939837
   6 C    8 O           6     1.3310242     1.4147060     1.2340005


optimized geometry written to: xtbopt.xyz


           -------------------------------------------------
          | TOTAL ENERGY              -83.622315923656 Eh   |
          | GRADIENT NORM               0.000696382201 Eh/α |
          | HOMO-LUMO GAP               0.079861046733 eV   |
           -------------------------------------------------

------------------------------------------------------------------------
 * finished run on 2023/06/21 at 17:07:43.247     
------------------------------------------------------------------------
 total:
 * wall-time:     0 d,  0 h,  0 min,  3.847 sec
 *  cpu-time:     0 d,  0 h,  0 min,  3.691 sec
 * ratio c/w:     0.959 speedup
 SCF:
 * wall-time:     0 d,  0 h,  0 min,  0.203 sec
 *  cpu-time:     0 d,  0 h,  0 min,  0.199 sec
 * ratio c/w:     0.979 speedup
 ANC optimizer:
 * wall-time:     0 d,  0 h,  0 min,  3.501 sec
 *  cpu-time:     0 d,  0 h,  0 min,  3.455 sec
 * ratio c/w:     0.987 speedup

