      -----------------------------------------------------------      
     |                   =====================                   |     
     |                           x T B                           |     
     |                   =====================                   |     
     |                         S. Grimme                         |     
     |          Mulliken Center for Theoretical Chemistry        |     
     |                    University of Bonn                     |     
      -----------------------------------------------------------      

   * xtb version 6.5.1 (579679a) compiled by 'ehlert@majestix' on 2022-07-11

   xtb is free software: you can redistribute it and/or modify it under
   the terms of the GNU Lesser General Public License as published by
   the Free Software Foundation, either version 3 of the License, or
   (at your option) any later version.
   
   xtb is distributed in the hope that it will be useful,
   but WITHOUT ANY WARRANTY; without even the implied warranty of
   MERCHANTABILITY or FITNESS FOR A PARTICULAR PURPOSE.  See the
   GNU Lesser General Public License for more details.
   
   Cite this work as:
   * C. Bannwarth, E. Caldeweyher, S. Ehlert, A. Hansen, P. Pracht,
     J. Seibert, S. Spicher, S. Grimme, WIREs Comput. Mol. Sci., 2020, 11,
     e01493. DOI: 10.1002/wcms.1493
   
   for GFN2-xTB:
   * C. Bannwarth, S. Ehlert and S. Grimme., J. Chem. Theory Comput., 2019,
     15, 1652-1671. DOI: 10.1021/acs.jctc.8b01176
   for GFN1-xTB:
   * S. Grimme, C. Bannwarth, P. Shushkov, J. Chem. Theory Comput., 2017,
     13, 1989-2009. DOI: 10.1021/acs.jctc.7b00118
   for GFN0-xTB:
   * P. Pracht, E. Caldeweyher, S. Ehlert, S. Grimme, ChemRxiv, 2019, preprint.
     DOI: 10.26434/chemrxiv.8326202.v1
   for GFN-FF:
   * S. Spicher and S. Grimme, Angew. Chem. Int. Ed., 2020, 59, 15665-15673.
     DOI: 10.1002/anie.202004239
   
   for ALPB and GBSA implicit solvation:
   * S. Ehlert, M. Stahn, S. Spicher, S. Grimme, J. Chem. Theory Comput.,
     2021, 17, 4250-4261. DOI: 10.1021/acs.jctc.1c00471
   
   for DFT-D4:
   * E. Caldeweyher, C. Bannwarth and S. Grimme, J. Chem. Phys., 2017,
     147, 034112. DOI: 10.1063/1.4993215
   * E. Caldeweyher, S. Ehlert, A. Hansen, H. Neugebauer, S. Spicher,
     C. Bannwarth and S. Grimme, J. Chem. Phys., 2019, 150, 154122.
     DOI: 10.1063/1.5090222
   * E. Caldeweyher, J.-M. Mewes, S. Ehlert and S. Grimme, Phys. Chem. Chem. Phys.
     2020, 22, 8499-8512. DOI: 10.1039/D0CP00502A
   
   for sTDA-xTB:
   * S. Grimme and C. Bannwarth, J. Chem. Phys., 2016, 145, 054103.
     DOI: 10.1063/1.4959605
   
   in the mass-spec context:
   * V. Asgeirsson, C. Bauer and S. Grimme, Chem. Sci., 2017, 8, 4879.
     DOI: 10.1039/c7sc00601b
   * J. Koopman and S. Grimme, ACS Omega 2019, 4, 12, 15120-15133.
     DOI: 10.1021/acsomega.9b02011
   
   for metadynamics refer to:
   * S. Grimme, J. Chem. Theory Comput., 2019, 155, 2847-2862
     DOI: 10.1021/acs.jctc.9b00143
   
   for SPH calculations refer to:
   * S. Spicher and S. Grimme, J. Chem. Theory Comput., 2021, 17, 1701-1714
     DOI: 10.1021/acs.jctc.0c01306
   
   with help from (in alphabetical order)
   P. Atkinson, C. Bannwarth, F. Bohle, G. Brandenburg, E. Caldeweyher
   M. Checinski, S. Dohm, S. Ehlert, S. Ehrlich, I. Gerasimov, C. Hölzer
   A. Katbashev, J. Koopman, C. Lavigne, S. Lehtola, F. März, M. Müller,
   F. Musil, H. Neugebauer, J. Pisarek, C. Plett, P. Pracht, F. Pultar,
   J. Seibert, P. Shushkov, S. Spicher, M. Stahn, M. Steiner, T. Strunk,
   J. Stückrath, T. Rose, and J. Unsleber
   
 * started run on 2023/06/20 at 14:57:13.675     

           -------------------------------------------------
          |                Calculation Setup                |
           -------------------------------------------------

          program call               : /lustre/hpc/kemi/ree/PhD/git/ReactivityQM/dep/xtb-6.5.1/bin/xtb --gfn 1 /lustre/hpc/kemi/ree/PhD/git/ReactivityQM/calculations/R02/reac01prodE04/conf20/R02_reac01prodE04_conf20_gfn1.xyz --opt --vfukui --chrg -1 --uhf 0 --alpb DMSO
          hostname                   : node315
          coordinate file            : /lustre/hpc/kemi/ree/PhD/git/ReactivityQM/calculations/R02/reac01prodE04/conf20/R02_reac01prodE04_conf20_gfn1.xyz
          omp threads                :                     1

   ID    Z sym.   atoms
    1    6 C      1, 3, 5, 6, 8-11, 13, 15, 18, 19, 22, 24
    2    8 O      2, 4, 14, 20, 23, 25
    3    7 N      7, 12, 16, 17, 21
    4    1 H      26-43

           -------------------------------------------------
          |                 G F N 1 - x T B                 |
           -------------------------------------------------

        Reference                      10.1021/acs.jctc.7b00118
      * Hamiltonian:
        H0-scaling (s, p, d)           1.850000    2.250000    2.000000
        zeta-weighting                 0.000000
      * Dispersion:
        s8                             2.400000
        a1                             0.630000
        a2                             5.000000
        s9                             0.000000
      * Repulsion:
        kExp                           1.500000
        rExp                           1.000000
      * Coulomb:
        alpha                          2.000000
        third order                    atomic
        anisotropic                    false
      * Halogen bond correction:
        rad-scale                      1.300000
        damping                        0.440000

      * Solvation model:               ALPB
        Solvent                        DMSO
        Parameter file                 internal GFN1-xTB/ALPB
        Dielectric constant                4.6680E+01
        Reference state                gsolv [1 M gas/solution]
        Free energy shift                  7.6243E-03 Eh       4.7843E+00 kcal/mol
        Temperature                        2.9815E+02 K
        Density                            1.1000E+00 kg/L
        Solvent mass                       7.8130E+01 g/mol
        Interaction kernel             P16
        Born radius scaling (c1)           1.7672E+00
        Born radii integrator          GBOBC
        Born offset                        0.0000E+00 a0       0.0000E+00 AA
        H-bond correction              true
        Ion screening                  false
        Surface tension                    1.0000E-05 Eh       1.5569E+01 dyn/cm
        Grid points                               230 per atom

          ...................................................
          :                      SETUP                      :
          :.................................................:
          :  # basis functions                 136          :
          :  # atomic orbitals                 136          :
          :  # shells                           86          :
          :  # electrons                       136          :
          :  # halogen bonds                     0          :
          :  max. iterations                   250          :
          :  Hamiltonian                  GFN1-xTB          :
          :  restarted?                      false          :
          :  GBSA solvation                   true          :
          :  PC potential                    false          :
          :  electronic temp.          300.0000000     K    :
          :  accuracy                    1.0000000          :
          :  -> integral cutoff          0.2500000E+02      :
          :  -> integral neglect         0.1000000E-07      :
          :  -> SCF convergence          0.1000000E-05 Eh   :
          :  -> wf. convergence          0.2000000E-04 e    :
          :  Broyden damping             0.4000000          :
          ...................................................

 iter      E             dE          RMSdq      gap      omega  full diag
   1    -84.3125413 -0.843125E+02  0.854E+00    1.38       0.0  T
   2    -84.5726154 -0.260074E+00  0.511E+00    0.08       1.0  T
   3    -84.5353166  0.372989E-01  0.178E+00    1.23       1.0  T
   4    -84.2723904  0.262926E+00  0.159E+00    0.09       1.0  T
   5    -84.5834291 -0.311039E+00  0.455E-01    1.24       1.0  T
   6    -84.5874380 -0.400884E-02  0.377E-01    0.94       1.0  T
   7    -84.5893478 -0.190986E-02  0.315E-01    0.70       1.0  T
   8    -84.5910909 -0.174309E-02  0.257E-01    0.42       1.0  T
   9    -84.5970610 -0.597012E-02  0.605E-02    0.14       1.0  T
  10    -84.5973105 -0.249479E-03  0.380E-02    0.13       1.0  T
  11    -84.5972637  0.467952E-04  0.415E-02    0.13       1.0  T
  12    -84.5922265  0.503725E-02  0.202E-01    0.07       1.0  T
  13    -84.5952265 -0.300004E-02  0.136E-01    0.17       1.0  T
  14    -84.5974604 -0.223393E-02  0.116E-02    0.11       1.3  T
  15    -84.5974735 -0.130733E-04  0.556E-03    0.12       2.7  T
  16    -84.5974774 -0.388184E-05  0.629E-05    0.12     242.5  T
  17    -84.5974774  0.213378E-07  0.412E-04    0.12      37.0  T
  18    -84.5974774 -0.205510E-07  0.811E-05    0.12     188.0  T
  19    -84.5974774 -0.830113E-09  0.359E-06    0.12    4251.9  T

   *** convergence criteria satisfied after 19 iterations ***

         #    Occupation            Energy/Eh            Energy/eV
      -------------------------------------------------------------
         1        2.0000           -0.8426932             -22.9308
       ...           ...                  ...                  ...
        62        2.0000           -0.4332548             -11.7895
        63        2.0000           -0.4263363             -11.6012
        64        2.0000           -0.4185457             -11.3892
        65        2.0000           -0.4034540             -10.9785
        66        2.0000           -0.3917776             -10.6608
        67        2.0000           -0.3834983             -10.4355
        68        1.8078           -0.2998385              -8.1590 (HOMO)
        69        0.1922           -0.2955800              -8.0431 (LUMO)
        70                         -0.2547166              -6.9312
        71                         -0.2429864              -6.6120
        72                         -0.2276460              -6.1946
        73                         -0.1785560              -4.8588
       ...                                ...                  ...
       136                          0.7058883              19.2082
      -------------------------------------------------------------
                  HL-Gap            0.0042585 Eh            0.1159 eV
             Fermi-level           -0.2977093 Eh           -8.1011 eV

 SCC (total)                   0 d,  0 h,  0 min,  0.200 sec
 SCC setup                      ...        0 min,  0.002 sec (  1.127%)
 Dispersion                     ...        0 min,  0.000 sec (  0.224%)
 classical contributions        ...        0 min,  0.000 sec (  0.071%)
 integral evaluation            ...        0 min,  0.036 sec ( 18.222%)
 iterations                     ...        0 min,  0.072 sec ( 36.045%)
 molecular gradient             ...        0 min,  0.088 sec ( 43.767%)
 printout                       ...        0 min,  0.001 sec (  0.520%)

         :::::::::::::::::::::::::::::::::::::::::::::::::::::
         ::                     SUMMARY                     ::
         :::::::::::::::::::::::::::::::::::::::::::::::::::::
         :: total energy             -83.849230938228 Eh    ::
         :: total w/o Gsasa/hb       -83.825621865723 Eh    ::
         :: gradient norm              0.153395112690 Eh/a0 ::
         :: HOMO-LUMO gap              0.115880705316 eV    ::
         ::.................................................::
         :: SCC energy               -84.597477395716 Eh    ::
         :: -> electrostatic           0.445605710765 Eh    ::
         :: -> Gsolv                  -0.108342379470 Eh    ::
         ::    -> Gelec               -0.084733306965 Eh    ::
         ::    -> Gsasa               -0.024410733236 Eh    ::
         ::    -> Ghb                 -0.006822618274 Eh    ::
         ::    -> Gshift               0.007624279005 Eh    ::
         :: repulsion energy           0.774832452339 Eh    ::
         :: dispersion energy         -0.026585994851 Eh    ::
         :: halogen bond corr.         0.000000000000 Eh    ::
         :: add. restraining           0.000000000000 Eh    ::
         :: total charge              -1.000000000000 e     ::
         :::::::::::::::::::::::::::::::::::::::::::::::::::::

      ----------------------------------------------------------- 
     |                   =====================                   |
     |                        A N C O P T                        |
     |                   =====================                   |
     |               Approximate Normal Coordinate               |
     |                Rational Function Optimizer                |
      ----------------------------------------------------------- 

          ...................................................
          :                      SETUP                      :
          :.................................................:
          :   optimization level            normal          :
          :   max. optcycles                   200          :
          :   ANC micro-cycles                  20          :
          :   degrees of freedom               123          :
          :.................................................:
          :   RF solver                   davidson          :
          :   write xtbopt.log                true          :
          :   linear?                        false          :
          :   energy convergence         0.5000000E-05 Eh   :
          :   grad. convergence          0.1000000E-02 Eh/α :
          :   maximium RF displ.         1.0000000          :
          :   Hlow (freq-cutoff)         0.1000000E-01      :
          :   Hmax (freq-cutoff)         5.0000000          :
          :   S6 in model hess.         20.0000000          :
          ...................................................

generating ANC from model Hessian ...
Using Lindh-Hessian (1995)
 Shifting diagonal of input Hessian by   9.825028722396436E-003
 Lowest  eigenvalues of input Hessian
    0.000000    0.000000    0.000000    0.000000    0.000000    0.000000
    0.010000    0.010130    0.010452    0.010764    0.011340    0.012301
    0.013139    0.013999    0.014588    0.016164    0.016516    0.016626
 Highest eigenvalues
    1.985093    2.115996    2.121176    2.256303    2.318396    2.341100
 

........................................................................
.............................. CYCLE    1 ..............................
........................................................................
   1    -84.5974774 -0.845975E+02  0.286E-05    0.12       0.0  T
   2    -84.5974774  0.842095E-08  0.261E-04    0.12      58.4  T
   3    -84.5974774 -0.852401E-08  0.667E-07    0.12   22856.1  T
   4    -84.5974774  0.000000E+00  0.966E-07    0.12   15781.8  T
     SCC iter.                  ...        0 min,  0.015 sec
     gradient                   ...        0 min,  0.086 sec
 * total energy  :   -83.8492309 Eh     change       -0.1676881E-11 Eh
   gradient norm :     0.1533946 Eh/α   predicted     0.0000000E+00 (-100.00%)
   displ. norm   :     0.2759164 α      lambda       -0.1950612E-01
   maximum displ.:     0.1552528 α      in ANC's #27, #31, #20, ...

........................................................................
.............................. CYCLE    2 ..............................
........................................................................
   1    -84.6097698 -0.846098E+02  0.194E-01    0.44       0.0  T
   2    -84.2257301  0.384040E+00  0.172E+00    0.11       1.0  T
   3    -84.6106527 -0.384923E+00  0.166E-01    0.34       1.0  T
   4    -84.6110192 -0.366475E-03  0.149E-01    0.29       1.0  T
   5    -84.6125096 -0.149045E-02  0.937E-02    0.19       1.0  T
   6    -84.6135308 -0.102120E-02  0.153E-02    0.14       1.0  T
   7    -84.6135558 -0.249837E-04  0.361E-03    0.14       4.2  T
   8    -84.6135552  0.610860E-06  0.378E-03    0.14       4.0  T
   9    -84.6135567 -0.150576E-05  0.136E-03    0.14      11.2  T
  10    -84.6135570 -0.236613E-06  0.538E-05    0.14     283.6  T
  11    -84.6135570  0.462300E-08  0.199E-04    0.14      76.6  T
     SCC iter.                  ...        0 min,  0.041 sec
     gradient                   ...        0 min,  0.086 sec
 * total energy  :   -83.8635190 Eh     change       -0.1428805E-01 Eh
   gradient norm :     0.0802573 Eh/α   predicted    -0.1050224E-01 ( -26.50%)
   displ. norm   :     0.3036265 α      lambda       -0.1011182E-01
   maximum displ.:     0.1735823 α      in ANC's #27, #31, #20, ...

........................................................................
.............................. CYCLE    3 ..............................
........................................................................
   1    -84.6287855 -0.846288E+02  0.143E-01    0.51       0.0  T
   2    -84.6289893 -0.203811E-03  0.129E-01    0.13       1.0  T
   3    -84.6298972 -0.907912E-03  0.705E-02    0.28       1.0  T
   4    -84.6302648 -0.367609E-03  0.368E-02    0.22       1.0  T
   5    -84.6272762  0.298868E-02  0.160E-01    0.11       1.0  T
   6    -84.6302639 -0.298770E-02  0.386E-02    0.16       1.0  T
   7    -84.6303563 -0.923918E-04  0.251E-02    0.16       1.0  T
   8    -84.6304102 -0.539878E-04  0.134E-02    0.17       1.1  T
   9    -84.6304230 -0.127695E-04  0.842E-03    0.17       1.8  T
  10    -84.6304281 -0.508104E-05  0.527E-03    0.18       2.9  T
  11    -84.6304309 -0.283745E-05  0.185E-03    0.18       8.2  T
  12    -84.6304313 -0.345242E-06  0.659E-04    0.18      23.1  T
  13    -84.6304313 -0.470622E-07  0.155E-04    0.18      98.4  T
  14    -84.6304313 -0.260717E-08  0.346E-05    0.18     441.3  T
     SCC iter.                  ...        0 min,  0.051 sec
     gradient                   ...        0 min,  0.088 sec
 * total energy  :   -83.8694865 Eh     change       -0.5967481E-02 Eh
   gradient norm :     0.0298379 Eh/α   predicted    -0.5524363E-02 (  -7.43%)
   displ. norm   :     0.2085049 α      lambda       -0.1572898E-02
   maximum displ.:     0.0834492 α      in ANC's #3, #27, #2, ...

........................................................................
.............................. CYCLE    4 ..............................
........................................................................
   1    -84.6336038 -0.846336E+02  0.615E-02    0.30       0.0  T
   2    -84.6328952  0.708655E-03  0.100E-01    0.15       1.0  T
   3    -84.6338630 -0.967812E-03  0.260E-02    0.24       1.0  T
   4    -84.6339210 -0.580342E-04  0.126E-02    0.22       1.2  T
   5    -84.6339197  0.132671E-05  0.132E-02    0.19       1.2  T
   6    -84.6339376 -0.178871E-04  0.318E-03    0.20       4.8  T
   7    -84.6339386 -0.994952E-06  0.223E-04    0.21      68.5  T
   8    -84.6339386 -0.535849E-09  0.817E-05    0.21     186.7  T
   9    -84.6339386  0.792056E-09  0.106E-04    0.21     144.1  T
     SCC iter.                  ...        0 min,  0.033 sec
     gradient                   ...        0 min,  0.086 sec
 * total energy  :   -83.8706436 Eh     change       -0.1157106E-02 Eh
   gradient norm :     0.0203645 Eh/α   predicted    -0.8207102E-03 ( -29.07%)
   displ. norm   :     0.3031924 α      lambda       -0.1287335E-02
   maximum displ.:     0.1423317 α      in ANC's #3, #2, #8, ...

........................................................................
.............................. CYCLE    5 ..............................
........................................................................
   1    -84.6354723 -0.846355E+02  0.520E-02    0.30       0.0  T
   2    -84.6355517 -0.794087E-04  0.370E-02    0.21       1.0  T
   3    -84.6356401 -0.884129E-04  0.921E-03    0.25       1.7  T
   4    -84.6356455 -0.541436E-05  0.460E-03    0.23       3.3  T
   5    -84.6356454  0.119952E-06  0.208E-03    0.23       7.3  T
   6    -84.6356457 -0.266652E-06  0.439E-04    0.23      34.8  T
   7    -84.6356457  0.186603E-09  0.217E-04    0.23      70.3  T
   8    -84.6356457 -0.361537E-08  0.526E-05    0.23     289.8  T
   9    -84.6356457 -0.581224E-11  0.259E-05    0.23     588.2  T
     SCC iter.                  ...        0 min,  0.025 sec
     gradient                   ...        0 min,  0.057 sec
 * total energy  :   -83.8715025 Eh     change       -0.8589712E-03 Eh
   gradient norm :     0.0115428 Eh/α   predicted    -0.7028435E-03 ( -18.18%)
   displ. norm   :     0.2691723 α      lambda       -0.5641160E-03
   maximum displ.:     0.1485114 α      in ANC's #3, #2, #8, ...

........................................................................
.............................. CYCLE    6 ..............................
........................................................................
   1    -84.6363615 -0.846364E+02  0.232E-02    0.25       0.0  T
   2    -84.6363816 -0.201559E-04  0.111E-02    0.24       1.4  T
   3    -84.6363878 -0.619924E-05  0.395E-03    0.25       3.9  T
   4    -84.6363881 -0.327358E-06  0.205E-03    0.25       7.4  T
   5    -84.6363881 -0.623463E-08  0.710E-04    0.25      21.5  T
   6    -84.6363882 -0.194973E-07  0.138E-04    0.25     110.7  T
   7    -84.6363882 -0.353523E-09  0.570E-05    0.25     267.7  T
     SCC iter.                  ...        0 min,  0.026 sec
     gradient                   ...        0 min,  0.087 sec
 * total energy  :   -83.8719250 Eh     change       -0.4224624E-03 Eh
   gradient norm :     0.0114971 Eh/α   predicted    -0.3026546E-03 ( -28.36%)
   displ. norm   :     0.3345313 α      lambda       -0.5399545E-03
   maximum displ.:     0.1931763 α      in ANC's #3, #2, #8, ...

........................................................................
.............................. CYCLE    7 ..............................
........................................................................
   1    -84.6364426 -0.846364E+02  0.143E-02    0.24       0.0  T
   2    -84.6364528 -0.102882E-04  0.614E-03    0.25       2.5  T
   3    -84.6364535 -0.661801E-06  0.300E-03    0.25       5.1  T
   4    -84.6364535  0.108537E-07  0.172E-03    0.25       8.9  T
   5    -84.6364535 -0.415977E-07  0.420E-04    0.25      36.3  T
   6    -84.6364535 -0.109254E-07  0.125E-04    0.25     121.8  T
   7    -84.6364535 -0.403176E-09  0.390E-05    0.25     391.4  T
     SCC iter.                  ...        0 min,  0.022 sec
     gradient                   ...        0 min,  0.082 sec
 * total energy  :   -83.8723498 Eh     change       -0.4248079E-03 Eh
   gradient norm :     0.0129675 Eh/α   predicted    -0.3001913E-03 ( -29.33%)
   displ. norm   :     0.4103846 α      lambda       -0.5745585E-03
   maximum displ.:     0.2503708 α      in ANC's #3, #2, #8, ...

........................................................................
.............................. CYCLE    8 ..............................
........................................................................
   1    -84.6362843 -0.846363E+02  0.159E-02    0.23       0.0  T
   2    -84.6362968 -0.125222E-04  0.125E-02    0.26       1.2  T
   3    -84.6363039 -0.711053E-05  0.437E-03    0.25       3.5  T
   4    -84.6363039  0.115338E-07  0.253E-03    0.25       6.0  T
   5    -84.6363040 -0.740310E-07  0.432E-04    0.24      35.3  T
   6    -84.6363040 -0.573982E-08  0.118E-04    0.24     129.3  T
   7    -84.6363040 -0.401769E-09  0.446E-05    0.24     341.7  T
     SCC iter.                  ...        0 min,  0.025 sec
     gradient                   ...        0 min,  0.082 sec
 * total energy  :   -83.8728105 Eh     change       -0.4607008E-03 Eh
   gradient norm :     0.0125187 Eh/α   predicted    -0.3356666E-03 ( -27.14%)
   displ. norm   :     0.4579711 α      lambda       -0.5782070E-03
   maximum displ.:     0.2882565 α      in ANC's #3, #2, #8, ...

........................................................................
.............................. CYCLE    9 ..............................
........................................................................
   1    -84.6359739 -0.846360E+02  0.184E-02    0.23       0.0  T
   2    -84.6359902 -0.162472E-04  0.129E-02    0.25       1.2  T
   3    -84.6359976 -0.742128E-05  0.407E-03    0.24       3.7  T
   4    -84.6359976  0.128890E-07  0.235E-03    0.24       6.5  T
   5    -84.6359977 -0.774729E-07  0.596E-04    0.24      25.6  T
   6    -84.6359977 -0.140897E-07  0.130E-04    0.24     117.1  T
   7    -84.6359977 -0.753303E-09  0.434E-05    0.24     351.6  T
     SCC iter.                  ...        0 min,  0.025 sec
     gradient                   ...        0 min,  0.084 sec
 * total energy  :   -83.8732791 Eh     change       -0.4685878E-03 Eh
   gradient norm :     0.0110478 Eh/α   predicted    -0.3497432E-03 ( -25.36%)
   displ. norm   :     0.4825389 α      lambda       -0.5834614E-03
   maximum displ.:     0.3120975 α      in ANC's #3, #2, #8, ...

........................................................................
.............................. CYCLE   10 ..............................
........................................................................
   1    -84.6368198 -0.846368E+02  0.178E-02    0.24       0.0  T
   2    -84.6368355 -0.156895E-04  0.101E-02    0.25       1.5  T
   3    -84.6368397 -0.416939E-05  0.325E-03    0.24       4.7  T
   4    -84.6368397 -0.235786E-07  0.176E-03    0.24       8.6  T
   5    -84.6368397 -0.608284E-07  0.665E-04    0.24      22.9  T
   6    -84.6368398 -0.127720E-07  0.123E-04    0.24     124.2  T
   7    -84.6368398 -0.567596E-09  0.400E-05    0.24     381.1  T
     SCC iter.                  ...        0 min,  0.025 sec
     gradient                   ...        0 min,  0.085 sec
 * total energy  :   -83.8737593 Eh     change       -0.4802121E-03 Eh
   gradient norm :     0.0101459 Eh/α   predicted    -0.3596611E-03 ( -25.10%)
   displ. norm   :     0.5239030 α      lambda       -0.5598473E-03
   maximum displ.:     0.3363388 α      in ANC's #3, #2, #8, ...

........................................................................
.............................. CYCLE   11 ..............................
........................................................................
   1    -84.6366654 -0.846367E+02  0.151E-02    0.26       0.0  T
   2    -84.6366788 -0.134170E-04  0.671E-03    0.25       2.3  T
   3    -84.6366804 -0.152960E-05  0.250E-03    0.25       6.1  T
   4    -84.6366804 -0.571720E-07  0.117E-03    0.25      13.0  T
   5    -84.6366804 -0.403394E-08  0.383E-04    0.25      39.8  T
   6    -84.6366804 -0.136288E-08  0.933E-05    0.25     163.5  T
   7    -84.6366804 -0.218293E-09  0.248E-05    0.25     615.7  T
     SCC iter.                  ...        0 min,  0.024 sec
     gradient                   ...        0 min,  0.087 sec
 * total energy  :   -83.8742029 Eh     change       -0.4435904E-03 Eh
   gradient norm :     0.0108852 Eh/α   predicted    -0.3567570E-03 ( -19.58%)
   displ. norm   :     0.4614787 α      lambda       -0.4882486E-03
   maximum displ.:     0.3020853 α      in ANC's #3, #2, #7, ...

........................................................................
.............................. CYCLE   12 ..............................
........................................................................
   1    -84.6398135 -0.846398E+02  0.119E-02    0.26       0.0  T
   2    -84.6398185 -0.499880E-05  0.596E-03    0.26       2.6  T
   3    -84.6398191 -0.544226E-06  0.304E-03    0.26       5.0  T
   4    -84.6398191 -0.263546E-07  0.105E-03    0.26      14.5  T
   5    -84.6398191 -0.127860E-07  0.275E-04    0.26      55.5  T
   6    -84.6398191 -0.289066E-08  0.788E-05    0.26     193.6  T
   7    -84.6398191 -0.187356E-09  0.233E-05    0.26     655.4  T
     SCC iter.                  ...        0 min,  0.025 sec
     gradient                   ...        0 min,  0.082 sec
 * total energy  :   -83.8745367 Eh     change       -0.3337460E-03 Eh
   gradient norm :     0.0109028 Eh/α   predicted    -0.2961195E-03 ( -11.27%)
   displ. norm   :     0.5053488 α      lambda       -0.4134861E-03
   maximum displ.:     0.3160346 α      in ANC's #3, #2, #8, ...

........................................................................
.............................. CYCLE   13 ..............................
........................................................................
   1    -84.6357632 -0.846358E+02  0.192E-02    0.29       0.0  T
   2    -84.6357858 -0.226428E-04  0.922E-03    0.28       1.7  T
   3    -84.6357884 -0.260623E-05  0.394E-03    0.28       3.9  T
   4    -84.6357885 -0.104542E-06  0.187E-03    0.28       8.2  T
   5    -84.6357885  0.153247E-08  0.564E-04    0.28      27.0  T
   6    -84.6357885 -0.940344E-08  0.104E-04    0.28     146.5  T
   7    -84.6357885 -0.220339E-09  0.249E-05    0.28     612.2  T
     SCC iter.                  ...        0 min,  0.025 sec
     gradient                   ...        0 min,  0.082 sec
 * total energy  :   -83.8747665 Eh     change       -0.2298177E-03 Eh
   gradient norm :     0.0136653 Eh/α   predicted    -0.2595419E-03 (  12.93%)
   displ. norm   :     0.2421175 α      lambda       -0.3142433E-03
   maximum displ.:     0.1593378 α      in ANC's #3, #7, #2, ...

........................................................................
.............................. CYCLE   14 ..............................
........................................................................
   1    -84.6390191 -0.846390E+02  0.133E-02    0.28       0.0  T
   2    -84.6390254 -0.636285E-05  0.682E-03    0.28       2.2  T
   3    -84.6390263 -0.904897E-06  0.341E-03    0.28       4.5  T
   4    -84.6390263 -0.705451E-08  0.876E-04    0.28      17.4  T
   5    -84.6390264 -0.951175E-08  0.185E-04    0.28      82.5  T
   6    -84.6390264 -0.114956E-08  0.410E-05    0.28     371.7  T
     SCC iter.                  ...        0 min,  0.021 sec
     gradient                   ...        0 min,  0.084 sec
 * total energy  :   -83.8749915 Eh     change       -0.2250609E-03 Eh
   gradient norm :     0.0076831 Eh/α   predicted    -0.1663323E-03 ( -26.09%)
   displ. norm   :     0.3224637 α      lambda       -0.2405111E-03
   maximum displ.:     0.2146482 α      in ANC's #3, #2, #7, ...

........................................................................
.............................. CYCLE   15 ..............................
........................................................................
   1    -84.6395288 -0.846395E+02  0.977E-03    0.28       0.0  T
   2    -84.6395334 -0.465853E-05  0.460E-03    0.29       3.3  T
   3    -84.6395340 -0.631294E-06  0.212E-03    0.29       7.2  T
   4    -84.6395341 -0.137937E-07  0.859E-04    0.29      17.8  T
   5    -84.6395341 -0.187013E-08  0.123E-04    0.29     123.9  T
   6    -84.6395341 -0.372580E-09  0.383E-05    0.29     398.1  T
     SCC iter.                  ...        0 min,  0.021 sec
     gradient                   ...        0 min,  0.065 sec
 * total energy  :   -83.8751678 Eh     change       -0.1762903E-03 Eh
   gradient norm :     0.0063599 Eh/α   predicted    -0.1327610E-03 ( -24.69%)
   displ. norm   :     0.3448410 α      lambda       -0.2326059E-03
   maximum displ.:     0.2290368 α      in ANC's #3, #7, #2, ...

........................................................................
.............................. CYCLE   16 ..............................
........................................................................
   1    -84.6410802 -0.846411E+02  0.117E-02    0.29       0.0  T
   2    -84.6410866 -0.642910E-05  0.459E-03    0.30       3.3  T
   3    -84.6410870 -0.386266E-06  0.242E-03    0.30       6.3  T
   4    -84.6410870 -0.169875E-07  0.105E-03    0.30      14.5  T
   5    -84.6410870 -0.622821E-08  0.141E-04    0.30     108.1  T
   6    -84.6410870 -0.615159E-09  0.317E-05    0.30     480.7  T
     SCC iter.                  ...        0 min,  0.015 sec
     gradient                   ...        0 min,  0.053 sec
 * total energy  :   -83.8753229 Eh     change       -0.1550485E-03 Eh
   gradient norm :     0.0063946 Eh/α   predicted    -0.1301352E-03 ( -16.07%)
   displ. norm   :     0.3202483 α      lambda       -0.1616390E-03
   maximum displ.:     0.2147438 α      in ANC's #3, #7, #5, ...

........................................................................
.............................. CYCLE   17 ..............................
........................................................................
   1    -84.6390440 -0.846390E+02  0.906E-03    0.30       0.0  T
   2    -84.6390471 -0.308341E-05  0.382E-03    0.31       4.0  T
   3    -84.6390474 -0.316839E-06  0.178E-03    0.31       8.5  T
   4    -84.6390474 -0.122089E-07  0.559E-04    0.31      27.3  T
   5    -84.6390474 -0.913445E-09  0.121E-04    0.31     125.6  T
   6    -84.6390474 -0.306500E-09  0.441E-05    0.31     345.5  T
     SCC iter.                  ...        0 min,  0.021 sec
     gradient                   ...        0 min,  0.083 sec
 * total energy  :   -83.8754310 Eh     change       -0.1081631E-03 Eh
   gradient norm :     0.0060164 Eh/α   predicted    -0.8911477E-04 ( -17.61%)
   displ. norm   :     0.2028093 α      lambda       -0.1428306E-03
   maximum displ.:     0.1082320 α      in ANC's #3, #1, #5, ...

........................................................................
.............................. CYCLE   18 ..............................
........................................................................
   1    -84.6410970 -0.846411E+02  0.105E-02    0.30       0.0  T
   2    -84.6411002 -0.323234E-05  0.430E-03    0.31       3.6  T
   3    -84.6411006 -0.389389E-06  0.225E-03    0.31       6.8  T
   4    -84.6411006 -0.111997E-07  0.563E-04    0.31      27.1  T
   5    -84.6411006 -0.254227E-08  0.124E-04    0.31     123.3  T
   6    -84.6411006 -0.529425E-09  0.307E-05    0.31     496.1  T
     SCC iter.                  ...        0 min,  0.021 sec
     gradient                   ...        0 min,  0.083 sec
 * total energy  :   -83.8755167 Eh     change       -0.8571329E-04 Eh
   gradient norm :     0.0057205 Eh/α   predicted    -0.7435579E-04 ( -13.25%)
   displ. norm   :     0.1895865 α      lambda       -0.9122736E-04
   maximum displ.:     0.1147011 α      in ANC's #3, #1, #5, ...

........................................................................
.............................. CYCLE   19 ..............................
........................................................................
   1    -84.6398773 -0.846399E+02  0.852E-03    0.31       0.0  T
   2    -84.6398811 -0.379274E-05  0.326E-03    0.31       4.7  T
   3    -84.6398814 -0.337897E-06  0.144E-03    0.31      10.6  T
   4    -84.6398815 -0.145022E-07  0.652E-04    0.31      23.4  T
   5    -84.6398815 -0.178275E-09  0.187E-04    0.31      81.4  T
   6    -84.6398815 -0.567795E-09  0.451E-05    0.31     338.1  T
     SCC iter.                  ...        0 min,  0.021 sec
     gradient                   ...        0 min,  0.083 sec
 * total energy  :   -83.8755743 Eh     change       -0.5753669E-04 Eh
   gradient norm :     0.0050107 Eh/α   predicted    -0.4725474E-04 ( -17.87%)
   displ. norm   :     0.1422740 α      lambda       -0.8675177E-04
   maximum displ.:     0.0703501 α      in ANC's #1, #5, #2, ...

........................................................................
.............................. CYCLE   20 ..............................
........................................................................
   1    -84.6403049 -0.846403E+02  0.638E-03    0.30       0.0  T
   2    -84.6403064 -0.146891E-05  0.268E-03    0.31       5.7  T
   3    -84.6403066 -0.174531E-06  0.129E-03    0.30      11.8  T
   4    -84.6403066 -0.497536E-08  0.451E-04    0.30      33.8  T
   5    -84.6403066 -0.146535E-08  0.105E-04    0.30     145.1  T
   6    -84.6403066 -0.295117E-09  0.256E-05    0.30     595.0  T
     SCC iter.                  ...        0 min,  0.021 sec
     gradient                   ...        0 min,  0.083 sec
 * total energy  :   -83.8756353 Eh     change       -0.6104796E-04 Eh
   gradient norm :     0.0044245 Eh/α   predicted    -0.4425601E-04 ( -27.51%)
   displ. norm   :     0.1871275 α      lambda       -0.8507282E-04
   maximum displ.:     0.0950957 α      in ANC's #1, #5, #2, ...
 * RMSD in coord.:     0.8100441 α      energy gain  -0.2640439E-01 Eh

generating ANC from model Hessian ...
Using Lindh-Hessian (1995)
 Shifting diagonal of input Hessian by   9.812258196562718E-003
 Lowest  eigenvalues of input Hessian
    0.000000    0.000000    0.000000    0.000000    0.000000    0.000000
    0.010000    0.010199    0.010535    0.010786    0.011314    0.012513
    0.012902    0.013682    0.014479    0.016311    0.016612    0.017024
 Highest eigenvalues
    2.028932    2.126328    2.183362    2.267576    2.300759    2.410825
 

........................................................................
.............................. CYCLE   21 ..............................
........................................................................
   1    -84.6405926 -0.846406E+02  0.602E-03    0.30       0.0  T
   2    -84.6405945 -0.186836E-05  0.256E-03    0.30       6.0  T
   3    -84.6405946 -0.152691E-06  0.117E-03    0.30      13.0  T
   4    -84.6405946 -0.904342E-08  0.512E-04    0.30      29.8  T
   5    -84.6405946 -0.283066E-09  0.994E-05    0.30     153.5  T
   6    -84.6405946 -0.179412E-09  0.210E-05    0.30     727.8  T
     SCC iter.                  ...        0 min,  0.021 sec
     gradient                   ...        0 min,  0.083 sec
 * total energy  :   -83.8756959 Eh     change       -0.6057737E-04 Eh
   gradient norm :     0.0049584 Eh/α   predicted     0.0000000E+00 (-100.00%)
   displ. norm   :     0.0403191 α      lambda       -0.2691945E-04
   maximum displ.:     0.0233866 α      in ANC's #2, #1, #4, ...

........................................................................
.............................. CYCLE   22 ..............................
........................................................................
   1    -84.6406355 -0.846406E+02  0.380E-03    0.30       0.0  T
   2    -84.6406362 -0.652289E-06  0.146E-03    0.30      10.4  T
   3    -84.6406362 -0.364204E-07  0.776E-04    0.30      19.7  T
   4    -84.6406362 -0.109266E-08  0.326E-04    0.30      46.8  T
   5    -84.6406362 -0.302279E-09  0.575E-05    0.30     265.4  T
   6    -84.6406362 -0.103796E-09  0.153E-05    0.30     999.5  T
     SCC iter.                  ...        0 min,  0.021 sec
     gradient                   ...        0 min,  0.083 sec
 * total energy  :   -83.8757326 Eh     change       -0.3669746E-04 Eh
   gradient norm :     0.0028542 Eh/α   predicted    -0.2251357E-04 ( -38.65%)
   displ. norm   :     0.1155193 α      lambda       -0.7128017E-04
   maximum displ.:     0.0671355 α      in ANC's #2, #1, #4, ...

........................................................................
.............................. CYCLE   23 ..............................
........................................................................
   1    -84.6405398 -0.846405E+02  0.811E-03    0.31       0.0  T
   2    -84.6405430 -0.315444E-05  0.310E-03    0.31       4.9  T
   3    -84.6405432 -0.178665E-06  0.150E-03    0.31      10.2  T
   4    -84.6405432 -0.379065E-08  0.699E-04    0.31      21.8  T
   5    -84.6405432 -0.137811E-08  0.114E-04    0.31     133.4  T
   6    -84.6405432 -0.360203E-09  0.308E-05    0.31     495.8  T
     SCC iter.                  ...        0 min,  0.021 sec
     gradient                   ...        0 min,  0.091 sec
 * total energy  :   -83.8757849 Eh     change       -0.5228384E-04 Eh
   gradient norm :     0.0022846 Eh/α   predicted    -0.3992103E-04 ( -23.65%)
   displ. norm   :     0.1085149 α      lambda       -0.3882225E-04
   maximum displ.:     0.0633300 α      in ANC's #2, #1, #4, ...

........................................................................
.............................. CYCLE   24 ..............................
........................................................................
   1    -84.6403785 -0.846404E+02  0.369E-03    0.31       0.0  T
   2    -84.6403791 -0.647742E-06  0.146E-03    0.31      10.5  T
   3    -84.6403792 -0.395894E-07  0.652E-04    0.31      23.4  T
   4    -84.6403792 -0.706109E-09  0.309E-04    0.31      49.4  T
   5    -84.6403792 -0.352514E-09  0.520E-05    0.31     293.0  T
   6    -84.6403792 -0.461711E-10  0.131E-05    0.31    1166.6  T
     SCC iter.                  ...        0 min,  0.021 sec
     gradient                   ...        0 min,  0.083 sec
 * total energy  :   -83.8758168 Eh     change       -0.3189670E-04 Eh
   gradient norm :     0.0036954 Eh/α   predicted    -0.1964015E-04 ( -38.43%)
   displ. norm   :     0.1809258 α      lambda       -0.6193126E-04
   maximum displ.:     0.1025690 α      in ANC's #2, #1, #4, ...

........................................................................
.............................. CYCLE   25 ..............................
........................................................................
   1    -84.6400690 -0.846401E+02  0.379E-03    0.31       0.0  T
   2    -84.6400697 -0.637990E-06  0.173E-03    0.31       8.8  T
   3    -84.6400697 -0.598972E-07  0.762E-04    0.31      20.0  T
   4    -84.6400697 -0.128392E-08  0.290E-04    0.31      52.5  T
   5    -84.6400697 -0.320597E-09  0.568E-05    0.31     268.4  T
   6    -84.6400697 -0.483595E-10  0.159E-05    0.31     956.2  T
     SCC iter.                  ...        0 min,  0.021 sec
     gradient                   ...        0 min,  0.083 sec
 * total energy  :   -83.8758684 Eh     change       -0.5166382E-04 Eh
   gradient norm :     0.0044180 Eh/α   predicted    -0.3198048E-04 ( -38.10%)
   displ. norm   :     0.2705532 α      lambda       -0.8541023E-04
   maximum displ.:     0.1531260 α      in ANC's #2, #1, #4, ...

........................................................................
.............................. CYCLE   26 ..............................
........................................................................
   1    -84.6394692 -0.846395E+02  0.521E-03    0.31       0.0  T
   2    -84.6394705 -0.127307E-05  0.241E-03    0.32       6.3  T
   3    -84.6394706 -0.133498E-06  0.109E-03    0.32      14.0  T
   4    -84.6394706 -0.405190E-08  0.393E-04    0.32      38.8  T
   5    -84.6394706 -0.391339E-09  0.902E-05    0.32     169.1  T
   6    -84.6394706 -0.209425E-09  0.251E-05    0.32     607.6  T
     SCC iter.                  ...        0 min,  0.021 sec
     gradient                   ...        0 min,  0.083 sec
 * total energy  :   -83.8759355 Eh     change       -0.6705905E-04 Eh
   gradient norm :     0.0046290 Eh/α   predicted    -0.4584260E-04 ( -31.64%)
   displ. norm   :     0.2859547 α      lambda       -0.8457359E-04
   maximum displ.:     0.1649794 α      in ANC's #2, #1, #4, ...

........................................................................
.............................. CYCLE   27 ..............................
........................................................................
   1    -84.6390824 -0.846391E+02  0.561E-03    0.31       0.0  T
   2    -84.6390840 -0.158050E-05  0.238E-03    0.31       6.4  T
   3    -84.6390841 -0.156308E-06  0.104E-03    0.31      14.7  T
   4    -84.6390841 -0.535294E-08  0.444E-04    0.31      34.4  T
   5    -84.6390841 -0.246658E-09  0.109E-04    0.31     139.8  T
   6    -84.6390841 -0.304468E-09  0.282E-05    0.31     540.4  T
     SCC iter.                  ...        0 min,  0.021 sec
     gradient                   ...        0 min,  0.082 sec
 * total energy  :   -83.8759988 Eh     change       -0.6329528E-04 Eh
   gradient norm :     0.0047618 Eh/α   predicted    -0.4574852E-04 ( -27.72%)
   displ. norm   :     0.2225521 α      lambda       -0.8547083E-04
   maximum displ.:     0.1344812 α      in ANC's #2, #1, #4, ...

........................................................................
.............................. CYCLE   28 ..............................
........................................................................
   1    -84.6400389 -0.846400E+02  0.534E-03    0.31       0.0  T
   2    -84.6400402 -0.121428E-05  0.219E-03    0.31       7.0  T
   3    -84.6400403 -0.120863E-06  0.101E-03    0.31      15.1  T
   4    -84.6400403 -0.367309E-08  0.415E-04    0.31      36.8  T
   5    -84.6400403 -0.442895E-09  0.973E-05    0.31     156.7  T
   6    -84.6400403 -0.237137E-09  0.237E-05    0.31     644.2  T
     SCC iter.                  ...        0 min,  0.021 sec
     gradient                   ...        0 min,  0.082 sec
 * total energy  :   -83.8760640 Eh     change       -0.6520979E-04 Eh
   gradient norm :     0.0038314 Eh/α   predicted    -0.4485277E-04 ( -31.22%)
   displ. norm   :     0.2338632 α      lambda       -0.8566244E-04
   maximum displ.:     0.1440068 α      in ANC's #2, #1, #4, ...

........................................................................
.............................. CYCLE   29 ..............................
........................................................................
   1    -84.6408827 -0.846409E+02  0.507E-03    0.30       0.0  T
   2    -84.6408836 -0.885254E-06  0.234E-03    0.30       6.5  T
   3    -84.6408837 -0.127559E-06  0.106E-03    0.30      14.4  T
   4    -84.6408837 -0.167361E-08  0.284E-04    0.30      53.7  T
   5    -84.6408837 -0.605098E-09  0.578E-05    0.30     264.1  T
   6    -84.6408837 -0.630962E-10  0.177E-05    0.30     862.8  T
     SCC iter.                  ...        0 min,  0.021 sec
     gradient                   ...        0 min,  0.082 sec
 * total energy  :   -83.8761299 Eh     change       -0.6586642E-04 Eh
   gradient norm :     0.0035940 Eh/α   predicted    -0.4517730E-04 ( -31.41%)
   displ. norm   :     0.3450236 α      lambda       -0.8682896E-04
   maximum displ.:     0.2098980 α      in ANC's #2, #1, #4, ...

........................................................................
.............................. CYCLE   30 ..............................
........................................................................
   1    -84.6398220 -0.846398E+02  0.567E-03    0.29       0.0  T
   2    -84.6398235 -0.145428E-05  0.267E-03    0.30       5.7  T
   3    -84.6398237 -0.222659E-06  0.103E-03    0.30      14.9  T
   4    -84.6398237 -0.244350E-08  0.335E-04    0.30      45.6  T
   5    -84.6398237 -0.311687E-09  0.694E-05    0.30     219.7  T
   6    -84.6398237 -0.599556E-10  0.248E-05    0.30     615.4  T
     SCC iter.                  ...        0 min,  0.021 sec
     gradient                   ...        0 min,  0.082 sec
 * total energy  :   -83.8761921 Eh     change       -0.6220259E-04 Eh
   gradient norm :     0.0044787 Eh/α   predicted    -0.4859839E-04 ( -21.87%)
   displ. norm   :     0.2660109 α      lambda       -0.9616027E-04
   maximum displ.:     0.1624255 α      in ANC's #2, #1, #12, ...

........................................................................
.............................. CYCLE   31 ..............................
........................................................................
   1    -84.6413721 -0.846414E+02  0.796E-03    0.29       0.0  T
   2    -84.6413745 -0.245929E-05  0.403E-03    0.29       3.8  T
   3    -84.6413748 -0.280750E-06  0.196E-03    0.29       7.8  T
   4    -84.6413748 -0.419129E-08  0.607E-04    0.29      25.1  T
   5    -84.6413748 -0.308465E-08  0.104E-04    0.29     146.6  T
   6    -84.6413748 -0.154856E-09  0.309E-05    0.29     493.1  T
     SCC iter.                  ...        0 min,  0.021 sec
     gradient                   ...        0 min,  0.082 sec
 * total energy  :   -83.8762384 Eh     change       -0.4628426E-04 Eh
   gradient norm :     0.0042252 Eh/α   predicted    -0.5148281E-04 (  11.23%)
   displ. norm   :     0.2832184 α      lambda       -0.5242949E-04
   maximum displ.:     0.1706413 α      in ANC's #2, #1, #4, ...

........................................................................
.............................. CYCLE   32 ..............................
........................................................................
   1    -84.6392017 -0.846392E+02  0.603E-03    0.29       0.0  T
   2    -84.6392028 -0.111678E-05  0.303E-03    0.30       5.0  T
   3    -84.6392029 -0.136519E-06  0.158E-03    0.29       9.6  T
   4    -84.6392029 -0.155073E-07  0.411E-04    0.29      37.1  T
   5    -84.6392029 -0.638792E-09  0.903E-05    0.29     168.9  T
   6    -84.6392029 -0.188805E-09  0.272E-05    0.29     561.1  T
     SCC iter.                  ...        0 min,  0.021 sec
     gradient                   ...        0 min,  0.083 sec
 * total energy  :   -83.8762656 Eh     change       -0.2720443E-04 Eh
   gradient norm :     0.0043895 Eh/α   predicted    -0.2835220E-04 (   4.22%)
   displ. norm   :     0.0550574 α      lambda       -0.3819406E-04
   maximum displ.:     0.0319544 α      in ANC's #1, #2, #7, ...

........................................................................
.............................. CYCLE   33 ..............................
........................................................................
   1    -84.6400997 -0.846401E+02  0.402E-03    0.30       0.0  T
   2    -84.6401004 -0.689743E-06  0.191E-03    0.30       8.0  T
   3    -84.6401005 -0.116269E-06  0.651E-04    0.30      23.4  T
   4    -84.6401005 -0.103196E-08  0.263E-04    0.30      57.9  T
   5    -84.6401005 -0.188365E-09  0.581E-05    0.30     262.6  T
   6    -84.6401005 -0.918732E-10  0.154E-05    0.30     991.2  T
     SCC iter.                  ...        0 min,  0.021 sec
     gradient                   ...        0 min,  0.082 sec
 * total energy  :   -83.8762955 Eh     change       -0.2990979E-04 Eh
   gradient norm :     0.0024503 Eh/α   predicted    -0.1915841E-04 ( -35.95%)
   displ. norm   :     0.1787152 α      lambda       -0.4376019E-04
   maximum displ.:     0.1090816 α      in ANC's #1, #2, #7, ...

........................................................................
.............................. CYCLE   34 ..............................
........................................................................
   1    -84.6407440 -0.846407E+02  0.517E-03    0.31       0.0  T
   2    -84.6407452 -0.123577E-05  0.255E-03    0.31       6.0  T
   3    -84.6407454 -0.210548E-06  0.795E-04    0.31      19.2  T
   4    -84.6407454 -0.195047E-08  0.334E-04    0.31      45.6  T
   5    -84.6407454 -0.256207E-09  0.774E-05    0.31     197.0  T
   6    -84.6407454 -0.162174E-09  0.201E-05    0.31     757.7  T
     SCC iter.                  ...        0 min,  0.022 sec
     gradient                   ...        0 min,  0.082 sec
 * total energy  :   -83.8763234 Eh     change       -0.2794541E-04 Eh
   gradient norm :     0.0024564 Eh/α   predicted    -0.2258036E-04 ( -19.20%)
   displ. norm   :     0.1111314 α      lambda       -0.1725194E-04
   maximum displ.:     0.0705387 α      in ANC's #1, #2, #7, ...

........................................................................
.............................. CYCLE   35 ..............................
........................................................................
   1    -84.6411028 -0.846411E+02  0.182E-03    0.31       0.0  T
   2    -84.6411029 -0.118113E-06  0.901E-04    0.31      16.9  T
   3    -84.6411030 -0.145754E-07  0.400E-04    0.31      38.1  T
   4    -84.6411030 -0.705427E-09  0.132E-04    0.31     115.6  T
   5    -84.6411030 -0.385825E-10  0.287E-05    0.31     530.8  T
     SCC iter.                  ...        0 min,  0.014 sec
     gradient                   ...        0 min,  0.052 sec
 * total energy  :   -83.8763366 Eh     change       -0.1321061E-04 Eh
   gradient norm :     0.0025327 Eh/α   predicted    -0.8738280E-05 ( -33.85%)
   displ. norm   :     0.1856766 α      lambda       -0.2621078E-04
   maximum displ.:     0.1197537 α      in ANC's #1, #2, #7, ...

........................................................................
.............................. CYCLE   36 ..............................
........................................................................
   1    -84.6409789 -0.846410E+02  0.337E-03    0.31       0.0  T
   2    -84.6409793 -0.422508E-06  0.146E-03    0.31      10.5  T
   3    -84.6409794 -0.357820E-07  0.728E-04    0.31      20.9  T
   4    -84.6409794 -0.217671E-08  0.256E-04    0.31      59.5  T
   5    -84.6409794 -0.115762E-09  0.408E-05    0.31     373.8  T
   6    -84.6409794 -0.392504E-10  0.120E-05    0.31    1273.7  T
     SCC iter.                  ...        0 min,  0.015 sec
     gradient                   ...        0 min,  0.055 sec
 * total energy  :   -83.8763551 Eh     change       -0.1850014E-04 Eh
   gradient norm :     0.0021427 Eh/α   predicted    -0.1356387E-04 ( -26.68%)
   displ. norm   :     0.1737671 α      lambda       -0.2394876E-04
   maximum displ.:     0.1169236 α      in ANC's #1, #2, #7, ...

........................................................................
.............................. CYCLE   37 ..............................
........................................................................
   1    -84.6407672 -0.846408E+02  0.436E-03    0.30       0.0  T
   2    -84.6407679 -0.688397E-06  0.192E-03    0.31       7.9  T
   3    -84.6407680 -0.827536E-07  0.912E-04    0.31      16.7  T
   4    -84.6407680 -0.289148E-08  0.318E-04    0.31      48.0  T
   5    -84.6407680 -0.340023E-09  0.624E-05    0.30     244.5  T
   6    -84.6407680 -0.110305E-09  0.215E-05    0.31     708.1  T
     SCC iter.                  ...        0 min,  0.025 sec
     gradient                   ...        0 min,  0.087 sec
 * total energy  :   -83.8763705 Eh     change       -0.1535678E-04 Eh
   gradient norm :     0.0018325 Eh/α   predicted    -0.1233912E-04 ( -19.65%)
   displ. norm   :     0.1658676 α      lambda       -0.1317694E-04
   maximum displ.:     0.1172336 α      in ANC's #1, #2, #8, ...

........................................................................
.............................. CYCLE   38 ..............................
........................................................................
   1    -84.6405031 -0.846405E+02  0.479E-03    0.30       0.0  T
   2    -84.6405041 -0.103204E-05  0.225E-03    0.30       6.8  T
   3    -84.6405042 -0.127560E-06  0.937E-04    0.30      16.3  T
   4    -84.6405042 -0.217088E-08  0.372E-04    0.30      41.0  T
   5    -84.6405042 -0.421053E-09  0.626E-05    0.30     243.6  T
   6    -84.6405042 -0.101195E-09  0.238E-05    0.30     640.8  T
     SCC iter.                  ...        0 min,  0.023 sec
     gradient                   ...        0 min,  0.087 sec
 * total energy  :   -83.8763820 Eh     change       -0.1154396E-04 Eh
   gradient norm :     0.0019513 Eh/α   predicted    -0.6671916E-05 ( -42.20%)
   displ. norm   :     0.0768177 α      lambda       -0.9255399E-05
   maximum displ.:     0.0577229 α      in ANC's #1, #3, #8, ...

........................................................................
.............................. CYCLE   39 ..............................
........................................................................
   1    -84.6403553 -0.846404E+02  0.255E-03    0.30       0.0  T
   2    -84.6403556 -0.344732E-06  0.127E-03    0.30      12.0  T
   3    -84.6403557 -0.253034E-07  0.626E-04    0.30      24.4  T
   4    -84.6403557 -0.334595E-09  0.250E-04    0.30      61.1  T
   5    -84.6403557 -0.262233E-09  0.352E-05    0.30     432.7  T
   6    -84.6403557 -0.206342E-10  0.134E-05    0.30    1133.9  T
     SCC iter.                  ...        0 min,  0.023 sec
     gradient                   ...        0 min,  0.088 sec
 * total energy  :   -83.8763927 Eh     change       -0.1062177E-04 Eh
   gradient norm :     0.0017614 Eh/α   predicted    -0.4643271E-05 ( -56.29%)
   displ. norm   :     0.1021494 α      lambda       -0.1470495E-04
   maximum displ.:     0.0661766 α      in ANC's #1, #3, #4, ...

........................................................................
.............................. CYCLE   40 ..............................
........................................................................
   1    -84.6412830 -0.846413E+02  0.396E-03    0.31       0.0  T
   2    -84.6412836 -0.589051E-06  0.211E-03    0.31       7.2  T
   3    -84.6412836 -0.343863E-07  0.112E-03    0.31      13.6  T
   4    -84.6412836 -0.693589E-09  0.343E-04    0.31      44.4  T
   5    -84.6412836 -0.741963E-09  0.490E-05    0.31     311.4  T
   6    -84.6412836 -0.448495E-10  0.203E-05    0.31     751.7  T
     SCC iter.                  ...        0 min,  0.023 sec
     gradient                   ...        0 min,  0.087 sec
 * total energy  :   -83.8764015 Eh     change       -0.8883343E-05 Eh
   gradient norm :     0.0020028 Eh/α   predicted    -0.7387098E-05 ( -16.84%)
   displ. norm   :     0.0819730 α      lambda       -0.1430560E-04
   maximum displ.:     0.0601765 α      in ANC's #1, #8, #6, ...

........................................................................
.............................. CYCLE   41 ..............................
........................................................................
   1    -84.6404442 -0.846404E+02  0.263E-03    0.31       0.0  T
   2    -84.6404443 -0.114485E-06  0.131E-03    0.31      11.7  T
   3    -84.6404443 -0.739941E-08  0.687E-04    0.31      22.2  T
   4    -84.6404443 -0.233598E-08  0.145E-04    0.31     105.0  T
   5    -84.6404443 -0.180918E-09  0.294E-05    0.31     518.5  T
     SCC iter.                  ...        0 min,  0.019 sec
     gradient                   ...        0 min,  0.086 sec
 * total energy  :   -83.8764092 Eh     change       -0.7666958E-05 Eh
   gradient norm :     0.0020262 Eh/α   predicted    -0.7201364E-05 (  -6.07%)
   displ. norm   :     0.0285240 α      lambda       -0.6706928E-05
   maximum displ.:     0.0213664 α      in ANC's #1, #3, #6, ...

........................................................................
.............................. CYCLE   42 ..............................
........................................................................
   1    -84.6404825 -0.846405E+02  0.108E-03    0.31       0.0  T
   2    -84.6404826 -0.461936E-07  0.522E-04    0.31      29.2  T
   3    -84.6404826 -0.468877E-08  0.243E-04    0.31      62.8  T
   4    -84.6404826 -0.735980E-10  0.797E-05    0.31     191.4  T
   5    -84.6404826 -0.471090E-10  0.205E-05    0.31     745.3  T
     SCC iter.                  ...        0 min,  0.019 sec
     gradient                   ...        0 min,  0.086 sec
 * total energy  :   -83.8764150 Eh     change       -0.5753814E-05 Eh
   gradient norm :     0.0015581 Eh/α   predicted    -0.3357589E-05 ( -41.65%)
   displ. norm   :     0.1419571 α      lambda       -0.1918992E-04
   maximum displ.:     0.1028875 α      in ANC's #1, #3, #6, ...
 * RMSD in coord.:     0.4998119 α      energy gain  -0.7796336E-03 Eh

generating ANC from model Hessian ...
Using Lindh-Hessian (1995)
 Shifting diagonal of input Hessian by   9.810609784623803E-003
 Lowest  eigenvalues of input Hessian
    0.000000    0.000000    0.000000    0.000000    0.000000    0.000000
    0.010000    0.010208    0.010510    0.010793    0.011382    0.012462
    0.012919    0.013805    0.014536    0.016337    0.016622    0.017158
 Highest eigenvalues
    2.026016    2.122651    2.177280    2.262698    2.294922    2.407185
 

........................................................................
.............................. CYCLE   43 ..............................
........................................................................
   1    -84.6406912 -0.846407E+02  0.411E-03    0.31       0.0  T
   2    -84.6406921 -0.855852E-06  0.204E-03    0.31       7.5  T
   3    -84.6406921 -0.799179E-07  0.909E-04    0.31      16.8  T
   4    -84.6406921 -0.594383E-09  0.356E-04    0.31      42.8  T
   5    -84.6406921 -0.724384E-09  0.760E-05    0.31     200.7  T
   6    -84.6406921 -0.909495E-10  0.188E-05    0.31     813.1  T
     SCC iter.                  ...        0 min,  0.023 sec
     gradient                   ...        0 min,  0.086 sec
 * total energy  :   -83.8764299 Eh     change       -0.1494075E-04 Eh
   gradient norm :     0.0020574 Eh/α   predicted     0.0000000E+00 (-100.00%)
   displ. norm   :     0.0125778 α      lambda       -0.6680431E-05
   maximum displ.:     0.0071856 α      in ANC's #2, #1, #6, ...

........................................................................
.............................. CYCLE   44 ..............................
........................................................................
   1    -84.6408932 -0.846409E+02  0.152E-03    0.31       0.0  T
   2    -84.6408933 -0.607388E-07  0.780E-04    0.31      19.6  T
   3    -84.6408933 -0.634341E-08  0.401E-04    0.31      38.0  T
   4    -84.6408933 -0.381121E-09  0.986E-05    0.31     154.7  T
   5    -84.6408933 -0.105132E-09  0.256E-05    0.31     595.8  T
     SCC iter.                  ...        0 min,  0.019 sec
     gradient                   ...        0 min,  0.087 sec
 * total energy  :   -83.8764354 Eh     change       -0.5453724E-05 Eh
   gradient norm :     0.0009766 Eh/α   predicted    -0.3655564E-05 ( -32.97%)
   displ. norm   :     0.0376972 α      lambda       -0.5511400E-05
   maximum displ.:     0.0231214 α      in ANC's #2, #1, #6, ...

........................................................................
.............................. CYCLE   45 ..............................
........................................................................
   1    -84.6410584 -0.846411E+02  0.257E-03    0.31       0.0  T
   2    -84.6410587 -0.245158E-06  0.131E-03    0.31      11.6  T
   3    -84.6410587 -0.284834E-07  0.631E-04    0.31      24.2  T
   4    -84.6410587 -0.264976E-09  0.200E-04    0.31      76.4  T
   5    -84.6410587 -0.368686E-09  0.476E-05    0.31     320.4  T
     SCC iter.                  ...        0 min,  0.019 sec
     gradient                   ...        0 min,  0.086 sec
 * total energy  :   -83.8764398 Eh     change       -0.4456834E-05 Eh
   gradient norm :     0.0010546 Eh/α   predicted    -0.2930976E-05 ( -34.24%)
   displ. norm   :     0.0232859 α      lambda       -0.2216063E-05
   maximum displ.:     0.0142498 α      in ANC's #2, #1, #4, ...

........................................................................
.............................. CYCLE   46 ..............................
........................................................................
   1    -84.6409654 -0.846410E+02  0.533E-04    0.31       0.0  T
   2    -84.6409654 -0.416607E-08  0.275E-04    0.31      55.5  T
   3    -84.6409654 -0.222883E-09  0.137E-04    0.31     111.7  T
   4    -84.6409654 -0.971880E-10  0.357E-05    0.31     427.4  T
     SCC iter.                  ...        0 min,  0.016 sec
     gradient                   ...        0 min,  0.087 sec
 * total energy  :   -83.8764429 Eh     change       -0.3080371E-05 Eh
   gradient norm :     0.0009175 Eh/α   predicted    -0.1130521E-05 ( -63.30%)
   displ. norm   :     0.0810069 α      lambda       -0.7006166E-05
   maximum displ.:     0.0474977 α      in ANC's #2, #1, #4, ...

   *** GEOMETRY OPTIMIZATION CONVERGED AFTER 46 ITERATIONS ***

------------------------------------------------------------------------
 total energy gain   :        -0.0272120 Eh      -17.0758 kcal/mol
 total RMSD          :         0.9636675 a0        0.5100 Å
 total power (kW/mol):        -1.5531517 (step)  -10.7097 (real)
------------------------------------------------------------------------

 ANCopt (total)                0 d,  0 h,  0 min,  6.671 sec
 optimizer setup                ...        0 min,  0.001 sec (  0.013%)
 model hessian                  ...        0 min,  0.090 sec (  1.348%)
 ANC generation                 ...        0 min,  0.008 sec (  0.117%)
 coordinate transformation      ...        0 min,  0.002 sec (  0.023%)
 single point calculation       ...        0 min,  6.546 sec ( 98.130%)
 optimization log               ...        0 min,  0.012 sec (  0.182%)
 hessian update                 ...        0 min,  0.001 sec (  0.020%)
 rational function              ...        0 min,  0.007 sec (  0.101%)

================
 final structure:
================
43
 xtb: 6.5.1 (579679a)
C           -3.81559244512621        2.57212313980643       -1.93229194215562
O           -3.11380283979162        2.27621230178197       -0.72785015722235
C           -2.35462666034403        1.16119303966124       -0.73144311647702
O           -2.25385470054399        0.45500426447305       -1.71750489440111
C           -1.79387756739347        0.82890386721750        0.65733572406344
C           -1.43044601339394        2.09138043030829        1.44587855627762
N           -0.59287463615830        0.01277870338172        0.49336790467878
C           -0.72004660411462       -1.26004820758902        0.41762361173380
C            0.53266897337700       -2.09882350644902        0.17999922729793
C            0.83944223912035       -2.93451339535383        1.43032758805362
C            0.35262596970882       -2.99037197987693       -1.05527990780168
N            1.62542334183804       -1.15339920511776       -0.05563520997987
C            2.89049295274362       -1.50363931470486       -0.30328585675978
O            3.31878515390318       -2.65009158191255       -0.37106072417252
C            3.79482472864058       -0.33838192679599       -0.51859068933588
N            5.05981598456101       -0.38000435926754       -0.80659149334736
N            5.47838245160468        0.91218471105358       -0.93418631111691
C            4.44348648695916        1.66166652680182       -0.71659227187614
C            4.38510182439803        3.13976022002117       -0.73692641084445
O            3.34595365529542        0.93444362158542       -0.44799467834949
N           -1.89087618563426       -1.93303010003755        0.52908804194838
C           -3.02231417811947       -1.30607051846703        1.20373511257001
O           -3.91396755159857       -2.07193810456626        1.66350954886032
C           -2.91676369753904        0.04659891665652        1.28630708487190
O           -3.92174953670328        0.81223074031188        1.92872569849011
H           -4.48933034032872        1.75190023871271       -2.19777584885908
H           -3.11158846787243        2.73435095214449       -2.75399296773535
H           -4.38790694448656        3.48080628672696       -1.75192503560040
H           -0.68314140294693        2.66842385894848        0.90362063312760
H           -2.31343249310183        2.70837523441931        1.60401058075479
H           -1.02013955314549        1.80543074977496        2.41361465394338
H            1.02644280062441       -2.27698082726386        2.27834632600124
H           -0.00738334524777       -3.57811066511336        1.66118448385750
H            1.71690039808104       -3.55691187484575        1.26347079472989
H            0.16408012011523       -2.37477095057828       -1.93441800021299
H            1.24813104556347       -3.58595716669886       -1.22343276575570
H           -0.48834366664541       -3.66489173793315       -0.90774020776294
H            1.36651339004930       -0.17172244214628        0.01393115109538
H            5.35585559643514        3.53656652037613       -1.02207054651128
H            3.63036212383325        3.47641543795996       -1.44671058022475
H            4.11550277336821        3.51738110298550        0.24885711329664
H           -1.87328185891940       -2.93637060185514        0.61555502559114
H           -4.57545132106049        0.18190260145945        2.26310575526341
 
 Bond Distances (Angstroems)
 ---------------------------
C1-O2=1.4250         C1-H26=1.0942        C1-H27=1.0941        C1-H28=1.0889        O2-C1=1.4250         O2-C3=1.3489         
C3-O2=1.3489         C3-O4=1.2170         C3-C5=1.5341         O4-C3=1.2170         C5-C3=1.5341         C5-C6=1.5322         
C5-N7=1.4613         C5-C24=1.5061        C6-C5=1.5322         C6-H29=1.0888        C6-H30=1.0887        C6-H31=1.0893        
N7-C5=1.4613         N7-C8=1.2814         C8-N7=1.2814         C8-C9=1.5262         C8-N21=1.3551        C9-C8=1.5262         
C9-C10=1.5349        C9-C11=1.5340        C9-N12=1.4641        C10-C9=1.5349        C10-H32=1.0892       C10-H33=1.0884       
C10-H34=1.0886       C11-C9=1.5340        C11-H35=1.0897       C11-H36=1.0885       C11-H37=1.0881       N12-C9=1.4641        
N12-C13=1.3358       N12-H38=1.0176       C13-N12=1.3358       C13-O14=1.2257       C13-C15=1.4906       O14-C13=1.2257       
C15-C13=1.4906       C15-N16=1.2980       C15-O20=1.3515       N16-C15=1.2980       N16-N17=1.3643       N17-N16=1.3643       
N17-C18=1.2962       C18-N17=1.2962       C18-C19=1.4794       C18-O20=1.3437       C19-C18=1.4794       C19-H39=1.0868       
C19-H40=1.0894       C19-H41=1.0895       O20-C15=1.3515       O20-C18=1.3437       N21-C8=1.3551        N21-C22=1.4589       
N21-H42=1.0072       C22-N21=1.4589       C22-O23=1.2621       C22-C24=1.3593       O23-C22=1.2621       C24-C5=1.5061        
C24-C22=1.3593       C24-O25=1.4174       O25-C24=1.4174       O25-H43=0.9677       H26-C1=1.0942        H27-C1=1.0941        
H28-C1=1.0889        H29-C6=1.0888        H30-C6=1.0887        H31-C6=1.0893        H32-C10=1.0892       H33-C10=1.0884       
H34-C10=1.0886       H35-C11=1.0897       H36-C11=1.0885       H37-C11=1.0881       H38-N12=1.0176       H39-C19=1.0868       
H40-C19=1.0894       H41-C19=1.0895       H42-N21=1.0072       H43-O25=0.9677       
 C  H  Rav=1.0895 sigma=0.0019  Rmin=1.0868  Rmax=1.0942    15
 C  C  Rav=1.4997 sigma=0.0533  Rmin=1.3593  Rmax=1.5349     9
 N  H  Rav=1.0124 sigma=0.0052  Rmin=1.0072  Rmax=1.0176     2
 N  C  Rav=1.3688 sigma=0.0750  Rmin=1.2814  Rmax=1.4641     8
 N  N  Rav=1.3643 sigma=0.0000  Rmin=1.3643  Rmax=1.3643     1
 O  H  Rav=0.9677 sigma=0.0000  Rmin=0.9677  Rmax=0.9677     1
 O  C  Rav=1.3239 sigma=0.0755  Rmin=1.2170  Rmax=1.4250     8
 
 selected bond angles (degree)
 --------------------
H26-C1-O2=110.65               H27-C1-O2=110.41               H27-C1-H26=108.97              H28-C1-O2=106.98               
H28-C1-H26=110.01              H28-C1-H27=109.81              C3-O2-C1=116.52                O4-C3-O2=121.90                
C5-C3-O2=112.48                C5-C3-O4=125.28                C6-C5-C3=111.97                N7-C5-C3=108.65                
N7-C5-C6=108.84                C24-C5-C3=102.59               C24-C5-C6=112.95               C24-C5-N7=111.69               
H29-C6-C5=110.07               H30-C6-C5=110.45               H30-C6-H29=109.19              H31-C6-C5=109.28               
H31-C6-H29=108.85              H31-C6-H30=108.98              C8-N7-C5=118.67                C9-C8-N7=118.27                
N21-C8-N7=125.04               N21-C8-C9=116.68               C10-C9-C8=109.66               C11-C9-C8=110.39               
C11-C9-C10=111.28              N12-C9-C8=106.43               N12-C9-C10=109.48              N12-C9-C11=109.47              
H32-C10-C9=109.87              H33-C10-C9=109.83              H33-C10-H32=108.99             H34-C10-C9=110.34              
H34-C10-H32=109.03             H34-C10-H33=108.76             
 
 selected dihedral angles (degree)
 ---------------------------------
C3-O2-C1-H26= 59.00           C3-O2-C1-H27=298.28           C3-O2-C1-H28=178.83           O4-C3-O2-C1=  1.23            
C5-C3-O2-C1=187.68            C6-C5-C3-O2=323.85            C6-C5-C3-O4=150.57            N7-C5-C3-O2=203.61            
N7-C5-C3-O4= 30.32            C24-C5-C3-O2= 85.25           C24-C5-C3-O4=271.96           H29-C6-C5-C3=300.58           
H29-C6-C5-N7= 60.71           H29-C6-C5-C24=185.36          H30-C6-C5-C3= 61.22           H30-C6-C5-N7=181.35           
H30-C6-C5-C24=306.00          H31-C6-C5-C3=181.09           H31-C6-C5-N7=301.23           H31-C6-C5-C24= 65.87          
C8-N7-C5-C3=271.94            C8-N7-C5-C6=149.77            C8-N7-C5-C24= 24.39           C9-C8-N7-C5=177.14            
N21-C8-N7-C5=357.32           C10-C9-C8-N7=112.21           C10-C9-C8-N21=292.05          C11-C9-C8-N7=235.17           
C11-C9-C8-N21= 55.01          N12-C9-C8-N7=353.88           N12-C9-C8-N21=173.71          H32-C10-C9-C8=298.78          
H32-C10-C9-C11=176.35         H32-C10-C9-N12= 55.20         H33-C10-C9-C8= 58.66          H33-C10-C9-C11=296.22         
H33-C10-C9-N12=175.08         H34-C10-C9-C8=178.54          H34-C10-C9-C11= 56.10         H34-C10-C9-N12=294.96         
           -------------------------------------------------
          |                Final Singlepoint                |
           -------------------------------------------------

          ...................................................
          :                      SETUP                      :
          :.................................................:
          :  # basis functions                 136          :
          :  # atomic orbitals                 136          :
          :  # shells                           86          :
          :  # electrons                       136          :
          :  # halogen bonds                     0          :
          :  max. iterations                   250          :
          :  Hamiltonian                  GFN1-xTB          :
          :  restarted?                      false          :
          :  GBSA solvation                   true          :
          :  PC potential                    false          :
          :  electronic temp.          300.0000000     K    :
          :  accuracy                    1.0000000          :
          :  -> integral cutoff          0.2500000E+02      :
          :  -> integral neglect         0.1000000E-07      :
          :  -> SCF convergence          0.1000000E-05 Eh   :
          :  -> wf. convergence          0.2000000E-04 e    :
          :  Broyden damping             0.4000000          :
          ...................................................

 iter      E             dE          RMSdq      gap      omega  full diag
   1    -84.6409654 -0.846410E+02  0.760E-06    0.31       0.0  T
   2    -84.6409654 -0.710543E-12  0.356E-06    0.31    4284.5  T
   3    -84.6409654 -0.255795E-12  0.191E-06    0.31    7970.7  T

   *** convergence criteria satisfied after 3 iterations ***

         #    Occupation            Energy/Eh            Energy/eV
      -------------------------------------------------------------
         1        2.0000           -0.8581030             -23.3502
       ...           ...                  ...                  ...
        62        2.0000           -0.4419419             -12.0259
        63        2.0000           -0.4368538             -11.8874
        64        2.0000           -0.4313975             -11.7389
        65        2.0000           -0.4004520             -10.8969
        66        2.0000           -0.3895591             -10.6004
        67        2.0000           -0.3774492             -10.2709
        68        1.9949           -0.3103493              -8.4450 (HOMO)
        69        0.0051           -0.2990242              -8.1369 (LUMO)
        70                         -0.2511273              -6.8335
        71                         -0.2348019              -6.3893
        72                         -0.2196750              -5.9777
        73                         -0.1871510              -5.0926
       ...                                ...                  ...
       136                          0.7280395              19.8110
      -------------------------------------------------------------
                  HL-Gap            0.0113251 Eh            0.3082 eV
             Fermi-level           -0.3046867 Eh           -8.2909 eV

 SCC (total)                   0 d,  0 h,  0 min,  0.140 sec
 SCC setup                      ...        0 min,  0.002 sec (  1.458%)
 Dispersion                     ...        0 min,  0.000 sec (  0.274%)
 classical contributions        ...        0 min,  0.000 sec (  0.086%)
 integral evaluation            ...        0 min,  0.036 sec ( 26.044%)
 iterations                     ...        0 min,  0.012 sec (  8.447%)
 molecular gradient             ...        0 min,  0.088 sec ( 62.969%)
 printout                       ...        0 min,  0.001 sec (  0.682%)

         :::::::::::::::::::::::::::::::::::::::::::::::::::::
         ::                     SUMMARY                     ::
         :::::::::::::::::::::::::::::::::::::::::::::::::::::
         :: total energy             -83.876442893997 Eh    ::
         :: total w/o Gsasa/hb       -83.853266265101 Eh    ::
         :: gradient norm              0.000917644135 Eh/a0 ::
         :: HOMO-LUMO gap              0.308170985676 eV    ::
         ::.................................................::
         :: SCC energy               -84.640965414097 Eh    ::
         :: -> electrostatic           0.468379296348 Eh    ::
         :: -> Gsolv                  -0.113713103919 Eh    ::
         ::    -> Gelec               -0.090536475024 Eh    ::
         ::    -> Gsasa               -0.024187409016 Eh    ::
         ::    -> Ghb                 -0.006613498884 Eh    ::
         ::    -> Gshift               0.007624279005 Eh    ::
         :: repulsion energy           0.791588030392 Eh    ::
         :: dispersion energy         -0.027065510292 Eh    ::
         :: halogen bond corr.         0.000000000000 Eh    ::
         :: add. restraining           0.000000000000 Eh    ::
         :: total charge              -1.000000000000 e     ::
         :::::::::::::::::::::::::::::::::::::::::::::::::::::

           -------------------------------------------------
          |                Property Printout                |
           -------------------------------------------------

    * Orbital Energies and Occupations

         #    Occupation            Energy/Eh            Energy/eV
      -------------------------------------------------------------
         1        2.0000           -0.8581030             -23.3502
       ...           ...                  ...                  ...
        56        2.0000           -0.4735213             -12.8852
        57        2.0000           -0.4663054             -12.6888
        58        2.0000           -0.4619865             -12.5713
        59        2.0000           -0.4576668             -12.4537
        60        2.0000           -0.4527923             -12.3211
        61        2.0000           -0.4508224             -12.2675
        62        2.0000           -0.4419419             -12.0259
        63        2.0000           -0.4368538             -11.8874
        64        2.0000           -0.4313975             -11.7389
        65        2.0000           -0.4004520             -10.8969
        66        2.0000           -0.3895591             -10.6004
        67        2.0000           -0.3774492             -10.2709
        68        1.9949           -0.3103493              -8.4450 (HOMO)
        69        0.0051           -0.2990242              -8.1369 (LUMO)
        70                         -0.2511273              -6.8335
        71                         -0.2348019              -6.3893
        72                         -0.2196750              -5.9777
        73                         -0.1871510              -5.0926
        74                         -0.1407794              -3.8308
        75                         -0.1294772              -3.5233
        76                         -0.1272883              -3.4637
        77                         -0.1156763              -3.1477
        78                         -0.1100760              -2.9953
        79                         -0.0968334              -2.6350
       ...                                ...                  ...
       136                          0.7280395              19.8110
      -------------------------------------------------------------
                  HL-Gap            0.0113251 Eh            0.3082 eV
             Fermi-level           -0.3046867 Eh           -8.2909 eV

  Mulliken/CM5 charges         n(s)   n(p)   n(d)
     1C     0.17059  0.05059   0.973  2.856  0.000
     2O    -0.43001 -0.51837   1.690  4.740  0.000
     3C     0.54506  0.60888   0.998  2.457  0.000
     4O    -0.60010 -0.64451   1.732  4.868  0.000
     5C     0.13921  0.19155   1.060  2.801  0.000
     6C    -0.08469 -0.22192   1.009  3.076  0.000
     7N    -0.47234 -0.66186   1.547  3.925  0.000
     8C     0.29139  0.44591   1.011  2.698  0.000
     9C     0.14935  0.18989   1.066  2.785  0.000
    10C    -0.10174 -0.24132   1.017  3.084  0.000
    11C    -0.09974 -0.23912   1.016  3.084  0.000
    12N    -0.32196 -0.67112   1.431  3.891  0.000
    13C     0.45983  0.57059   0.973  2.567  0.000
    14O    -0.59764 -0.64192   1.729  4.869  0.000
    15C     0.33026  0.45580   1.013  2.657  0.000
    16N    -0.23380 -0.33749   1.568  3.666  0.000
    17N    -0.27597 -0.38386   1.566  3.710  0.000
    18C     0.38793  0.49669   1.005  2.607  0.000
    19C    -0.11007 -0.24758   1.011  3.099  0.000
    20O    -0.35751 -0.41314   1.697  4.661  0.000
    21N    -0.36854 -0.70844   1.444  3.925  0.000
    22C     0.35857  0.44401   0.976  2.665  0.000
    23O    -0.72874 -0.76873   1.749  4.980  0.000
    24C     0.03553  0.06318   0.999  2.966  0.000
    25O    -0.59671 -0.79148   1.713  4.883  0.000
    26H     0.04051  0.10206   0.959  0.000  0.000
    27H     0.03762  0.09903   0.962  0.000  0.000
    28H     0.04011  0.10031   0.960  0.000  0.000
    29H     0.01977  0.07642   0.980  0.000  0.000
    30H     0.03587  0.09663   0.964  0.000  0.000
    31H     0.02700  0.08340   0.973  0.000  0.000
    32H     0.03879  0.09570   0.961  0.000  0.000
    33H     0.04035  0.09665   0.960  0.000  0.000
    34H     0.05045  0.11004   0.950  0.000  0.000
    35H     0.03932  0.09626   0.961  0.000  0.000
    36H     0.04949  0.10964   0.951  0.000  0.000
    37H     0.03933  0.09620   0.961  0.000  0.000
    38H     0.24760  0.46236   0.752  0.000  0.000
    39H     0.06630  0.12228   0.934  0.000  0.000
    40H     0.07567  0.13022   0.924  0.000  0.000
    41H     0.07626  0.13070   0.924  0.000  0.000
    42H     0.22869  0.43020   0.771  0.000  0.000
    43H     0.35873  0.53569   0.641  0.000  0.000

Wiberg/Mayer (AO) data.
largest (>0.10) Wiberg bond orders for each atom

 ---------------------------------------------------------------------------
     #   Z sym  total        # sym  WBO       # sym  WBO       # sym  WBO
 ---------------------------------------------------------------------------
     1   6 C    3.890 --    28 H    0.987    27 H    0.981    26 H    0.981
                             2 O    0.912
     2   8 O    2.175 --     3 C    1.072     1 C    0.912     4 O    0.117
     3   6 C    3.814 --     4 O    1.634     2 O    1.072     5 C    0.920
     4   8 O    1.893 --     3 C    1.634     2 O    0.117
     5   6 C    3.963 --     6 C    0.990     7 N    0.967    24 C    0.954
                             3 C    0.920
     6   6 C    3.996 --     5 C    0.990    29 H    0.988    31 H    0.987
                            30 H    0.985
     7   7 N    3.003 --     8 C    1.666     5 C    0.967    21 N    0.164
     8   6 C    3.951 --     7 N    1.666    21 N    1.202     9 C    0.968
     9   6 C    3.932 --    11 C    0.987    10 C    0.983     8 C    0.968
                            12 N    0.925
    10   6 C    3.992 --    32 H    0.986    33 H    0.984     9 C    0.983
                            34 H    0.981
    11   6 C    3.992 --     9 C    0.987    35 H    0.986    37 H    0.984
                            36 H    0.981
    12   7 N    3.387 --    13 C    1.303     9 C    0.925    38 H    0.872
                            14 O    0.186
    13   6 C    3.922 --    14 O    1.554    12 N    1.303    15 C    0.985
    14   8 O    1.876 --    13 C    1.554    12 N    0.186
    15   6 C    3.866 --    16 N    1.624    20 O    1.048    13 C    0.985
    16   7 N    2.992 --    15 C    1.624    17 N    1.193
    17   7 N    2.980 --    18 C    1.617    16 N    1.193
    18   6 C    3.871 --    17 N    1.617    20 O    1.073    19 C    1.030
    19   6 C    3.988 --    18 C    1.030    39 H    0.983    40 H    0.966
                            41 H    0.963
    20   8 O    2.314 --    18 C    1.073    15 C    1.048
    21   7 N    3.315 --     8 C    1.202    42 H    0.911    22 C    0.899
                             7 N    0.164
    22   6 C    3.915 --    24 C    1.513    23 O    1.367    21 N    0.899
    23   8 O    1.711 --    22 C    1.367    24 C    0.170
    24   6 C    3.791 --    22 C    1.513     5 C    0.954    25 O    0.945
                            23 O    0.170
    25   8 O    1.917 --    24 C    0.945    43 H    0.857
    26   1 H    1.011 --     1 C    0.981
    27   1 H    1.012 --     1 C    0.981
    28   1 H    1.014 --     1 C    0.987
    29   1 H    1.009 --     6 C    0.988
    30   1 H    1.017 --     6 C    0.985
    31   1 H    1.012 --     6 C    0.987
    32   1 H    1.004 --    10 C    0.986
    33   1 H    1.003 --    10 C    0.984
    34   1 H    1.011 --    10 C    0.981
    35   1 H    1.004 --    11 C    0.986
    36   1 H    1.011 --    11 C    0.981
    37   1 H    1.004 --    11 C    0.984
    38   1 H    0.972 --    12 N    0.872
    39   1 H    0.999 --    19 C    0.983
    40   1 H    0.998 --    19 C    0.966
    41   1 H    0.997 --    19 C    0.963
    42   1 H    0.963 --    21 N    0.911
    43   1 H    0.889 --    25 O    0.857
 ---------------------------------------------------------------------------

Topologies differ in total number of bonds
Writing topology from bond orders to xtbtopo.mol

 dipole moment from electron density (au)
     X       Y       Z   
   2.2014   3.4949  -0.8753  total (Debye):   10.732

           -------------------------------------------------
          |                Geometry Summary                 |
           -------------------------------------------------

      molecular mass/u    :      352.3231817
   center of mass at/Å    :        0.1159182      -0.1332044       0.0055646
  moments of inertia/u·Å² :        0.1513462E+04   0.3742385E+04   0.4651934E+04
rotational constants/cm⁻¹ :        0.1113846E-01   0.4504516E-02   0.3623790E-02

 * 35 selected distances

     #   Z          #   Z                                           value/Å
     1   6 C        2   8 O                                       1.4250447
     2   8 O        3   6 C                                       1.3489365
     3   6 C        4   8 O                                       1.2170356
     5   6 C        6   6 C                                       1.5322303
     7   7 N        8   6 C                                       1.2814049
     9   6 C       10   6 C                                       1.5348644 (max)
     9   6 C       11   6 C                                       1.5340108
     9   6 C       12   7 N                                       1.4640571
    12   7 N       13   6 C                                       1.3358145
    13   6 C       14   8 O                                       1.2257164
    15   6 C       16   7 N                                       1.2980293
    17   7 N       18   6 C                                       1.2961790
    18   6 C       19   6 C                                       1.4793862
    15   6 C       20   8 O                                       1.3515007
    18   6 C       20   8 O                                       1.3437174
     8   6 C       21   7 N                                       1.3550539
    22   6 C       24   6 C                                       1.3592917
     1   6 C       26   1 H                                       1.0941528
     1   6 C       27   1 H                                       1.0941354
     1   6 C       28   1 H                                       1.0889359
     6   6 C       29   1 H                                       1.0888008
     6   6 C       30   1 H                                       1.0887395
     6   6 C       31   1 H                                       1.0893264
    10   6 C       32   1 H                                       1.0892448
    10   6 C       33   1 H                                       1.0884053
    10   6 C       34   1 H                                       1.0886478
    11   6 C       35   1 H                                       1.0896780
    11   6 C       36   1 H                                       1.0885434
    11   6 C       37   1 H                                       1.0881062
    12   7 N       38   1 H                                       1.0176263
    19   6 C       39   1 H                                       1.0867960
    19   6 C       40   1 H                                       1.0893863
    19   6 C       41   1 H                                       1.0895185
    21   7 N       42   1 H                                       1.0072132
    25   8 O       43   1 H                                       0.9677034 (min)

 * 6 distinct bonds (by element types)

   Z      Z             #   av. dist./Å        max./Å        min./Å
   1 H    6 C          15     1.0894945     1.0941528     1.0867960
   6 C    6 C           5     1.4879567     1.5348644     1.3592917
   1 H    7 N           2     1.0124198     1.0176263     1.0072132
   6 C    7 N           6     1.3384231     1.4640571     1.2814049
   1 H    8 O           1     0.9677034     0.9677034     0.9677034
   6 C    8 O           6     1.3186586     1.4250447     1.2170356


optimized geometry written to: xtbopt.xyz


           -------------------------------------------------
          | TOTAL ENERGY              -83.876442893997 Eh   |
          | GRADIENT NORM               0.000917644135 Eh/α |
          | HOMO-LUMO GAP               0.308170985676 eV   |
           -------------------------------------------------

------------------------------------------------------------------------
 * finished run on 2023/06/20 at 14:57:20.806     
------------------------------------------------------------------------
 total:
 * wall-time:     0 d,  0 h,  0 min,  7.131 sec
 *  cpu-time:     0 d,  0 h,  0 min,  7.048 sec
 * ratio c/w:     0.988 speedup
 SCF:
 * wall-time:     0 d,  0 h,  0 min,  0.201 sec
 *  cpu-time:     0 d,  0 h,  0 min,  0.200 sec
 * ratio c/w:     0.997 speedup
 ANC optimizer:
 * wall-time:     0 d,  0 h,  0 min,  6.818 sec
 *  cpu-time:     0 d,  0 h,  0 min,  6.794 sec
 * ratio c/w:     0.996 speedup

