42
 energy: -83.635097994481 gnorm: 0.000315918912 xtb: 6.5.1 (579679a)
C            6.99370996066131       -0.99887692286610        0.18684458482724
O            5.85385564199949       -0.25907318869602        0.59255656849685
C            4.72354212623946       -0.46858272103276       -0.13815882772983
O            4.73297704677080       -1.26691218255445       -1.07097138199074
C            3.57330246296717        0.31382516972273        0.27711732663391
N            2.45398721347351        0.07305481090879       -0.50441769816486
C            1.35406787922277        0.69033913141998       -0.27739564801777
C            0.14365616296749        0.50459213277381       -1.17700758374173
C            0.22207780652857        1.61039496724460       -2.24632262119562
C            0.20478963320938       -0.88759465138729       -1.82759587723353
N           -1.04857678364575        0.68001296482923       -0.34708130360270
C           -2.33765970970090        0.38584927785747       -0.96645350982197
O           -2.50082752847120        0.53573303816299       -2.21624393834480
C           -3.34483917089484        0.17074708967795       -0.06213835422852
O           -3.10767804758356       -0.18614215288647        1.30387671576612
C           -4.18841359669241       -0.88784571108311        1.66000313995311
C           -4.25687742223307       -1.43013441374513        3.04702565000617
N           -5.10329655115748       -1.04637036185044        0.78153835481465
N           -4.65687306067540       -0.37933321692594       -0.41735530955365
C           -5.63884781633325        0.67361658552178       -0.72432697675287
N            1.24375276892018        1.62505939485183        0.73152220584613
C            2.26180425811111        1.96223402647645        1.57661455010371
O            2.07925569455461        2.80814540185202        2.45451144914139
C            3.57407695863376        1.24592565942855        1.34653378793269
O            4.53962684685617        1.51847115209019        2.08971424830117
H            7.80249851418482       -0.74399115094470        0.87070819946747
H            6.79831844992726       -2.07531563222212        0.23266821478840
H            7.28247128616031       -0.73892108330102       -0.83702793325098
H            1.18731855584570        1.56435153321906       -2.75141918945506
H            0.11782708029893        2.58595758870036       -1.77171604528038
H           -0.56894240815855        1.49328442878849       -2.98478752821508
H            1.16470693403316       -1.01578983352100       -2.32859224582753
H            0.10394103892283       -1.66016423824636       -1.06492754336265
H           -0.59589935816026       -1.00007028174049       -2.55723948287260
H           -0.96396132305328        0.12686527004046        0.50280214007157
H           -3.47430302300471       -2.17260289064258        3.20298381345418
H           -5.22706955066965       -1.89221813084179        3.21226987907520
H           -4.11012119261273       -0.62662811184452        3.76774397087357
H           -5.72427135541819        1.39758822106479        0.09273017926808
H           -6.60760642782222        0.20655677257004       -0.89864364458509
H           -5.30716283714546        1.17982431757554       -1.63049424308154
H            0.35166584294443        2.07987194154627        0.87055190748041
