42
 energy: -83.007622801820 gnorm: 0.000738820119 xtb: 6.5.1 (579679a)
C           -5.40215455647865       -1.57854268165355        2.36184666780963
O           -4.65127140695893       -0.99387482682992        1.28900257678301
C           -3.33409986049668       -1.08826121031097        1.35481710874819
O           -2.72834281614989       -1.61346390817498        2.25456395879790
C           -2.63309602234891       -0.43663691808247        0.17276525523621
N           -1.35980815584606       -1.00052578185327       -0.06927554514274
C           -0.54309582145592       -0.39000834661250       -0.83656179821631
C            0.77151196268977       -1.06614002779073       -1.20309958685355
C            0.84832479745639       -2.43245284608713       -0.51980441651307
C            0.87236023930735       -1.23285497676285       -2.72435234765647
N            1.90112146737531       -0.27738676820776       -0.68845482886227
C            2.37165875056779        0.87108362952535       -1.20846488754120
O            1.85537721510730        1.50679854454052       -2.11845059859338
C            3.60987680737715        1.33846398460186       -0.54270330644436
N            4.27955648240681        2.42162820580066       -0.78785334002797
N            5.33903578782955        2.43111299628254        0.06697248508373
C            5.25228150867643        1.35320885031039        0.78304803011643
C            6.16475308149281        0.89817828165697        1.85349062977448
O            4.17936913090111        0.61765100819304        0.44789660557254
N           -0.76557579109143        0.87019028513619       -1.33859852847220
C           -1.76671492823885        1.69394278110312       -0.89182394527789
O           -1.71483634230865        2.89967832689451       -1.02087310219293
C           -2.90862610195707        0.98491887180809       -0.22328470207258
C           -3.90639554108625        1.87377189382423        0.47955676588978
O           -3.40248371165065       -0.11649042985092       -0.94632675871921
H           -6.42375458571966       -1.22050478769046        2.25543673255634
H           -5.37024879535195       -2.66714221229222        2.28175046028483
H           -4.98495981198202       -1.26942549047412        3.32261620269947
H            0.02846555897476       -3.06172573094332       -0.86176849485477
H            0.77169426015021       -2.31914311157607        0.56045681435700
H            1.79280017744633       -2.91376815457991       -0.76421285056938
H            1.83848294383076       -1.66591562094174       -2.97665789349190
H            0.08353435530770       -1.90294458205443       -3.06305858360023
H            0.76784511965821       -0.27969568028045       -3.23801261612085
H            2.43110855457635       -0.70255163973885        0.05526254572068
H            6.58810030737882       -0.07112602543415        1.59192372910788
H            5.61400482186169        0.78301148954134        2.78680130792782
H            6.96464827160593        1.62223375247604        1.98679719225299
H            0.00908849562174        1.32560576234484       -1.82131155080190
H           -3.49318984655350        2.22405095060166        1.42355946721355
H           -4.82978298286154        1.33328995236480        0.66607337305712
H           -4.11656401906216        2.73830819122002       -0.14968822696208
