      -----------------------------------------------------------      
     |                   =====================                   |     
     |                           x T B                           |     
     |                   =====================                   |     
     |                         S. Grimme                         |     
     |          Mulliken Center for Theoretical Chemistry        |     
     |                    University of Bonn                     |     
      -----------------------------------------------------------      

   * xtb version 6.5.1 (579679a) compiled by 'ehlert@majestix' on 2022-07-11

   xtb is free software: you can redistribute it and/or modify it under
   the terms of the GNU Lesser General Public License as published by
   the Free Software Foundation, either version 3 of the License, or
   (at your option) any later version.
   
   xtb is distributed in the hope that it will be useful,
   but WITHOUT ANY WARRANTY; without even the implied warranty of
   MERCHANTABILITY or FITNESS FOR A PARTICULAR PURPOSE.  See the
   GNU Lesser General Public License for more details.
   
   Cite this work as:
   * C. Bannwarth, E. Caldeweyher, S. Ehlert, A. Hansen, P. Pracht,
     J. Seibert, S. Spicher, S. Grimme, WIREs Comput. Mol. Sci., 2020, 11,
     e01493. DOI: 10.1002/wcms.1493
   
   for GFN2-xTB:
   * C. Bannwarth, S. Ehlert and S. Grimme., J. Chem. Theory Comput., 2019,
     15, 1652-1671. DOI: 10.1021/acs.jctc.8b01176
   for GFN1-xTB:
   * S. Grimme, C. Bannwarth, P. Shushkov, J. Chem. Theory Comput., 2017,
     13, 1989-2009. DOI: 10.1021/acs.jctc.7b00118
   for GFN0-xTB:
   * P. Pracht, E. Caldeweyher, S. Ehlert, S. Grimme, ChemRxiv, 2019, preprint.
     DOI: 10.26434/chemrxiv.8326202.v1
   for GFN-FF:
   * S. Spicher and S. Grimme, Angew. Chem. Int. Ed., 2020, 59, 15665-15673.
     DOI: 10.1002/anie.202004239
   
   for ALPB and GBSA implicit solvation:
   * S. Ehlert, M. Stahn, S. Spicher, S. Grimme, J. Chem. Theory Comput.,
     2021, 17, 4250-4261. DOI: 10.1021/acs.jctc.1c00471
   
   for DFT-D4:
   * E. Caldeweyher, C. Bannwarth and S. Grimme, J. Chem. Phys., 2017,
     147, 034112. DOI: 10.1063/1.4993215
   * E. Caldeweyher, S. Ehlert, A. Hansen, H. Neugebauer, S. Spicher,
     C. Bannwarth and S. Grimme, J. Chem. Phys., 2019, 150, 154122.
     DOI: 10.1063/1.5090222
   * E. Caldeweyher, J.-M. Mewes, S. Ehlert and S. Grimme, Phys. Chem. Chem. Phys.
     2020, 22, 8499-8512. DOI: 10.1039/D0CP00502A
   
   for sTDA-xTB:
   * S. Grimme and C. Bannwarth, J. Chem. Phys., 2016, 145, 054103.
     DOI: 10.1063/1.4959605
   
   in the mass-spec context:
   * V. Asgeirsson, C. Bauer and S. Grimme, Chem. Sci., 2017, 8, 4879.
     DOI: 10.1039/c7sc00601b
   * J. Koopman and S. Grimme, ACS Omega 2019, 4, 12, 15120-15133.
     DOI: 10.1021/acsomega.9b02011
   
   for metadynamics refer to:
   * S. Grimme, J. Chem. Theory Comput., 2019, 155, 2847-2862
     DOI: 10.1021/acs.jctc.9b00143
   
   for SPH calculations refer to:
   * S. Spicher and S. Grimme, J. Chem. Theory Comput., 2021, 17, 1701-1714
     DOI: 10.1021/acs.jctc.0c01306
   
   with help from (in alphabetical order)
   P. Atkinson, C. Bannwarth, F. Bohle, G. Brandenburg, E. Caldeweyher
   M. Checinski, S. Dohm, S. Ehlert, S. Ehrlich, I. Gerasimov, C. Hölzer
   A. Katbashev, J. Koopman, C. Lavigne, S. Lehtola, F. März, M. Müller,
   F. Musil, H. Neugebauer, J. Pisarek, C. Plett, P. Pracht, F. Pultar,
   J. Seibert, P. Shushkov, S. Spicher, M. Stahn, M. Steiner, T. Strunk,
   J. Stückrath, T. Rose, and J. Unsleber
   
 * started run on 2023/06/20 at 18:23:53.448     

           -------------------------------------------------
          |                Calculation Setup                |
           -------------------------------------------------

          program call               : /lustre/hpc/kemi/ree/PhD/git/ReactivityQM/dep/xtb-6.5.1/bin/xtb --gfn 1 /lustre/hpc/kemi/ree/PhD/git/ReactivityQM/calculations/R02deprot/reac01prodN15/conf17/R02deprot_reac01prodN15_conf17_gfn1.xyz --opt --vfukui --chrg 0 --uhf 0 --alpb DMSO
          hostname                   : node308
          coordinate file            : /lustre/hpc/kemi/ree/PhD/git/ReactivityQM/calculations/R02deprot/reac01prodN15/conf17/R02deprot_reac01prodN15_conf17_gfn1.xyz
          omp threads                :                     1

   ID    Z sym.   atoms
    1    6 C      1, 3, 5, 6, 8, 9, 12-15, 17, 19, 22, 23
    2    8 O      2, 4, 7, 10, 18, 24
    3    7 N      11, 16, 20, 21, 25
    4    1 H      26-42

           -------------------------------------------------
          |                 G F N 1 - x T B                 |
           -------------------------------------------------

        Reference                      10.1021/acs.jctc.7b00118
      * Hamiltonian:
        H0-scaling (s, p, d)           1.850000    2.250000    2.000000
        zeta-weighting                 0.000000
      * Dispersion:
        s8                             2.400000
        a1                             0.630000
        a2                             5.000000
        s9                             0.000000
      * Repulsion:
        kExp                           1.500000
        rExp                           1.000000
      * Coulomb:
        alpha                          2.000000
        third order                    atomic
        anisotropic                    false
      * Halogen bond correction:
        rad-scale                      1.300000
        damping                        0.440000

      * Solvation model:               ALPB
        Solvent                        DMSO
        Parameter file                 internal GFN1-xTB/ALPB
        Dielectric constant                4.6680E+01
        Reference state                gsolv [1 M gas/solution]
        Free energy shift                  7.6243E-03 Eh       4.7843E+00 kcal/mol
        Temperature                        2.9815E+02 K
        Density                            1.1000E+00 kg/L
        Solvent mass                       7.8130E+01 g/mol
        Interaction kernel             P16
        Born radius scaling (c1)           1.7672E+00
        Born radii integrator          GBOBC
        Born offset                        0.0000E+00 a0       0.0000E+00 AA
        H-bond correction              true
        Ion screening                  false
        Surface tension                    1.0000E-05 Eh       1.5569E+01 dyn/cm
        Grid points                               230 per atom

          ...................................................
          :                      SETUP                      :
          :.................................................:
          :  # basis functions                 134          :
          :  # atomic orbitals                 134          :
          :  # shells                           84          :
          :  # electrons                       134          :
          :  # halogen bonds                     0          :
          :  max. iterations                   250          :
          :  Hamiltonian                  GFN1-xTB          :
          :  restarted?                      false          :
          :  GBSA solvation                   true          :
          :  PC potential                    false          :
          :  electronic temp.          300.0000000     K    :
          :  accuracy                    1.0000000          :
          :  -> integral cutoff          0.2500000E+02      :
          :  -> integral neglect         0.1000000E-07      :
          :  -> SCF convergence          0.1000000E-05 Eh   :
          :  -> wf. convergence          0.2000000E-04 e    :
          :  Broyden damping             0.4000000          :
          ...................................................

 iter      E             dE          RMSdq      gap      omega  full diag
   1    -83.2240598 -0.832241E+02  0.840E+00    0.82       0.0  T
   2    -83.2386642 -0.146044E-01  0.552E+00    0.16       1.0  T
   3    -83.3568403 -0.118176E+00  0.329E+00    0.71       1.0  T
   4    -83.5108475 -0.154007E+00  0.146E+00    0.65       1.0  T
   5    -83.5554634 -0.446159E-01  0.848E-01    0.46       1.0  T
   6    -83.2372792  0.318184E+00  0.220E+00    0.24       1.0  T
   7    -83.5658773 -0.328598E+00  0.760E-01    0.45       1.0  T
   8    -83.5720627 -0.618544E-02  0.635E-01    0.36       1.0  T
   9    -83.5823815 -0.103188E-01  0.450E-01    0.19       1.0  T
  10    -83.5321562  0.502253E-01  0.921E-01    0.04       1.0  T
  11    -83.5957793 -0.636231E-01  0.428E-02    0.08       1.0  T
  12    -83.5929005  0.287876E-02  0.204E-01    0.11       1.0  T
  13    -83.5959092 -0.300867E-02  0.506E-03    0.08       3.1  T
  14    -83.5951657  0.743543E-03  0.101E-01    0.07       1.0  T
  15    -83.5958131 -0.647442E-03  0.365E-02    0.07       1.0  T
  16    -83.5958749 -0.617707E-04  0.221E-02    0.08       1.0  T
  17    -83.5959104 -0.355675E-04  0.108E-03    0.08      14.3  T
  18    -83.5959104  0.658843E-07  0.143E-03    0.08      10.8  T
  19    -83.5959105 -0.149794E-06  0.325E-05    0.08     475.3  T
  20    -83.5959105  0.535323E-10  0.436E-05    0.08     354.1  T

   *** convergence criteria satisfied after 20 iterations ***

         #    Occupation            Energy/Eh            Energy/eV
      -------------------------------------------------------------
         1        2.0000           -0.8646450             -23.5282
       ...           ...                  ...                  ...
        61        2.0000           -0.4685615             -12.7502
        62        2.0000           -0.4620853             -12.5740
        63        2.0000           -0.4548384             -12.3768
        64        2.0000           -0.4451495             -12.1131
        65        2.0000           -0.4411734             -12.0049
        66        1.9998           -0.4355509             -11.8519
        67        1.6403           -0.4283282             -11.6554 (HOMO)
        68        0.3599           -0.4254459             -11.5770 (LUMO)
        69                         -0.3392250              -9.2308
        70                         -0.3168599              -8.6222
        71                         -0.2852209              -7.7613
        72                         -0.2596686              -7.0659
       ...                                ...                  ...
       134                          0.6918840              18.8271
      -------------------------------------------------------------
                  HL-Gap            0.0028823 Eh            0.0784 eV
             Fermi-level           -0.4268867 Eh          -11.6162 eV

 SCC (total)                   0 d,  0 h,  0 min,  0.238 sec
 SCC setup                      ...        0 min,  0.002 sec (  0.926%)
 Dispersion                     ...        0 min,  0.000 sec (  0.196%)
 classical contributions        ...        0 min,  0.000 sec (  0.057%)
 integral evaluation            ...        0 min,  0.074 sec ( 31.060%)
 iterations                     ...        0 min,  0.080 sec ( 33.455%)
 molecular gradient             ...        0 min,  0.081 sec ( 33.898%)
 printout                       ...        0 min,  0.001 sec (  0.388%)

         :::::::::::::::::::::::::::::::::::::::::::::::::::::
         ::                     SUMMARY                     ::
         :::::::::::::::::::::::::::::::::::::::::::::::::::::
         :: total energy             -82.857034606155 Eh    ::
         :: total w/o Gsasa/hb       -82.834660431913 Eh    ::
         :: gradient norm              0.140518420933 Eh/a0 ::
         :: HOMO-LUMO gap              0.078430567290 eV    ::
         ::.................................................::
         :: SCC energy               -83.595910519880 Eh    ::
         :: -> electrostatic           0.361164360271 Eh    ::
         :: -> Gsolv                  -0.056151874127 Eh    ::
         ::    -> Gelec               -0.033777699885 Eh    ::
         ::    -> Gsasa               -0.024479361516 Eh    ::
         ::    -> Ghb                 -0.005519091731 Eh    ::
         ::    -> Gshift               0.007624279005 Eh    ::
         :: repulsion energy           0.764258398601 Eh    ::
         :: dispersion energy         -0.025382484877 Eh    ::
         :: halogen bond corr.         0.000000000000 Eh    ::
         :: add. restraining           0.000000000000 Eh    ::
         :: total charge               0.000000000014 e     ::
         :::::::::::::::::::::::::::::::::::::::::::::::::::::

      ----------------------------------------------------------- 
     |                   =====================                   |
     |                        A N C O P T                        |
     |                   =====================                   |
     |               Approximate Normal Coordinate               |
     |                Rational Function Optimizer                |
      ----------------------------------------------------------- 

          ...................................................
          :                      SETUP                      :
          :.................................................:
          :   optimization level            normal          :
          :   max. optcycles                   200          :
          :   ANC micro-cycles                  20          :
          :   degrees of freedom               120          :
          :.................................................:
          :   RF solver                   davidson          :
          :   write xtbopt.log                true          :
          :   linear?                        false          :
          :   energy convergence         0.5000000E-05 Eh   :
          :   grad. convergence          0.1000000E-02 Eh/α :
          :   maximium RF displ.         1.0000000          :
          :   Hlow (freq-cutoff)         0.1000000E-01      :
          :   Hmax (freq-cutoff)         5.0000000          :
          :   S6 in model hess.         20.0000000          :
          ...................................................

generating ANC from model Hessian ...
Using Lindh-Hessian (1995)
 Shifting diagonal of input Hessian by   9.751858148076728E-003
 Lowest  eigenvalues of input Hessian
    0.000000    0.000000    0.000000    0.000000    0.000000    0.000000
    0.010000    0.010068    0.010519    0.011238    0.011613    0.012054
    0.013390    0.013907    0.014619    0.014794    0.016566    0.017620
 Highest eigenvalues
    2.032056    2.037039    2.106031    2.159490    2.306211    2.356358
 

........................................................................
.............................. CYCLE    1 ..............................
........................................................................
   1    -83.5959105 -0.835959E+02  0.382E-05    0.08       0.0  T
   2    -83.5959105  0.137821E-07  0.433E-04    0.08      35.6  T
   3    -83.5959105 -0.138902E-07  0.611E-07    0.08   25263.3  T
   4    -83.5959105  0.170530E-12  0.401E-07    0.08   38451.0  T
     SCC iter.                  ...        0 min,  0.027 sec
     gradient                   ...        0 min,  0.085 sec
 * total energy  :   -82.8570346 Eh     change       -0.1348326E-09 Eh
   gradient norm :     0.1405175 Eh/α   predicted     0.0000000E+00 (-100.00%)
   displ. norm   :     0.3388030 α      lambda       -0.2234470E-01
   maximum displ.:     0.1412538 α      in ANC's #27, #19, #26, ...

........................................................................
.............................. CYCLE    2 ..............................
........................................................................
   1    -83.6186989 -0.836187E+02  0.202E-01    0.27       0.0  T
   2    -83.5264259  0.922730E-01  0.112E+00    0.19       1.0  T
   3    -83.6208077 -0.943818E-01  0.141E-01    0.23       1.0  T
   4    -83.6214981 -0.690406E-03  0.658E-02    0.23       1.0  T
   5    -83.6217839 -0.285757E-03  0.155E-02    0.21       1.0  T
   6    -83.6217788  0.509217E-05  0.129E-02    0.21       1.2  T
   7    -83.6217852 -0.644470E-05  0.652E-03    0.21       2.4  T
   8    -83.6217882 -0.291862E-05  0.807E-04    0.21      19.1  T
   9    -83.6217882 -0.332891E-07  0.319E-04    0.21      48.4  T
  10    -83.6217882  0.170790E-08  0.300E-04    0.21      51.5  T
  11    -83.6217882 -0.537281E-08  0.107E-04    0.21     144.6  T
  12    -83.6217882 -0.773653E-09  0.146E-05    0.21    1058.4  T
     SCC iter.                  ...        0 min,  0.040 sec
     gradient                   ...        0 min,  0.080 sec
 * total energy  :   -82.8758034 Eh     change       -0.1876883E-01 Eh
   gradient norm :     0.0907840 Eh/α   predicted    -0.1247168E-01 ( -33.55%)
   displ. norm   :     0.6669188 α      lambda       -0.3516702E-01
   maximum displ.:     0.2154172 α      in ANC's #19, #27, #39, ...

........................................................................
.............................. CYCLE    3 ..............................
........................................................................
   1    -83.6543275 -0.836543E+02  0.367E-01    0.88       0.0  T
   2    -83.6577952 -0.346769E-02  0.186E-01    0.86       1.0  T
   3    -83.6594472 -0.165203E-02  0.771E-02    0.86       1.0  T
   4    -83.6595954 -0.148119E-03  0.357E-02    0.87       1.0  T
   5    -83.6595883  0.703279E-05  0.154E-02    0.86       1.0  T
   6    -83.6595993 -0.109544E-04  0.196E-03    0.86       7.9  T
   7    -83.6595994 -0.872830E-07  0.555E-04    0.86      27.8  T
   8    -83.6595994 -0.526082E-08  0.247E-04    0.86      62.4  T
   9    -83.6595994 -0.750774E-09  0.810E-05    0.86     190.4  T
  10    -83.6595994 -0.925695E-10  0.176E-05    0.86     878.7  T
     SCC iter.                  ...        0 min,  0.034 sec
     gradient                   ...        0 min,  0.080 sec
 * total energy  :   -82.8921842 Eh     change       -0.1638079E-01 Eh
   gradient norm :     0.1036787 Eh/α   predicted    -0.2540432E-01 (  55.09%)
   displ. norm   :     0.3137247 α      lambda       -0.1147767E-01
   maximum displ.:     0.1538396 α      in ANC's #19, #13, #12, ...

........................................................................
.............................. CYCLE    4 ..............................
........................................................................
   1    -83.6617612 -0.836618E+02  0.166E-01    1.06       0.0  T
   2    -83.6622669 -0.505669E-03  0.141E-01    1.08       1.0  T
   3    -83.6634239 -0.115706E-02  0.129E-02    1.07       1.2  T
   4    -83.6634252 -0.127378E-05  0.766E-03    1.07       2.0  T
   5    -83.6634255 -0.299495E-06  0.298E-03    1.07       5.2  T
   6    -83.6634256 -0.102518E-06  0.604E-04    1.07      25.5  T
   7    -83.6634256 -0.846264E-08  0.180E-04    1.07      85.7  T
   8    -83.6634256 -0.251447E-09  0.564E-05    1.07     273.6  T
     SCC iter.                  ...        0 min,  0.027 sec
     gradient                   ...        0 min,  0.080 sec
 * total energy  :   -82.9025073 Eh     change       -0.1032312E-01 Eh
   gradient norm :     0.0800656 Eh/α   predicted    -0.6303757E-02 ( -38.94%)
   displ. norm   :     0.6935299 α      lambda       -0.3135712E-01
   maximum displ.:     0.2347975 α      in ANC's #19, #45, #42, ...

........................................................................
.............................. CYCLE    5 ..............................
........................................................................
   1    -83.6785441 -0.836785E+02  0.424E-01    1.83       0.0  T
   2    -83.6864860 -0.794191E-02  0.119E-01    1.82       1.0  T
   3    -83.6870360 -0.550029E-03  0.466E-02    1.83       1.0  T
   4    -83.6870511 -0.150428E-04  0.241E-02    1.83       1.0  T
   5    -83.6870513 -0.212947E-06  0.616E-03    1.83       2.5  T
   6    -83.6870519 -0.646618E-06  0.156E-03    1.83       9.9  T
   7    -83.6870520 -0.427257E-07  0.524E-04    1.83      29.4  T
   8    -83.6870520 -0.272294E-08  0.191E-04    1.83      80.9  T
   9    -83.6870520 -0.212822E-09  0.380E-05    1.83     406.4  T
     SCC iter.                  ...        0 min,  0.030 sec
     gradient                   ...        0 min,  0.080 sec
 * total energy  :   -82.9342163 Eh     change       -0.3170895E-01 Eh
   gradient norm :     0.0930027 Eh/α   predicted    -0.2322093E-01 ( -26.77%)
   displ. norm   :     0.9164331 α      lambda       -0.5409819E-01
   maximum displ.:     0.2799860 α      in ANC's #70, #64, #45, ...

........................................................................
.............................. CYCLE    6 ..............................
........................................................................
   1    -83.6584656 -0.836585E+02  0.546E-01    1.97       0.0  T
   2    -83.6767034 -0.182378E-01  0.212E-01    2.17       1.0  T
   3    -83.6776445 -0.941172E-03  0.107E-01    2.15       1.0  T
   4    -83.6776693 -0.247620E-04  0.534E-02    2.15       1.0  T
   5    -83.6776799 -0.105672E-04  0.105E-02    2.15       1.5  T
   6    -83.6776828 -0.297555E-05  0.190E-03    2.15       8.1  T
   7    -83.6776829 -0.570829E-07  0.719E-04    2.15      21.5  T
   8    -83.6776829 -0.648456E-08  0.287E-04    2.15      53.7  T
   9    -83.6776829 -0.662553E-09  0.713E-05    2.15     216.4  T
  10    -83.6776829 -0.577671E-10  0.947E-06    2.15    1629.4  T
     SCC iter.                  ...        0 min,  0.034 sec
     gradient                   ...        0 min,  0.080 sec
 * total energy  :   -82.8953820 Eh     change        0.3883429E-01 Eh
   gradient norm :     0.4015071 Eh/α   predicted    -0.4976636E-01 (-228.15%)
   displ. norm   :     0.5024835 α      lambda       -0.1779248E+00
   maximum displ.:     0.1615900 α      in ANC's #45, #70, #64, ...

........................................................................
.............................. CYCLE    7 ..............................
........................................................................
   1    -83.6868109 -0.836868E+02  0.392E-01    2.10       0.0  T
   2    -83.6945572 -0.774632E-02  0.145E-01    2.08       1.0  T
   3    -83.6949077 -0.350498E-03  0.849E-02    2.09       1.0  T
   4    -83.6949156 -0.795600E-05  0.384E-02    2.09       1.0  T
   5    -83.6949199 -0.425951E-05  0.486E-03    2.09       3.2  T
   6    -83.6949209 -0.951118E-06  0.120E-03    2.09      12.8  T
   7    -83.6949209 -0.244252E-07  0.393E-04    2.09      39.2  T
   8    -83.6949209 -0.195756E-08  0.157E-04    2.09      98.0  T
   9    -83.6949209 -0.337451E-09  0.466E-05    2.09     331.2  T
     SCC iter.                  ...        0 min,  0.031 sec
     gradient                   ...        0 min,  0.080 sec
 * total energy  :   -82.9517324 Eh     change       -0.5635038E-01 Eh
   gradient norm :     0.1005661 Eh/α   predicted    -0.1114247E+00 (  97.74%)
   displ. norm   :     0.5954118 α      lambda       -0.7952371E-02
   maximum displ.:     0.2005964 α      in ANC's #19, #26, #27, ...

........................................................................
.............................. CYCLE    8 ..............................
........................................................................
   1    -83.6785295 -0.836785E+02  0.237E-01    2.14       0.0  T
   2    -83.6821282 -0.359870E-02  0.106E-01    2.14       1.0  T
   3    -83.6824269 -0.298765E-03  0.446E-02    2.13       1.0  T
   4    -83.6824264  0.520901E-06  0.265E-02    2.13       1.0  T
   5    -83.6824301 -0.365865E-05  0.253E-03    2.12       6.1  T
   6    -83.6824303 -0.224930E-06  0.694E-04    2.12      22.2  T
   7    -83.6824303 -0.134733E-07  0.277E-04    2.12      55.8  T
   8    -83.6824303 -0.107566E-08  0.644E-05    2.12     239.7  T
   9    -83.6824303 -0.806466E-10  0.190E-05    2.12     810.5  T
     SCC iter.                  ...        0 min,  0.030 sec
     gradient                   ...        0 min,  0.080 sec
 * total energy  :   -82.9300927 Eh     change        0.2163966E-01 Eh
   gradient norm :     0.2032176 Eh/α   predicted    -0.5385867E-02 (-124.89%)
   displ. norm   :     0.4280704 α      lambda       -0.3832988E-01
   maximum displ.:     0.1597635 α      in ANC's #19, #24, #45, ...

........................................................................
.............................. CYCLE    9 ..............................
........................................................................
   1    -83.6977192 -0.836977E+02  0.170E-01    2.13       0.0  T
   2    -83.6993935 -0.167432E-02  0.694E-02    2.12       1.0  T
   3    -83.6995415 -0.147969E-03  0.262E-02    2.13       1.0  T
   4    -83.6995418 -0.386343E-06  0.157E-02    2.13       1.0  T
   5    -83.6995429 -0.107032E-05  0.172E-03    2.13       9.0  T
   6    -83.6995430 -0.739305E-07  0.431E-04    2.13      35.8  T
   7    -83.6995430 -0.441112E-08  0.170E-04    2.13      90.5  T
   8    -83.6995430 -0.434611E-09  0.392E-05    2.13     394.0  T
     SCC iter.                  ...        0 min,  0.027 sec
     gradient                   ...        0 min,  0.081 sec
 * total energy  :   -82.9529091 Eh     change       -0.2281639E-01 Eh
   gradient norm :     0.1141943 Eh/α   predicted    -0.2267687E-01 (  -0.61%)
   displ. norm   :     0.8821398 α      lambda       -0.8702762E-02
   maximum displ.:     0.5270044 α      in ANC's #19, #12, #13, ...

........................................................................
.............................. CYCLE   10 ..............................
........................................................................
   1    -83.6887750 -0.836888E+02  0.745E-02    2.15       0.0  T
   2    -83.6890413 -0.266307E-03  0.366E-02    2.15       1.0  T
   3    -83.6890603 -0.189897E-04  0.217E-02    2.15       1.0  T
   4    -83.6890606 -0.295109E-06  0.664E-03    2.15       2.3  T
   5    -83.6890610 -0.419154E-06  0.953E-04    2.15      16.2  T
   6    -83.6890610 -0.291760E-07  0.314E-04    2.15      49.1  T
   7    -83.6890610 -0.154341E-08  0.858E-05    2.15     179.9  T
   8    -83.6890610 -0.122697E-09  0.300E-05    2.15     514.3  T
     SCC iter.                  ...        0 min,  0.027 sec
     gradient                   ...        0 min,  0.081 sec
 * total energy  :   -82.9521237 Eh     change        0.7854374E-03 Eh
   gradient norm :     0.1293255 Eh/α   predicted    -0.7737533E-02 (*******%)
   displ. norm   :     0.5415116 α      lambda       -0.1288273E-01
   maximum displ.:     0.2714528 α      in ANC's #5, #6, #19, ...

........................................................................
.............................. CYCLE   11 ..............................
........................................................................
   1    -83.6989456 -0.836989E+02  0.150E-01    2.09       0.0  T
   2    -83.6997663 -0.820713E-03  0.679E-02    2.06       1.0  T
   3    -83.6998320 -0.656455E-04  0.371E-02    2.07       1.0  T
   4    -83.6998336 -0.161727E-05  0.125E-02    2.06       1.2  T
   5    -83.6998351 -0.150811E-05  0.171E-03    2.06       9.0  T
   6    -83.6998352 -0.824516E-07  0.480E-04    2.06      32.1  T
   7    -83.6998352 -0.392538E-08  0.109E-04    2.06     141.1  T
   8    -83.6998352 -0.180421E-09  0.263E-05    2.06     587.3  T
     SCC iter.                  ...        0 min,  0.027 sec
     gradient                   ...        0 min,  0.081 sec
 * total energy  :   -82.9478354 Eh     change        0.4288272E-02 Eh
   gradient norm :     0.1108822 Eh/α   predicted    -0.8330200E-02 (-294.26%)
   displ. norm   :     0.4801625 α      lambda       -0.2200148E-01
   maximum displ.:     0.1459699 α      in ANC's #38, #28, #24, ...

........................................................................
.............................. CYCLE   12 ..............................
........................................................................
   1    -83.7041979 -0.837042E+02  0.144E-01    2.11       0.0  T
   2    -83.7050511 -0.853219E-03  0.561E-02    2.12       1.0  T
   3    -83.7051595 -0.108398E-03  0.232E-02    2.11       1.0  T
   4    -83.7051598 -0.309703E-06  0.865E-03    2.11       1.8  T
   5    -83.7051606 -0.767849E-06  0.928E-04    2.11      16.6  T
   6    -83.7051606 -0.201616E-07  0.236E-04    2.11      65.4  T
   7    -83.7051606 -0.153312E-08  0.961E-05    2.11     160.6  T
   8    -83.7051606 -0.154444E-09  0.404E-05    2.11     382.2  T
     SCC iter.                  ...        0 min,  0.027 sec
     gradient                   ...        0 min,  0.081 sec
 * total energy  :   -82.9541856 Eh     change       -0.6350193E-02 Eh
   gradient norm :     0.1199381 Eh/α   predicted    -0.1353700E-01 ( 113.17%)
   displ. norm   :     0.4969567 α      lambda       -0.1213530E-01
   maximum displ.:     0.2492826 α      in ANC's #28, #39, #18, ...

........................................................................
.............................. CYCLE   13 ..............................
........................................................................
   1    -83.6880232 -0.836880E+02  0.890E-02    2.14       0.0  T
   2    -83.6880513 -0.280175E-04  0.506E-02    2.14       1.0  T
   3    -83.6880487  0.254696E-05  0.166E-02    2.14       1.0  T
   4    -83.6880548 -0.611974E-05  0.284E-03    2.14       5.4  T
   5    -83.6880549 -0.740050E-07  0.728E-04    2.14      21.2  T
   6    -83.6880549 -0.567771E-08  0.184E-04    2.14      83.9  T
   7    -83.6880549 -0.674461E-09  0.658E-05    2.14     234.6  T
     SCC iter.                  ...        0 min,  0.024 sec
     gradient                   ...        0 min,  0.080 sec
 * total energy  :   -82.9517273 Eh     change        0.2458336E-02 Eh
   gradient norm :     0.1252348 Eh/α   predicted    -0.7566160E-02 (-407.78%)
   displ. norm   :     0.2739123 α      lambda       -0.1211741E-01
   maximum displ.:     0.1199495 α      in ANC's #28, #18, #45, ...

........................................................................
.............................. CYCLE   14 ..............................
........................................................................
   1    -83.7052888 -0.837053E+02  0.809E-02    2.13       0.0  T
   2    -83.7053491 -0.602643E-04  0.431E-02    2.13       1.0  T
   3    -83.7053508 -0.178608E-05  0.207E-02    2.13       1.0  T
   4    -83.7053532 -0.230899E-05  0.225E-03    2.13       6.9  T
   5    -83.7053533 -0.136748E-06  0.642E-04    2.13      24.0  T
   6    -83.7053533 -0.629727E-08  0.235E-04    2.13      65.7  T
   7    -83.7053533 -0.617788E-09  0.368E-05    2.13     419.6  T
   8    -83.7053533 -0.206626E-10  0.137E-05    2.13    1129.6  T
     SCC iter.                  ...        0 min,  0.027 sec
     gradient                   ...        0 min,  0.081 sec
 * total energy  :   -82.9578471 Eh     change       -0.6119829E-02 Eh
   gradient norm :     0.0884761 Eh/α   predicted    -0.6513290E-02 (   6.43%)
   displ. norm   :     0.1671293 α      lambda       -0.1469576E-02
   maximum displ.:     0.1159248 α      in ANC's #5, #6, #1, ...

........................................................................
.............................. CYCLE   15 ..............................
........................................................................
   1    -83.7052844 -0.837053E+02  0.226E-02    2.13       0.0  T
   2    -83.7053096 -0.252184E-04  0.985E-03    2.12       1.6  T
   3    -83.7053111 -0.147289E-05  0.582E-03    2.12       2.7  T
   4    -83.7053112 -0.974034E-07  0.255E-03    2.12       6.0  T
   5    -83.7053112 -0.265966E-07  0.279E-04    2.12      55.3  T
   6    -83.7053112 -0.236908E-08  0.742E-05    2.12     207.9  T
   7    -83.7053112 -0.114781E-09  0.217E-05    2.12     711.6  T
     SCC iter.                  ...        0 min,  0.024 sec
     gradient                   ...        0 min,  0.081 sec
 * total energy  :   -82.9584479 Eh     change       -0.6008063E-03 Eh
   gradient norm :     0.0864511 Eh/α   predicted    -0.7553211E-03 (  25.72%)
   displ. norm   :     0.2004453 α      lambda       -0.1154749E-02
   maximum displ.:     0.0846766 α      in ANC's #13, #12, #2, ...

........................................................................
.............................. CYCLE   16 ..............................
........................................................................
   1    -83.7070940 -0.837071E+02  0.118E-02    2.13       0.0  T
   2    -83.7071018 -0.777429E-05  0.582E-03    2.13       2.7  T
   3    -83.7071023 -0.541071E-06  0.313E-03    2.13       4.9  T
   4    -83.7071023 -0.201438E-07  0.144E-03    2.13      10.7  T
   5    -83.7071023 -0.874306E-08  0.147E-04    2.13     104.8  T
   6    -83.7071023 -0.545498E-09  0.536E-05    2.13     288.1  T
     SCC iter.                  ...        0 min,  0.021 sec
     gradient                   ...        0 min,  0.081 sec
 * total energy  :   -82.9594480 Eh     change       -0.1000109E-02 Eh
   gradient norm :     0.0801405 Eh/α   predicted    -0.6005759E-03 ( -39.95%)
   displ. norm   :     0.4596490 α      lambda       -0.3496068E-02
   maximum displ.:     0.1400241 α      in ANC's #28, #16, #4, ...

........................................................................
.............................. CYCLE   17 ..............................
........................................................................
   1    -83.7117414 -0.837117E+02  0.370E-02    2.14       0.0  T
   2    -83.7117799 -0.384822E-04  0.187E-02    2.14       1.0  T
   3    -83.7117832 -0.331970E-05  0.101E-02    2.14       1.5  T
   4    -83.7117838 -0.580985E-06  0.285E-03    2.14       5.4  T
   5    -83.7117838 -0.354413E-07  0.459E-04    2.14      33.6  T
   6    -83.7117838 -0.397362E-08  0.129E-04    2.14     119.6  T
   7    -83.7117838 -0.367010E-09  0.420E-05    2.14     367.4  T
     SCC iter.                  ...        0 min,  0.024 sec
     gradient                   ...        0 min,  0.081 sec
 * total energy  :   -82.9613677 Eh     change       -0.1919679E-02 Eh
   gradient norm :     0.0670472 Eh/α   predicted    -0.2117346E-02 (  10.30%)
   displ. norm   :     0.1706509 α      lambda       -0.1790126E-02
   maximum displ.:     0.0808317 α      in ANC's #5, #1, #4, ...

........................................................................
.............................. CYCLE   18 ..............................
........................................................................
   1    -83.7168432 -0.837168E+02  0.210E-02    2.15       0.0  T
   2    -83.7168513 -0.802873E-05  0.110E-02    2.15       1.4  T
   3    -83.7168518 -0.516165E-06  0.593E-03    2.15       2.6  T
   4    -83.7168520 -0.219425E-06  0.103E-03    2.15      15.0  T
   5    -83.7168520 -0.141121E-07  0.186E-04    2.15      82.9  T
   6    -83.7168520 -0.561840E-09  0.670E-05    2.15     230.2  T
     SCC iter.                  ...        0 min,  0.020 sec
     gradient                   ...        0 min,  0.081 sec
 * total energy  :   -82.9627639 Eh     change       -0.1396236E-02 Eh
   gradient norm :     0.0568041 Eh/α   predicted    -0.9211384E-03 ( -34.03%)
   displ. norm   :     0.4477397 α      lambda       -0.2796617E-02
   maximum displ.:     0.2078319 α      in ANC's #5, #1, #4, ...

........................................................................
.............................. CYCLE   19 ..............................
........................................................................
   1    -83.7204186 -0.837204E+02  0.290E-02    2.14       0.0  T
   2    -83.7204602 -0.415973E-04  0.140E-02    2.14       1.1  T
   3    -83.7204647 -0.445967E-05  0.664E-03    2.14       2.3  T
   4    -83.7204647 -0.309400E-08  0.183E-03    2.14       8.4  T
   5    -83.7204647 -0.421783E-07  0.294E-04    2.14      52.4  T
   6    -83.7204648 -0.190715E-08  0.921E-05    2.14     167.5  T
   7    -83.7204648 -0.987797E-10  0.403E-05    2.14     382.9  T
     SCC iter.                  ...        0 min,  0.024 sec
     gradient                   ...        0 min,  0.081 sec
 * total energy  :   -82.9648634 Eh     change       -0.2099477E-02 Eh
   gradient norm :     0.0400909 Eh/α   predicted    -0.1678648E-02 ( -20.04%)
   displ. norm   :     0.4426056 α      lambda       -0.2272097E-02
   maximum displ.:     0.1799973 α      in ANC's #1, #5, #13, ...

........................................................................
.............................. CYCLE   20 ..............................
........................................................................
   1    -83.7248193 -0.837248E+02  0.242E-02    2.13       0.0  T
   2    -83.7248400 -0.206548E-04  0.111E-02    2.13       1.4  T
   3    -83.7248417 -0.168692E-05  0.571E-03    2.13       2.7  T
   4    -83.7248417 -0.474302E-07  0.139E-03    2.13      11.1  T
   5    -83.7248417 -0.235760E-07  0.319E-04    2.13      48.4  T
   6    -83.7248417 -0.170621E-08  0.112E-04    2.13     137.4  T
   7    -83.7248417 -0.155779E-09  0.326E-05    2.13     473.7  T
     SCC iter.                  ...        0 min,  0.024 sec
     gradient                   ...        0 min,  0.081 sec
 * total energy  :   -82.9664518 Eh     change       -0.1588368E-02 Eh
   gradient norm :     0.0274818 Eh/α   predicted    -0.1358609E-02 ( -14.47%)
   displ. norm   :     0.4821772 α      lambda       -0.1558313E-02
   maximum displ.:     0.2034376 α      in ANC's #1, #5, #11, ...
 * RMSD in coord.:     0.5355000 α      energy gain  -0.1094172E+00 Eh

generating ANC from model Hessian ...
Using Lindh-Hessian (1995)
 Shifting diagonal of input Hessian by   9.743038207364753E-003
 Lowest  eigenvalues of input Hessian
    0.000000    0.000000    0.000000    0.000000    0.000000    0.000000
    0.010000    0.010122    0.010468    0.011241    0.011576    0.012266
    0.012679    0.013525    0.014787    0.015352    0.016427    0.018367
 Highest eigenvalues
    2.050698    2.111205    2.132509    2.170821    2.395036    2.429492
 

........................................................................
.............................. CYCLE   21 ..............................
........................................................................
   1    -83.7191232 -0.837191E+02  0.408E-02    2.12       0.0  T
   2    -83.7191983 -0.751715E-04  0.192E-02    2.13       1.0  T
   3    -83.7192049 -0.653482E-05  0.936E-03    2.13       1.6  T
   4    -83.7192050 -0.175416E-06  0.328E-03    2.13       4.7  T
   5    -83.7192051 -0.596367E-07  0.589E-04    2.13      26.2  T
   6    -83.7192051 -0.950391E-08  0.128E-04    2.13     120.5  T
   7    -83.7192051 -0.547615E-09  0.466E-05    2.13     331.2  T
     SCC iter.                  ...        0 min,  0.024 sec
     gradient                   ...        0 min,  0.080 sec
 * total energy  :   -82.9666529 Eh     change       -0.2011727E-03 Eh
   gradient norm :     0.0373342 Eh/α   predicted     0.0000000E+00 (-100.00%)
   displ. norm   :     0.1326070 α      lambda       -0.1761322E-02
   maximum displ.:     0.0739991 α      in ANC's #7, #28, #21, ...

........................................................................
.............................. CYCLE   22 ..............................
........................................................................
   1    -83.7257140 -0.837257E+02  0.196E-02    2.14       0.0  T
   2    -83.7257187 -0.472100E-05  0.975E-03    2.14       1.6  T
   3    -83.7257190 -0.301515E-06  0.502E-03    2.14       3.1  T
   4    -83.7257191 -0.673855E-07  0.682E-04    2.14      22.6  T
   5    -83.7257191 -0.546312E-08  0.181E-04    2.14      85.4  T
   6    -83.7257191 -0.809763E-09  0.524E-05    2.14     294.4  T
     SCC iter.                  ...        0 min,  0.021 sec
     gradient                   ...        0 min,  0.081 sec
 * total energy  :   -82.9679342 Eh     change       -0.1281296E-02 Eh
   gradient norm :     0.0145542 Eh/α   predicted    -0.8961646E-03 ( -30.06%)
   displ. norm   :     0.2070875 α      lambda       -0.9110425E-03
   maximum displ.:     0.1325976 α      in ANC's #7, #5, #21, ...

........................................................................
.............................. CYCLE   23 ..............................
........................................................................
   1    -83.7293047 -0.837293E+02  0.215E-02    2.14       0.0  T
   2    -83.7293136 -0.896852E-05  0.953E-03    2.15       1.6  T
   3    -83.7293143 -0.708566E-06  0.529E-03    2.15       2.9  T
   4    -83.7293144 -0.502708E-07  0.717E-04    2.15      21.5  T
   5    -83.7293144 -0.589742E-08  0.250E-04    2.15      61.8  T
   6    -83.7293144 -0.165272E-08  0.555E-05    2.15     278.1  T
   7    -83.7293144 -0.411973E-10  0.199E-05    2.15     774.3  T
     SCC iter.                  ...        0 min,  0.024 sec
     gradient                   ...        0 min,  0.081 sec
 * total energy  :   -82.9684950 Eh     change       -0.5607148E-03 Eh
   gradient norm :     0.0098246 Eh/α   predicted    -0.4750918E-03 ( -15.27%)
   displ. norm   :     0.2062380 α      lambda        0.2930435E-03
   maximum displ.:     0.1320218 α      in ANC's #7, #5, #21, ...

........................................................................
.............................. CYCLE   24 ..............................
........................................................................
   1    -83.7315205 -0.837315E+02  0.217E-02    2.16       0.0  T
   2    -83.7315294 -0.890737E-05  0.988E-03    2.16       1.6  T
   3    -83.7315301 -0.726184E-06  0.554E-03    2.16       2.8  T
   4    -83.7315302 -0.565154E-07  0.724E-04    2.16      21.3  T
   5    -83.7315302 -0.719157E-08  0.279E-04    2.16      55.4  T
   6    -83.7315302 -0.208837E-08  0.635E-05    2.16     243.0  T
   7    -83.7315302 -0.477058E-10  0.211E-05    2.16     729.6  T
     SCC iter.                  ...        0 min,  0.024 sec
     gradient                   ...        0 min,  0.081 sec
 * total energy  :   -82.9683156 Eh     change        0.1793349E-03 Eh
   gradient norm :     0.0300263 Eh/α   predicted     0.1527508E-03 ( -14.82%)
   displ. norm   :     0.0498756 α      lambda       -0.6959853E-03
   maximum displ.:     0.0194196 α      in ANC's #28, #7, #9, ...

........................................................................
.............................. CYCLE   25 ..............................
........................................................................
   1    -83.7295468 -0.837295E+02  0.118E-02    2.16       0.0  T
   2    -83.7295484 -0.162686E-05  0.633E-03    2.16       2.4  T
   3    -83.7295485 -0.787237E-07  0.295E-03    2.16       5.2  T
   4    -83.7295485 -0.399935E-07  0.607E-04    2.16      25.4  T
   5    -83.7295485 -0.683029E-08  0.173E-04    2.16      89.4  T
   6    -83.7295485 -0.609020E-09  0.461E-05    2.16     334.7  T
     SCC iter.                  ...        0 min,  0.021 sec
     gradient                   ...        0 min,  0.081 sec
 * total energy  :   -82.9687586 Eh     change       -0.4430184E-03 Eh
   gradient norm :     0.0098104 Eh/α   predicted    -0.3488971E-03 ( -21.25%)
   displ. norm   :     0.1324135 α      lambda       -0.2686580E-03
   maximum displ.:     0.0819448 α      in ANC's #7, #5, #8, ...

........................................................................
.............................. CYCLE   26 ..............................
........................................................................
   1    -83.7285584 -0.837286E+02  0.767E-03    2.16       0.0  T
   2    -83.7285614 -0.294091E-05  0.310E-03    2.16       5.0  T
   3    -83.7285617 -0.289440E-06  0.144E-03    2.16      10.7  T
   4    -83.7285617 -0.100560E-07  0.686E-04    2.16      22.5  T
   5    -83.7285617 -0.131980E-08  0.116E-04    2.16     133.1  T
   6    -83.7285617 -0.348336E-09  0.222E-05    2.16     695.4  T
     SCC iter.                  ...        0 min,  0.021 sec
     gradient                   ...        0 min,  0.081 sec
 * total energy  :   -82.9689701 Eh     change       -0.2115051E-03 Eh
   gradient norm :     0.0041480 Eh/α   predicted    -0.1366848E-03 ( -35.38%)
   displ. norm   :     0.3184941 α      lambda       -0.3772759E-03
   maximum displ.:     0.1913160 α      in ANC's #7, #5, #2, ...

........................................................................
.............................. CYCLE   27 ..............................
........................................................................
   1    -83.7268380 -0.837268E+02  0.165E-02    2.17       0.0  T
   2    -83.7268514 -0.133662E-04  0.601E-03    2.18       2.6  T
   3    -83.7268529 -0.150165E-05  0.262E-03    2.18       5.9  T
   4    -83.7268529 -0.560592E-07  0.133E-03    2.18      11.6  T
   5    -83.7268529 -0.254308E-08  0.268E-04    2.18      57.6  T
   6    -83.7268529 -0.166496E-08  0.487E-05    2.18     316.6  T
   7    -83.7268529 -0.781171E-10  0.180E-05    2.18     856.2  T
     SCC iter.                  ...        0 min,  0.024 sec
     gradient                   ...        0 min,  0.081 sec
 * total energy  :   -82.9692369 Eh     change       -0.2667449E-03 Eh
   gradient norm :     0.0094395 Eh/α   predicted    -0.2077878E-03 ( -22.10%)
   displ. norm   :     0.2991952 α      lambda       -0.2512822E-03
   maximum displ.:     0.1673533 α      in ANC's #7, #5, #2, ...

........................................................................
.............................. CYCLE   28 ..............................
........................................................................
   1    -83.7266581 -0.837267E+02  0.150E-02    2.20       0.0  T
   2    -83.7266676 -0.946192E-05  0.486E-03    2.20       3.2  T
   3    -83.7266687 -0.108903E-05  0.245E-03    2.20       6.3  T
   4    -83.7266687 -0.696667E-07  0.116E-03    2.20      13.3  T
   5    -83.7266687 -0.214088E-08  0.199E-04    2.20      77.5  T
   6    -83.7266687 -0.890140E-09  0.422E-05    2.20     365.4  T
     SCC iter.                  ...        0 min,  0.021 sec
     gradient                   ...        0 min,  0.081 sec
 * total energy  :   -82.9694251 Eh     change       -0.1882018E-03 Eh
   gradient norm :     0.0103219 Eh/α   predicted    -0.1368915E-03 ( -27.26%)
   displ. norm   :     0.3023399 α      lambda       -0.2572356E-03
   maximum displ.:     0.1482566 α      in ANC's #5, #7, #2, ...

........................................................................
.............................. CYCLE   29 ..............................
........................................................................
   1    -83.7281205 -0.837281E+02  0.161E-02    2.22       0.0  T
   2    -83.7281302 -0.970839E-05  0.506E-03    2.23       3.0  T
   3    -83.7281313 -0.103391E-05  0.295E-03    2.22       5.2  T
   4    -83.7281314 -0.969944E-07  0.131E-03    2.23      11.8  T
   5    -83.7281314 -0.258238E-08  0.180E-04    2.23      85.8  T
   6    -83.7281314 -0.789655E-09  0.458E-05    2.23     337.2  T
     SCC iter.                  ...        0 min,  0.021 sec
     gradient                   ...        0 min,  0.080 sec
 * total energy  :   -82.9696176 Eh     change       -0.1924710E-03 Eh
   gradient norm :     0.0070289 Eh/α   predicted    -0.1403807E-03 ( -27.06%)
   displ. norm   :     0.2946770 α      lambda       -0.2133167E-03
   maximum displ.:     0.1472878 α      in ANC's #5, #2, #6, ...

........................................................................
.............................. CYCLE   30 ..............................
........................................................................
   1    -83.7297109 -0.837297E+02  0.157E-02    2.25       0.0  T
   2    -83.7297204 -0.958277E-05  0.491E-03    2.25       3.1  T
   3    -83.7297214 -0.992339E-06  0.288E-03    2.25       5.4  T
   4    -83.7297215 -0.101275E-06  0.129E-03    2.25      12.0  T
   5    -83.7297215 -0.236082E-08  0.172E-04    2.25      89.8  T
   6    -83.7297215 -0.689056E-09  0.463E-05    2.25     333.5  T
     SCC iter.                  ...        0 min,  0.021 sec
     gradient                   ...        0 min,  0.081 sec
 * total energy  :   -82.9697757 Eh     change       -0.1581813E-03 Eh
   gradient norm :     0.0037905 Eh/α   predicted    -0.1159452E-03 ( -26.70%)
   displ. norm   :     0.2702750 α      lambda       -0.1727549E-03
   maximum displ.:     0.1303410 α      in ANC's #5, #6, #2, ...

........................................................................
.............................. CYCLE   31 ..............................
........................................................................
   1    -83.7309801 -0.837310E+02  0.137E-02    2.27       0.0  T
   2    -83.7309876 -0.753512E-05  0.468E-03    2.27       3.3  T
   3    -83.7309884 -0.752256E-06  0.265E-03    2.27       5.8  T
   4    -83.7309884 -0.770118E-07  0.114E-03    2.27      13.6  T
   5    -83.7309884 -0.185709E-08  0.165E-04    2.27      93.3  T
   6    -83.7309884 -0.611266E-09  0.414E-05    2.27     372.6  T
     SCC iter.                  ...        0 min,  0.021 sec
     gradient                   ...        0 min,  0.081 sec
 * total energy  :   -82.9699104 Eh     change       -0.1346379E-03 Eh
   gradient norm :     0.0041079 Eh/α   predicted    -0.9268788E-04 ( -31.16%)
   displ. norm   :     0.3249240 α      lambda       -0.2128534E-03
   maximum displ.:     0.1514933 α      in ANC's #6, #5, #2, ...

........................................................................
.............................. CYCLE   32 ..............................
........................................................................
   1    -83.7317202 -0.837317E+02  0.153E-02    2.29       0.0  T
   2    -83.7317293 -0.914947E-05  0.565E-03    2.29       2.7  T
   3    -83.7317303 -0.960032E-06  0.307E-03    2.29       5.0  T
   4    -83.7317304 -0.102978E-06  0.121E-03    2.29      12.8  T
   5    -83.7317304 -0.262619E-08  0.233E-04    2.29      66.1  T
   6    -83.7317304 -0.111008E-08  0.523E-05    2.29     295.1  T
   7    -83.7317304 -0.544276E-10  0.218E-05    2.29     708.0  T
     SCC iter.                  ...        0 min,  0.024 sec
     gradient                   ...        0 min,  0.081 sec
 * total energy  :   -82.9700635 Eh     change       -0.1531190E-03 Eh
   gradient norm :     0.0079486 Eh/α   predicted    -0.1176660E-03 ( -23.15%)
   displ. norm   :     0.2785314 α      lambda       -0.2289913E-03
   maximum displ.:     0.1316871 α      in ANC's #6, #2, #20, ...

........................................................................
.............................. CYCLE   33 ..............................
........................................................................
   1    -83.7323708 -0.837324E+02  0.122E-02    2.29       0.0  T
   2    -83.7323786 -0.780152E-05  0.495E-03    2.29       3.1  T
   3    -83.7323795 -0.890403E-06  0.197E-03    2.29       7.8  T
   4    -83.7323795 -0.193283E-07  0.836E-04    2.29      18.5  T
   5    -83.7323795 -0.275459E-08  0.225E-04    2.29      68.5  T
   6    -83.7323795 -0.104879E-08  0.480E-05    2.29     321.4  T
   7    -83.7323795 -0.585914E-10  0.190E-05    2.29     811.0  T
     SCC iter.                  ...        0 min,  0.024 sec
     gradient                   ...        0 min,  0.081 sec
 * total energy  :   -82.9702265 Eh     change       -0.1630530E-03 Eh
   gradient norm :     0.0094936 Eh/α   predicted    -0.1233786E-03 ( -24.33%)
   displ. norm   :     0.2229990 α      lambda       -0.2377585E-03
   maximum displ.:     0.0989758 α      in ANC's #6, #7, #20, ...

........................................................................
.............................. CYCLE   34 ..............................
........................................................................
   1    -83.7332174 -0.837332E+02  0.102E-02    2.30       0.0  T
   2    -83.7332220 -0.467893E-05  0.348E-03    2.30       4.4  T
   3    -83.7332225 -0.419515E-06  0.149E-03    2.30      10.3  T
   4    -83.7332225 -0.656158E-08  0.628E-04    2.30      24.6  T
   5    -83.7332225 -0.879126E-09  0.137E-04    2.30     112.9  T
   6    -83.7332225 -0.706137E-09  0.430E-05    2.30     359.2  T
     SCC iter.                  ...        0 min,  0.020 sec
     gradient                   ...        0 min,  0.054 sec
 * total energy  :   -82.9703925 Eh     change       -0.1659159E-03 Eh
   gradient norm :     0.0091911 Eh/α   predicted    -0.1247951E-03 ( -24.78%)
   displ. norm   :     0.4511870 α      lambda       -0.3840943E-03
   maximum displ.:     0.2116919 α      in ANC's #6, #2, #5, ...

........................................................................
.............................. CYCLE   35 ..............................
........................................................................
   1    -83.7223985 -0.837224E+02  0.319E-02    2.30       0.0  T
   2    -83.7224374 -0.389432E-04  0.142E-02    2.31       1.1  T
   3    -83.7224409 -0.348392E-05  0.793E-03    2.31       1.9  T
   4    -83.7224411 -0.244581E-06  0.248E-03    2.31       6.2  T
   5    -83.7224412 -0.410534E-07  0.699E-04    2.31      22.1  T
   6    -83.7224412 -0.148924E-07  0.140E-04    2.31     110.0  T
   7    -83.7224412 -0.643510E-09  0.381E-05    2.31     405.0  T
     SCC iter.                  ...        0 min,  0.017 sec
     gradient                   ...        0 min,  0.072 sec
 * total energy  :   -82.9701971 Eh     change        0.1953929E-03 Eh
   gradient norm :     0.0274036 Eh/α   predicted    -0.2311443E-03 (-218.30%)
   displ. norm   :     0.2487829 α      lambda       -0.9751770E-03
   maximum displ.:     0.1207720 α      in ANC's #5, #6, #8, ...

........................................................................
.............................. CYCLE   36 ..............................
........................................................................
   1    -83.7314112 -0.837314E+02  0.268E-02    2.30       0.0  T
   2    -83.7314192 -0.797490E-05  0.133E-02    2.29       1.2  T
   3    -83.7314193 -0.757609E-07  0.616E-03    2.29       2.5  T
   4    -83.7314199 -0.642535E-06  0.155E-03    2.29      10.0  T
   5    -83.7314200 -0.230809E-07  0.308E-04    2.29      50.0  T
   6    -83.7314200 -0.251977E-08  0.529E-05    2.29     291.5  T
   7    -83.7314200 -0.851372E-10  0.129E-05    2.29    1196.0  T
     SCC iter.                  ...        0 min,  0.024 sec
     gradient                   ...        0 min,  0.065 sec
 * total energy  :   -82.9704727 Eh     change       -0.2756350E-03 Eh
   gradient norm :     0.0160562 Eh/α   predicted    -0.5177673E-03 (  87.85%)
   displ. norm   :     0.1654114 α      lambda       -0.9256308E-03
   maximum displ.:     0.0879047 α      in ANC's #21, #20, #8, ...

........................................................................
.............................. CYCLE   37 ..............................
........................................................................
   1    -83.7393600 -0.837394E+02  0.444E-02    2.34       0.0  T
   2    -83.7394176 -0.576467E-04  0.203E-02    2.33       1.0  T
   3    -83.7394196 -0.200960E-05  0.114E-02    2.33       1.3  T
   4    -83.7394199 -0.266371E-06  0.283E-03    2.33       5.4  T
   5    -83.7394200 -0.722223E-07  0.531E-04    2.33      29.1  T
   6    -83.7394200 -0.867192E-08  0.162E-04    2.33      95.1  T
   7    -83.7394200 -0.746653E-09  0.461E-05    2.33     334.4  T
     SCC iter.                  ...        0 min,  0.024 sec
     gradient                   ...        0 min,  0.072 sec
 * total energy  :   -82.9699646 Eh     change        0.5081403E-03 Eh
   gradient norm :     0.0418645 Eh/α   predicted    -0.4754813E-03 (-193.57%)
   displ. norm   :     0.1181135 α      lambda       -0.1418447E-02
   maximum displ.:     0.0582632 α      in ANC's #21, #8, #7, ...

........................................................................
.............................. CYCLE   38 ..............................
........................................................................
   1    -83.7326166 -0.837326E+02  0.299E-02    2.30       0.0  T
   2    -83.7326454 -0.288046E-04  0.142E-02    2.31       1.1  T
   3    -83.7326467 -0.126940E-05  0.832E-03    2.31       1.9  T
   4    -83.7326468 -0.126687E-06  0.192E-03    2.31       8.0  T
   5    -83.7326469 -0.403133E-07  0.456E-04    2.31      33.8  T
   6    -83.7326469 -0.704244E-08  0.127E-04    2.31     121.7  T
   7    -83.7326469 -0.571021E-09  0.378E-05    2.31     408.1  T
     SCC iter.                  ...        0 min,  0.017 sec
     gradient                   ...        0 min,  0.042 sec
 * total energy  :   -82.9707247 Eh     change       -0.7601005E-03 Eh
   gradient norm :     0.0064014 Eh/α   predicted    -0.7191167E-03 (  -5.39%)
   displ. norm   :     0.1097250 α      lambda       -0.1033657E-03
   maximum displ.:     0.0490983 α      in ANC's #2, #6, #1, ...

........................................................................
.............................. CYCLE   39 ..............................
........................................................................
   1    -83.7314877 -0.837315E+02  0.855E-03    2.31       0.0  T
   2    -83.7314917 -0.395641E-05  0.351E-03    2.31       4.4  T
   3    -83.7314921 -0.431486E-06  0.162E-03    2.31       9.6  T
   4    -83.7314921 -0.184752E-07  0.705E-04    2.31      21.9  T
   5    -83.7314921 -0.975035E-09  0.211E-04    2.31      73.2  T
   6    -83.7314921 -0.876241E-09  0.427E-05    2.31     361.7  T
   7    -83.7314921 -0.437126E-10  0.121E-05    2.31    1270.6  T
     SCC iter.                  ...        0 min,  0.017 sec
     gradient                   ...        0 min,  0.042 sec
 * total energy  :   -82.9708083 Eh     change       -0.8361017E-04 Eh
   gradient norm :     0.0062578 Eh/α   predicted    -0.5230753E-04 ( -37.44%)
   displ. norm   :     0.3628793 α      lambda       -0.3229612E-03
   maximum displ.:     0.1669214 α      in ANC's #2, #1, #7, ...

........................................................................
.............................. CYCLE   40 ..............................
........................................................................
   1    -83.7274295 -0.837274E+02  0.308E-02    2.32       0.0  T
   2    -83.7274684 -0.388647E-04  0.121E-02    2.33       1.3  T
   3    -83.7274740 -0.560894E-05  0.596E-03    2.33       2.6  T
   4    -83.7274744 -0.404480E-06  0.222E-03    2.33       7.0  T
   5    -83.7274744 -0.106587E-07  0.703E-04    2.33      21.9  T
   6    -83.7274744 -0.811485E-08  0.104E-04    2.33     147.8  T
   7    -83.7274744 -0.336797E-09  0.384E-05    2.33     401.4  T
     SCC iter.                  ...        0 min,  0.017 sec
     gradient                   ...        0 min,  0.043 sec
 * total energy  :   -82.9709743 Eh     change       -0.1660514E-03 Eh
   gradient norm :     0.0162005 Eh/α   predicted    -0.1827298E-03 (  10.04%)
   displ. norm   :     0.1387206 α      lambda       -0.2916955E-03
   maximum displ.:     0.1042705 α      in ANC's #7, #6, #1, ...

........................................................................
.............................. CYCLE   41 ..............................
........................................................................
   1    -83.7304300 -0.837304E+02  0.116E-02    2.34       0.0  T
   2    -83.7304346 -0.460847E-05  0.460E-03    2.34       3.4  T
   3    -83.7304354 -0.747319E-06  0.270E-03    2.34       5.7  T
   4    -83.7304355 -0.609044E-07  0.991E-04    2.34      15.6  T
   5    -83.7304355 -0.229548E-08  0.139E-04    2.34     111.3  T
   6    -83.7304355 -0.488043E-09  0.457E-05    2.34     337.8  T
     SCC iter.                  ...        0 min,  0.015 sec
     gradient                   ...        0 min,  0.042 sec
 * total energy  :   -82.9711662 Eh     change       -0.1918774E-03 Eh
   gradient norm :     0.0085029 Eh/α   predicted    -0.1486656E-03 ( -22.52%)
   displ. norm   :     0.2675411 α      lambda       -0.2710745E-03
   maximum displ.:     0.1094604 α      in ANC's #1, #2, #7, ...

........................................................................
.............................. CYCLE   42 ..............................
........................................................................
   1    -83.7330849 -0.837331E+02  0.272E-02    2.36       0.0  T
   2    -83.7331137 -0.287826E-04  0.107E-02    2.37       1.4  T
   3    -83.7331185 -0.476286E-05  0.521E-03    2.37       3.0  T
   4    -83.7331188 -0.291450E-06  0.194E-03    2.37       8.0  T
   5    -83.7331188 -0.789485E-08  0.506E-04    2.37      30.5  T
   6    -83.7331188 -0.475923E-08  0.771E-05    2.37     200.1  T
   7    -83.7331188 -0.208715E-09  0.317E-05    2.37     487.2  T
     SCC iter.                  ...        0 min,  0.017 sec
     gradient                   ...        0 min,  0.042 sec
 * total energy  :   -82.9713264 Eh     change       -0.1602129E-03 Eh
   gradient norm :     0.0087368 Eh/α   predicted    -0.1452654E-03 (  -9.33%)
   displ. norm   :     0.1356337 α      lambda       -0.1378236E-03
   maximum displ.:     0.0712134 α      in ANC's #7, #1, #2, ...
 * RMSD in coord.:     0.5140118 α      energy gain  -0.4874651E-02 Eh

generating ANC from model Hessian ...
Using Lindh-Hessian (1995)
 Shifting diagonal of input Hessian by   9.748308670716748E-003
 Lowest  eigenvalues of input Hessian
    0.000000    0.000000    0.000000    0.000000    0.000000    0.000000
    0.010000    0.010124    0.010533    0.011263    0.011428    0.012185
    0.013161    0.013752    0.014690    0.015428    0.016287    0.018275
 Highest eigenvalues
    2.059277    2.111440    2.132915    2.196475    2.396521    2.431545
 

........................................................................
.............................. CYCLE   43 ..............................
........................................................................
   1    -83.7340795 -0.837341E+02  0.127E-02    2.38       0.0  T
   2    -83.7340857 -0.620063E-05  0.479E-03    2.39       3.2  T
   3    -83.7340868 -0.111666E-05  0.258E-03    2.39       6.0  T
   4    -83.7340869 -0.571802E-07  0.107E-03    2.39      14.4  T
   5    -83.7340869 -0.113170E-08  0.120E-04    2.39     128.5  T
   6    -83.7340869 -0.594966E-09  0.387E-05    2.39     399.1  T
     SCC iter.                  ...        0 min,  0.015 sec
     gradient                   ...        0 min,  0.042 sec
 * total energy  :   -82.9714142 Eh     change       -0.8777319E-04 Eh
   gradient norm :     0.0043829 Eh/α   predicted     0.0000000E+00 (-100.00%)
   displ. norm   :     0.0400979 α      lambda       -0.6060780E-04
   maximum displ.:     0.0207178 α      in ANC's #9, #27, #19, ...

........................................................................
.............................. CYCLE   44 ..............................
........................................................................
   1    -83.7341410 -0.837341E+02  0.307E-03    2.39       0.0  T
   2    -83.7341412 -0.220350E-06  0.148E-03    2.39      10.4  T
   3    -83.7341412 -0.276381E-07  0.833E-04    2.39      18.5  T
   4    -83.7341412 -0.188651E-08  0.185E-04    2.39      83.4  T
   5    -83.7341412 -0.642729E-09  0.471E-05    2.39     327.6  T
     SCC iter.                  ...        0 min,  0.017 sec
     gradient                   ...        0 min,  0.080 sec
 * total energy  :   -82.9714625 Eh     change       -0.4834372E-04 Eh
   gradient norm :     0.0022896 Eh/α   predicted    -0.3041714E-04 ( -37.08%)
   displ. norm   :     0.1030200 α      lambda       -0.9002912E-04
   maximum displ.:     0.0535953 α      in ANC's #9, #27, #21, ...

........................................................................
.............................. CYCLE   45 ..............................
........................................................................
   1    -83.7342355 -0.837342E+02  0.578E-03    2.40       0.0  T
   2    -83.7342367 -0.116820E-05  0.245E-03    2.40       6.3  T
   3    -83.7342369 -0.194786E-06  0.122E-03    2.40      12.7  T
   4    -83.7342369 -0.795998E-08  0.412E-04    2.40      37.4  T
   5    -83.7342369 -0.690889E-09  0.103E-04    2.40     150.0  T
   6    -83.7342369 -0.281915E-09  0.227E-05    2.40     680.3  T
     SCC iter.                  ...        0 min,  0.020 sec
     gradient                   ...        0 min,  0.080 sec
 * total energy  :   -82.9715207 Eh     change       -0.5811947E-04 Eh
   gradient norm :     0.0029520 Eh/α   predicted    -0.4549405E-04 ( -21.72%)
   displ. norm   :     0.0782023 α      lambda       -0.3714329E-04
   maximum displ.:     0.0347308 α      in ANC's #9, #21, #4, ...

........................................................................
.............................. CYCLE   46 ..............................
........................................................................
   1    -83.7343251 -0.837343E+02  0.513E-03    2.40       0.0  T
   2    -83.7343262 -0.109387E-05  0.204E-03    2.40       7.6  T
   3    -83.7343265 -0.214707E-06  0.792E-04    2.40      19.5  T
   4    -83.7343265 -0.618022E-08  0.311E-04    2.40      49.6  T
   5    -83.7343265 -0.242395E-09  0.101E-04    2.40     153.0  T
   6    -83.7343265 -0.178773E-09  0.161E-05    2.40     957.1  T
     SCC iter.                  ...        0 min,  0.021 sec
     gradient                   ...        0 min,  0.080 sec
 * total energy  :   -82.9715497 Eh     change       -0.2904864E-04 Eh
   gradient norm :     0.0031728 Eh/α   predicted    -0.1879267E-04 ( -35.31%)
   displ. norm   :     0.1360478 α      lambda       -0.5793166E-04
   maximum displ.:     0.0507285 α      in ANC's #21, #4, #9, ...

........................................................................
.............................. CYCLE   47 ..............................
........................................................................
   1    -83.7343853 -0.837344E+02  0.108E-02    2.41       0.0  T
   2    -83.7343904 -0.511869E-05  0.432E-03    2.42       3.6  T
   3    -83.7343914 -0.100696E-05  0.163E-03    2.42       9.4  T
   4    -83.7343915 -0.289200E-07  0.653E-04    2.42      23.6  T
   5    -83.7343915 -0.116621E-08  0.219E-04    2.42      70.6  T
   6    -83.7343915 -0.728718E-09  0.300E-05    2.42     513.8  T
   7    -83.7343915 -0.328129E-10  0.119E-05    2.42    1299.5  T
     SCC iter.                  ...        0 min,  0.025 sec
     gradient                   ...        0 min,  0.080 sec
 * total energy  :   -82.9715909 Eh     change       -0.4117052E-04 Eh
   gradient norm :     0.0030327 Eh/α   predicted    -0.2950265E-04 ( -28.34%)
   displ. norm   :     0.1345291 α      lambda       -0.5078434E-04
   maximum displ.:     0.0510509 α      in ANC's #21, #3, #1, ...

........................................................................
.............................. CYCLE   48 ..............................
........................................................................
   1    -83.7345479 -0.837345E+02  0.120E-02    2.43       0.0  T
   2    -83.7345544 -0.653886E-05  0.475E-03    2.43       3.3  T
   3    -83.7345557 -0.129042E-05  0.178E-03    2.43       8.7  T
   4    -83.7345558 -0.381187E-07  0.740E-04    2.43      20.8  T
   5    -83.7345558 -0.107298E-08  0.236E-04    2.43      65.3  T
   6    -83.7345558 -0.850605E-09  0.331E-05    2.43     466.2  T
   7    -83.7345558 -0.397904E-10  0.133E-05    2.43    1163.8  T
     SCC iter.                  ...        0 min,  0.025 sec
     gradient                   ...        0 min,  0.080 sec
 * total energy  :   -82.9716305 Eh     change       -0.3966804E-04 Eh
   gradient norm :     0.0028398 Eh/α   predicted    -0.2585546E-04 ( -34.82%)
   displ. norm   :     0.2141461 α      lambda       -0.8329814E-04
   maximum displ.:     0.0847054 α      in ANC's #3, #1, #21, ...

........................................................................
.............................. CYCLE   49 ..............................
........................................................................
   1    -83.7347457 -0.837347E+02  0.195E-02    2.44       0.0  T
   2    -83.7347637 -0.179217E-04  0.772E-03    2.45       2.0  T
   3    -83.7347674 -0.373714E-05  0.278E-03    2.45       5.5  T
   4    -83.7347675 -0.101498E-06  0.122E-03    2.45      12.7  T
   5    -83.7347675 -0.259887E-08  0.374E-04    2.45      41.2  T
   6    -83.7347675 -0.212498E-08  0.554E-05    2.45     278.8  T
   7    -83.7347675 -0.932943E-10  0.219E-05    2.45     704.1  T
     SCC iter.                  ...        0 min,  0.025 sec
     gradient                   ...        0 min,  0.080 sec
 * total energy  :   -82.9716954 Eh     change       -0.6489545E-04 Eh
   gradient norm :     0.0034611 Eh/α   predicted    -0.4355990E-04 ( -32.88%)
   displ. norm   :     0.3024508 α      lambda       -0.1159358E-03
   maximum displ.:     0.1252984 α      in ANC's #3, #1, #21, ...

........................................................................
.............................. CYCLE   50 ..............................
........................................................................
   1    -83.7348584 -0.837349E+02  0.271E-02    2.48       0.0  T
   2    -83.7348929 -0.344116E-04  0.109E-02    2.48       1.4  T
   3    -83.7349008 -0.798020E-05  0.378E-03    2.48       4.1  T
   4    -83.7349010 -0.184360E-06  0.171E-03    2.48       9.0  T
   5    -83.7349010 -0.633594E-08  0.493E-04    2.48      31.3  T
   6    -83.7349010 -0.393969E-08  0.725E-05    2.48     212.9  T
   7    -83.7349010 -0.128708E-09  0.297E-05    2.48     520.3  T
     SCC iter.                  ...        0 min,  0.026 sec
     gradient                   ...        0 min,  0.080 sec
 * total energy  :   -82.9717792 Eh     change       -0.8376691E-04 Eh
   gradient norm :     0.0057827 Eh/α   predicted    -0.6327383E-04 ( -24.46%)
   displ. norm   :     0.2274507 α      lambda       -0.1085432E-03
   maximum displ.:     0.0955046 α      in ANC's #3, #1, #2, ...

........................................................................
.............................. CYCLE   51 ..............................
........................................................................
   1    -83.7363550 -0.837364E+02  0.210E-02    2.51       0.0  T
   2    -83.7363741 -0.191631E-04  0.815E-03    2.52       1.9  T
   3    -83.7363788 -0.468611E-05  0.294E-03    2.52       5.2  T
   4    -83.7363789 -0.101749E-06  0.135E-03    2.52      11.4  T
   5    -83.7363789 -0.374607E-08  0.267E-04    2.52      57.8  T
   6    -83.7363789 -0.173256E-08  0.497E-05    2.52     310.2  T
   7    -83.7363789 -0.433289E-10  0.216E-05    2.52     713.8  T
     SCC iter.                  ...        0 min,  0.027 sec
     gradient                   ...        0 min,  0.080 sec
 * total energy  :   -82.9718560 Eh     change       -0.7681354E-04 Eh
   gradient norm :     0.0056507 Eh/α   predicted    -0.5710783E-04 ( -25.65%)
   displ. norm   :     0.3444198 α      lambda       -0.1222729E-03
   maximum displ.:     0.1558198 α      in ANC's #3, #1, #21, ...

........................................................................
.............................. CYCLE   52 ..............................
........................................................................
   1    -83.7354202 -0.837354E+02  0.344E-02    2.57       0.0  T
   2    -83.7354739 -0.536230E-04  0.145E-02    2.57       1.1  T
   3    -83.7354881 -0.142791E-04  0.500E-03    2.57       3.1  T
   4    -83.7354884 -0.242175E-06  0.217E-03    2.57       7.1  T
   5    -83.7354884 -0.999323E-08  0.467E-04    2.58      33.1  T
   6    -83.7354884 -0.499308E-08  0.785E-05    2.58     196.5  T
   7    -83.7354884 -0.134989E-09  0.327E-05    2.58     471.8  T
     SCC iter.                  ...        0 min,  0.025 sec
     gradient                   ...        0 min,  0.080 sec
 * total energy  :   -82.9719325 Eh     change       -0.7643268E-04 Eh
   gradient norm :     0.0088076 Eh/α   predicted    -0.6839470E-04 ( -10.52%)
   displ. norm   :     0.3052603 α      lambda       -0.2245546E-03
   maximum displ.:     0.1410531 α      in ANC's #1, #3, #9, ...

........................................................................
.............................. CYCLE   53 ..............................
........................................................................
   1    -83.7383683 -0.837384E+02  0.367E-02    2.66       0.0  T
   2    -83.7384254 -0.570826E-04  0.144E-02    2.66       1.1  T
   3    -83.7384401 -0.146519E-04  0.497E-03    2.66       3.1  T
   4    -83.7384403 -0.233591E-06  0.224E-03    2.66       6.9  T
   5    -83.7384403 -0.613163E-08  0.317E-04    2.66      48.8  T
   6    -83.7384403 -0.333505E-08  0.671E-05    2.66     229.9  T
   7    -83.7384403 -0.117325E-09  0.335E-05    2.66     460.6  T
     SCC iter.                  ...        0 min,  0.024 sec
     gradient                   ...        0 min,  0.080 sec
 * total energy  :   -82.9720802 Eh     change       -0.1477162E-03 Eh
   gradient norm :     0.0102296 Eh/α   predicted    -0.1227484E-03 ( -16.90%)
   displ. norm   :     0.5332979 α      lambda       -0.2914146E-03
   maximum displ.:     0.2532828 α      in ANC's #3, #1, #21, ...

........................................................................
.............................. CYCLE   54 ..............................
........................................................................
   1    -83.7376908 -0.837377E+02  0.644E-02    2.79       0.0  T
   2    -83.7378704 -0.179591E-03  0.274E-02    2.79       1.0  T
   3    -83.7379239 -0.535484E-04  0.805E-03    2.79       1.9  T
   4    -83.7379245 -0.572852E-06  0.347E-03    2.79       4.4  T
   5    -83.7379245 -0.280840E-07  0.666E-04    2.79      23.2  T
   6    -83.7379245 -0.140322E-07  0.143E-04    2.79     107.9  T
   7    -83.7379245 -0.683812E-09  0.630E-05    2.79     244.8  T
     SCC iter.                  ...        0 min,  0.025 sec
     gradient                   ...        0 min,  0.079 sec
 * total energy  :   -82.9723801 Eh     change       -0.2999565E-03 Eh
   gradient norm :     0.0166415 Eh/α   predicted    -0.1871751E-03 ( -37.60%)
   displ. norm   :     0.8022645 α      lambda       -0.7162452E-03
   maximum displ.:     0.3826054 α      in ANC's #3, #1, #21, ...

........................................................................
.............................. CYCLE   55 ..............................
........................................................................
   1    -83.7309421 -0.837309E+02  0.940E-02    2.99       0.0  T
   2    -83.7313220 -0.379983E-03  0.434E-02    3.00       1.0  T
   3    -83.7314402 -0.118170E-03  0.136E-02    3.00       1.1  T
   4    -83.7314412 -0.101255E-05  0.528E-03    3.00       2.9  T
   5    -83.7314413 -0.860186E-07  0.139E-03    3.00      11.1  T
   6    -83.7314414 -0.587687E-07  0.290E-04    3.00      53.2  T
   7    -83.7314414 -0.248455E-08  0.100E-04    3.00     153.6  T
   8    -83.7314414 -0.746780E-10  0.305E-05    3.00     506.4  T
     SCC iter.                  ...        0 min,  0.028 sec
     gradient                   ...        0 min,  0.080 sec
 * total energy  :   -82.9725870 Eh     change       -0.2068461E-03 Eh
   gradient norm :     0.0376866 Eh/α   predicted    -0.5886381E-03 ( 184.58%)
   displ. norm   :     0.6965608 α      lambda       -0.1380087E-02
   maximum displ.:     0.3309955 α      in ANC's #7, #1, #2, ...

........................................................................
.............................. CYCLE   56 ..............................
........................................................................
   1    -83.7389566 -0.837390E+02  0.582E-02    3.08       0.0  T
   2    -83.7391062 -0.149642E-03  0.278E-02    3.08       1.0  T
   3    -83.7391249 -0.186324E-04  0.126E-02    3.08       1.2  T
   4    -83.7391250 -0.157391E-06  0.552E-03    3.08       2.8  T
   5    -83.7391254 -0.345047E-06  0.120E-03    3.08      12.9  T
   6    -83.7391254 -0.323323E-07  0.248E-04    3.08      62.2  T
   7    -83.7391254 -0.163948E-08  0.867E-05    3.08     177.9  T
   8    -83.7391254 -0.591456E-10  0.289E-05    3.08     534.5  T
     SCC iter.                  ...        0 min,  0.028 sec
     gradient                   ...        0 min,  0.080 sec
 * total energy  :   -82.9718951 Eh     change        0.6918217E-03 Eh
   gradient norm :     0.0464928 Eh/α   predicted    -0.1024839E-02 (-248.14%)
   displ. norm   :     0.3538807 α      lambda       -0.3490557E-02
   maximum displ.:     0.1866889 α      in ANC's #7, #9, #1, ...

........................................................................
.............................. CYCLE   57 ..............................
........................................................................
   1    -83.7445520 -0.837446E+02  0.545E-02    3.09       0.0  T
   2    -83.7447114 -0.159326E-03  0.215E-02    3.08       1.0  T
   3    -83.7447183 -0.690320E-05  0.114E-02    3.08       1.4  T
   4    -83.7447186 -0.304676E-06  0.611E-03    3.08       2.5  T
   5    -83.7447190 -0.433597E-06  0.795E-04    3.08      19.4  T
   6    -83.7447190 -0.122364E-07  0.235E-04    3.08      65.6  T
   7    -83.7447190 -0.152266E-08  0.906E-05    3.08     170.3  T
   8    -83.7447190 -0.149228E-09  0.231E-05    3.08     668.8  T
     SCC iter.                  ...        0 min,  0.027 sec
     gradient                   ...        0 min,  0.080 sec
 * total energy  :   -82.9732297 Eh     change       -0.1334539E-02 Eh
   gradient norm :     0.0371937 Eh/α   predicted    -0.1963862E-02 (  47.16%)
   displ. norm   :     0.2337199 α      lambda       -0.1573875E-02
   maximum displ.:     0.0841661 α      in ANC's #3, #21, #1, ...

........................................................................
.............................. CYCLE   58 ..............................
........................................................................
   1    -83.7437566 -0.837438E+02  0.300E-02    3.09       0.0  T
   2    -83.7437994 -0.428085E-04  0.136E-02    3.10       1.1  T
   3    -83.7438054 -0.608487E-05  0.717E-03    3.10       2.2  T
   4    -83.7438059 -0.421040E-06  0.309E-03    3.10       5.0  T
   5    -83.7438059 -0.178119E-08  0.802E-04    3.10      19.3  T
   6    -83.7438059 -0.159805E-07  0.171E-04    3.10      90.1  T
   7    -83.7438059 -0.959716E-09  0.449E-05    3.10     343.5  T
     SCC iter.                  ...        0 min,  0.024 sec
     gradient                   ...        0 min,  0.080 sec
 * total energy  :   -82.9743091 Eh     change       -0.1079420E-02 Eh
   gradient norm :     0.0242889 Eh/α   predicted    -0.8299296E-03 ( -23.11%)
   displ. norm   :     0.4715692 α      lambda       -0.1664835E-02
   maximum displ.:     0.2134828 α      in ANC's #3, #1, #16, ...

........................................................................
.............................. CYCLE   59 ..............................
........................................................................
   1    -83.7417732 -0.837418E+02  0.598E-02    3.18       0.0  T
   2    -83.7419220 -0.148751E-03  0.270E-02    3.17       1.0  T
   3    -83.7419592 -0.372096E-04  0.908E-03    3.18       1.7  T
   4    -83.7419599 -0.731651E-06  0.382E-03    3.18       4.0  T
   5    -83.7419600 -0.341585E-07  0.142E-03    3.18      10.8  T
[...]
 N  H  Rav=1.0168 sigma=0.0000  Rmin=1.0168  Rmax=1.0168     1
 N  C  Rav=1.3403 sigma=0.0663  Rmin=1.2582  Rmax=1.4578     8
 N  N  Rav=1.3634 sigma=0.0000  Rmin=1.3634  Rmax=1.3634     1
 O  H  Rav=0.9656 sigma=0.0000  Rmin=0.9656  Rmax=0.9656     1
 O  C  Rav=1.3322 sigma=0.0692  Rmin=1.2127  Rmax=1.4298     9
 
 selected bond angles (degree)
 --------------------
H26-C1-O2=110.26               H27-C1-O2=110.24               H27-C1-H26=109.30              H28-C1-O2=106.56               
H28-C1-H26=110.23              H28-C1-H27=110.22              C3-O2-C1=116.41                O4-C3-O2=122.68                
C5-C3-O2=113.93                C5-C3-O4=123.38                C6-C5-C3=124.89                N25-C5-C3=112.26               
N25-C5-C6=122.40               O7-C6-C5=123.74                O10-C6-C5=122.34               O10-C6-O7=113.91               
H29-O7-C6=111.42               O10-C8-C9=114.32               N11-C8-C9=123.60               N11-C8-O10=122.07              
H30-C9-C8=109.48               H31-C9-C8=110.14               H31-C9-H30=109.82              H32-C9-C8=109.54               
H32-C9-H30=107.70              H32-C9-H31=110.12              C8-O10-C6=112.78               
 
 selected dihedral angles (degree)
 ---------------------------------
C3-O2-C1-H26= 59.67           C3-O2-C1-H27=298.90           C3-O2-C1-H28=179.30           O4-C3-O2-C1=359.36            
C5-C3-O2-C1=180.05            C6-C5-C3-O2=350.17            C6-C5-C3-O4=170.87            N25-C5-C3-O2=177.77           
N25-C5-C3-O4=358.46           O7-C6-C5-C3=  3.98            O7-C6-C5-N25=175.65           O10-C6-C5-C3=185.40           
O10-C6-C5-N25=357.07          H29-O7-C6-C5=188.07           H29-O7-C6-O10=  6.76          H30-C9-C8-O10= 62.51          
H30-C9-C8-N11=241.20          H31-C9-C8-O10=183.36          H31-C9-C8-N11=  2.05          H32-C9-C8-O10=304.62          
H32-C9-C8-N11=123.31          C8-O10-C6-C5=300.92           C8-O10-C6-O7=122.21           C6-O10-C8-C9=245.12           
C6-O10-C8-N11= 66.41          
           -------------------------------------------------
          |                Final Singlepoint                |
           -------------------------------------------------

          ...................................................
          :                      SETUP                      :
          :.................................................:
          :  # basis functions                 134          :
          :  # atomic orbitals                 134          :
          :  # shells                           84          :
          :  # electrons                       134          :
          :  # halogen bonds                     0          :
          :  max. iterations                   250          :
          :  Hamiltonian                  GFN1-xTB          :
          :  restarted?                      false          :
          :  GBSA solvation                   true          :
          :  PC potential                    false          :
          :  electronic temp.          300.0000000     K    :
          :  accuracy                    1.0000000          :
          :  -> integral cutoff          0.2500000E+02      :
          :  -> integral neglect         0.1000000E-07      :
          :  -> SCF convergence          0.1000000E-05 Eh   :
          :  -> wf. convergence          0.2000000E-04 e    :
          :  Broyden damping             0.4000000          :
          ...................................................

 iter      E             dE          RMSdq      gap      omega  full diag
   1    -83.7693739 -0.837694E+02  0.675E-06    2.74       0.0  T
   2    -83.7693739 -0.810019E-12  0.286E-06    2.74    5389.1  T
   3    -83.7693739 -0.184741E-12  0.169E-06    2.74    9119.5  T

   *** convergence criteria satisfied after 3 iterations ***

         #    Occupation            Energy/Eh            Energy/eV
      -------------------------------------------------------------
         1        2.0000           -0.8615979             -23.4453
       ...           ...                  ...                  ...
        61        2.0000           -0.4705587             -12.8046
        62        2.0000           -0.4599017             -12.5146
        63        2.0000           -0.4577612             -12.4563
        64        2.0000           -0.4489353             -12.2162
        65        2.0000           -0.4432961             -12.0627
        66        2.0000           -0.4379582             -11.9174
        67        2.0000           -0.4177387             -11.3672 (HOMO)
        68                         -0.3171528              -8.6302 (LUMO)
        69                         -0.3062649              -8.3339
        70                         -0.2916457              -7.9361
        71                         -0.2552243              -6.9450
        72                         -0.2452810              -6.6744
       ...                                ...                  ...
       134                          0.7244987              19.7146
      -------------------------------------------------------------
                  HL-Gap            0.1005858 Eh            2.7371 eV
             Fermi-level           -0.3674457 Eh           -9.9987 eV

 SCC (total)                   0 d,  0 h,  0 min,  0.190 sec
 SCC setup                      ...        0 min,  0.002 sec (  0.953%)
 Dispersion                     ...        0 min,  0.000 sec (  0.167%)
 classical contributions        ...        0 min,  0.000 sec (  0.055%)
 integral evaluation            ...        0 min,  0.034 sec ( 17.790%)
 iterations                     ...        0 min,  0.013 sec (  6.688%)
 molecular gradient             ...        0 min,  0.140 sec ( 73.862%)
 printout                       ...        0 min,  0.001 sec (  0.466%)

         :::::::::::::::::::::::::::::::::::::::::::::::::::::
         ::                     SUMMARY                     ::
         :::::::::::::::::::::::::::::::::::::::::::::::::::::
         :: total energy             -82.984060955945 Eh    ::
         :: total w/o Gsasa/hb       -82.958506033668 Eh    ::
         :: gradient norm              0.000611620772 Eh/a0 ::
         :: HOMO-LUMO gap              2.737079485376 eV    ::
         ::.................................................::
         :: SCC energy               -83.769373926885 Eh    ::
         :: -> electrostatic           0.338420681535 Eh    ::
         :: -> Gsolv                  -0.057275329136 Eh    ::
         ::    -> Gelec               -0.031720406859 Eh    ::
         ::    -> Gsasa               -0.025281590539 Eh    ::
         ::    -> Ghb                 -0.007897610743 Eh    ::
         ::    -> Gshift               0.007624279005 Eh    ::
         :: repulsion energy           0.810600087317 Eh    ::
         :: dispersion energy         -0.025287116377 Eh    ::
         :: halogen bond corr.         0.000000000000 Eh    ::
         :: add. restraining           0.000000000000 Eh    ::
         :: total charge              -0.000000000000 e     ::
         :::::::::::::::::::::::::::::::::::::::::::::::::::::

           -------------------------------------------------
          |                Property Printout                |
           -------------------------------------------------

    * Orbital Energies and Occupations

         #    Occupation            Energy/Eh            Energy/eV
      -------------------------------------------------------------
         1        2.0000           -0.8615979             -23.4453
       ...           ...                  ...                  ...
        55        2.0000           -0.5033343             -13.6964
        56        2.0000           -0.4972592             -13.5311
        57        2.0000           -0.4944271             -13.4540
        58        2.0000           -0.4881568             -13.2834
        59        2.0000           -0.4806168             -13.0782
        60        2.0000           -0.4790598             -13.0359
        61        2.0000           -0.4705587             -12.8046
        62        2.0000           -0.4599017             -12.5146
        63        2.0000           -0.4577612             -12.4563
        64        2.0000           -0.4489353             -12.2162
        65        2.0000           -0.4432961             -12.0627
        66        2.0000           -0.4379582             -11.9174
        67        2.0000           -0.4177387             -11.3672 (HOMO)
        68                         -0.3171528              -8.6302 (LUMO)
        69                         -0.3062649              -8.3339
        70                         -0.2916457              -7.9361
        71                         -0.2552243              -6.9450
        72                         -0.2452810              -6.6744
        73                         -0.1944644              -5.2916
        74                         -0.1834692              -4.9925
        75                         -0.1435478              -3.9061
        76                         -0.1424449              -3.8761
        77                         -0.1376202              -3.7448
        78                         -0.1202240              -3.2715
       ...                                ...                  ...
       134                          0.7244987              19.7146
      -------------------------------------------------------------
                  HL-Gap            0.1005858 Eh            2.7371 eV
             Fermi-level           -0.3674457 Eh           -9.9987 eV

  Mulliken/CM5 charges         n(s)   n(p)   n(d)
     1C     0.16561  0.04513   0.979  2.856  0.000
     2O    -0.42141 -0.50510   1.686  4.735  0.000
     3C     0.57108  0.63786   0.967  2.462  0.000
     4O    -0.57417 -0.61832   1.726  4.848  0.000
     5C     0.02511  0.09907   1.024  2.951  0.000
     6C     0.48415  0.53694   0.967  2.549  0.000
     7O    -0.50328 -0.69863   1.688  4.815  0.000
     8C     0.42523  0.52940   1.009  2.566  0.000
     9C    -0.11564 -0.25250   1.018  3.098  0.000
    10O    -0.44316 -0.50295   1.685  4.758  0.000
    11N    -0.37750 -0.56908   1.521  3.857  0.000
    12C     0.29454  0.44868   1.018  2.687  0.000
    13C     0.15574  0.19852   1.062  2.782  0.000
    14C    -0.10009 -0.23863   1.018  3.082  0.000
    15C    -0.10246 -0.24139   1.018  3.084  0.000
    16N    -0.33512 -0.68326   1.429  3.906  0.000
    17C     0.46575  0.57589   0.973  2.561  0.000
    18O    -0.58066 -0.62543   1.727  4.854  0.000
    19C     0.33194  0.45785   1.010  2.658  0.000
    20N    -0.24118 -0.35174   1.568  3.674  0.000
    21N    -0.26734 -0.37501   1.565  3.702  0.000
    22C     0.38695  0.49560   1.007  2.606  0.000
    23C    -0.11110 -0.24854   1.011  3.100  0.000
    24O    -0.34149 -0.39290   1.692  4.650  0.000
    25N    -0.35479 -0.54327   1.522  3.833  0.000
    26H     0.04898  0.11069   0.951  0.000  0.000
    27H     0.04879  0.11030   0.951  0.000  0.000
    28H     0.05180  0.11219   0.948  0.000  0.000
    29H     0.42617  0.60491   0.574  0.000  0.000
    30H     0.07990  0.13522   0.920  0.000  0.000
    31H     0.07096  0.12741   0.929  0.000  0.000
    32H     0.08406  0.13926   0.916  0.000  0.000
    33H     0.04175  0.09868   0.958  0.000  0.000
    34H     0.04182  0.10011   0.958  0.000  0.000
    35H     0.05680  0.11642   0.943  0.000  0.000
    36H     0.04322  0.10072   0.957  0.000  0.000
    37H     0.04250  0.09938   0.957  0.000  0.000
    38H     0.05795  0.11746   0.942  0.000  0.000
    39H     0.24539  0.46103   0.755  0.000  0.000
    40H     0.06808  0.12392   0.932  0.000  0.000
    41H     0.07755  0.13205   0.922  0.000  0.000
    42H     0.07755  0.13205   0.922  0.000  0.000

Wiberg/Mayer (AO) data.
largest (>0.10) Wiberg bond orders for each atom

 ---------------------------------------------------------------------------
     #   Z sym  total        # sym  WBO       # sym  WBO       # sym  WBO
 ---------------------------------------------------------------------------
     1   6 C    3.875 --    28 H    0.986    27 H    0.980    26 H    0.980
                             2 O    0.900
     2   8 O    2.186 --     3 C    1.096     1 C    0.900     4 O    0.127
     3   6 C    3.856 --     4 O    1.638     2 O    1.096     5 C    1.033
     4   8 O    1.910 --     3 C    1.638     2 O    0.127
     5   6 C    3.934 --     6 C    1.542    25 N    1.077     3 C    1.033
     6   6 C    3.844 --     5 C    1.542     7 O    1.116    10 O    0.971
     7   8 O    2.097 --     6 C    1.116    29 H    0.802
     8   6 C    3.875 --    11 N    1.779     9 C    1.029    10 O    0.905
     9   6 C    3.987 --     8 C    1.029    31 H    0.981    32 H    0.959
                            30 H    0.957
    10   8 O    2.101 --     6 C    0.971     8 C    0.905
    11   7 N    3.108 --     8 C    1.779    12 C    1.064
    12   6 C    3.940 --    25 N    1.713    11 N    1.064    13 C    0.978
    13   6 C    3.937 --    15 C    0.978    14 C    0.978    12 C    0.978
                            16 N    0.932
    14   6 C    3.988 --    33 H    0.986    34 H    0.984    35 H    0.981
                            13 C    0.978
    15   6 C    3.990 --    37 H    0.986    36 H    0.985    38 H    0.981
                            13 C    0.978
    16   7 N    3.365 --    17 C    1.275    13 C    0.932    39 H    0.877
                            18 O    0.182
    17   6 C    3.920 --    18 O    1.579    16 N    1.275    19 C    0.985
    18   8 O    1.898 --    17 C    1.579    16 N    0.182
    19   6 C    3.873 --    20 N    1.615    24 O    1.062    17 C    0.985
    20   7 N    3.014 --    19 C    1.615    21 N    1.196
    21   7 N    2.981 --    22 C    1.609    20 N    1.196
    22   6 C    3.872 --    21 N    1.609    24 O    1.081    23 C    1.031
    23   6 C    3.987 --    22 C    1.031    40 H    0.983    41 H    0.964
                            42 H    0.964
    24   8 O    2.327 --    22 C    1.081    19 C    1.062
    25   7 N    3.084 --    12 C    1.713     5 C    1.077
    26   1 H    1.009 --     1 C    0.980
    27   1 H    1.008 --     1 C    0.980
    28   1 H    1.011 --     1 C    0.986
    29   1 H    0.829 --     7 O    0.802
    30   1 H    0.997 --     9 C    0.957
    31   1 H    1.000 --     9 C    0.981
    32   1 H    0.997 --     9 C    0.959
    33   1 H    1.003 --    14 C    0.986
    34   1 H    1.011 --    14 C    0.984
    35   1 H    1.009 --    14 C    0.981
    36   1 H    1.004 --    15 C    0.985
    37   1 H    1.003 --    15 C    0.986
    38   1 H    1.009 --    15 C    0.981
    39   1 H    0.973 --    16 N    0.877
    40   1 H    0.999 --    23 C    0.983
    41   1 H    0.997 --    23 C    0.964
    42   1 H    0.997 --    23 C    0.964
 ---------------------------------------------------------------------------

Topologies differ in total number of bonds
Writing topology from bond orders to xtbtopo.mol

 dipole moment from electron density (au)
     X       Y       Z   
  -3.2154  -1.0660   1.0786  total (Debye):    9.036

           -------------------------------------------------
          |                Geometry Summary                 |
           -------------------------------------------------

      molecular mass/u    :      351.3152409
   center of mass at/Å    :        0.0571962       0.1834510       0.1881351
  moments of inertia/u·Å² :        0.1573936E+04   0.3830632E+04   0.5148278E+04
rotational constants/cm⁻¹ :        0.1071049E-01   0.4400744E-02   0.3274422E-02

 * 36 selected distances

     #   Z          #   Z                                           value/Å
     1   6 C        2   8 O                                       1.4297808
     2   8 O        3   6 C                                       1.3375383
     3   6 C        4   8 O                                       1.2127025
     5   6 C        6   6 C                                       1.3600196
     6   6 C        7   8 O                                       1.3269832
     8   6 C        9   6 C                                       1.4848414
     6   6 C       10   8 O                                       1.3709413
     8   6 C       11   7 N                                       1.2582220
    13   6 C       14   6 C                                       1.5352405
    13   6 C       15   6 C                                       1.5356086 (max)
    13   6 C       16   7 N                                       1.4578320
    16   7 N       17   6 C                                       1.3421283
    17   6 C       18   8 O                                       1.2208392
    19   6 C       20   7 N                                       1.2984312
    21   7 N       22   6 C                                       1.2977048
    22   6 C       23   6 C                                       1.4796603
    19   6 C       24   8 O                                       1.3463347
    22   6 C       24   8 O                                       1.3417403
    12   6 C       25   7 N                                       1.2732550
     1   6 C       26   1 H                                       1.0930223
     1   6 C       27   1 H                                       1.0931872
     1   6 C       28   1 H                                       1.0882774
     7   8 O       29   1 H                                       0.9655907 (min)
     9   6 C       30   1 H                                       1.0897046
     9   6 C       31   1 H                                       1.0868388
     9   6 C       32   1 H                                       1.0893948
    14   6 C       33   1 H                                       1.0891929
    14   6 C       34   1 H                                       1.0883387
    14   6 C       35   1 H                                       1.0886112
    15   6 C       36   1 H                                       1.0883547
    15   6 C       37   1 H                                       1.0890208
    15   6 C       38   1 H                                       1.0884067
    16   7 N       39   1 H                                       1.0167728
    23   6 C       40   1 H                                       1.0870846
    23   6 C       41   1 H                                       1.0897212
    23   6 C       42   1 H                                       1.0897468

 * 6 distinct bonds (by element types)

   Z      Z             #   av. dist./Å        max./Å        min./Å
   1 H    6 C          15     1.0892602     1.0931872     1.0868388
   6 C    6 C           5     1.4790741     1.5356086     1.3600196
   1 H    7 N           1     1.0167728     1.0167728     1.0167728
   6 C    7 N           6     1.3212622     1.4578320     1.2582220
   1 H    8 O           1     0.9655907     0.9655907     0.9655907
   6 C    8 O           8     1.3233576     1.4297808     1.2127025


optimized geometry written to: xtbopt.xyz


           -------------------------------------------------
          | TOTAL ENERGY              -82.984060955945 Eh   |
          | GRADIENT NORM               0.000611620772 Eh/α |
          | HOMO-LUMO GAP               2.737079485376 eV   |
           -------------------------------------------------

------------------------------------------------------------------------
 * finished run on 2023/06/20 at 18:24:07.297     
------------------------------------------------------------------------
 total:
 * wall-time:     0 d,  0 h,  0 min, 13.849 sec
 *  cpu-time:     0 d,  0 h,  0 min, 12.846 sec
 * ratio c/w:     0.928 speedup
 SCF:
 * wall-time:     0 d,  0 h,  0 min,  0.239 sec
 *  cpu-time:     0 d,  0 h,  0 min,  0.190 sec
 * ratio c/w:     0.797 speedup
 ANC optimizer:
 * wall-time:     0 d,  0 h,  0 min, 13.464 sec
 *  cpu-time:     0 d,  0 h,  0 min, 12.607 sec
 * ratio c/w:     0.936 speedup

