      -----------------------------------------------------------      
     |                   =====================                   |     
     |                           x T B                           |     
     |                   =====================                   |     
     |                         S. Grimme                         |     
     |          Mulliken Center for Theoretical Chemistry        |     
     |                    University of Bonn                     |     
      -----------------------------------------------------------      

   * xtb version 6.5.1 (579679a) compiled by 'ehlert@majestix' on 2022-07-11

   xtb is free software: you can redistribute it and/or modify it under
   the terms of the GNU Lesser General Public License as published by
   the Free Software Foundation, either version 3 of the License, or
   (at your option) any later version.
   
   xtb is distributed in the hope that it will be useful,
   but WITHOUT ANY WARRANTY; without even the implied warranty of
   MERCHANTABILITY or FITNESS FOR A PARTICULAR PURPOSE.  See the
   GNU Lesser General Public License for more details.
   
   Cite this work as:
   * C. Bannwarth, E. Caldeweyher, S. Ehlert, A. Hansen, P. Pracht,
     J. Seibert, S. Spicher, S. Grimme, WIREs Comput. Mol. Sci., 2020, 11,
     e01493. DOI: 10.1002/wcms.1493
   
   for GFN2-xTB:
   * C. Bannwarth, S. Ehlert and S. Grimme., J. Chem. Theory Comput., 2019,
     15, 1652-1671. DOI: 10.1021/acs.jctc.8b01176
   for GFN1-xTB:
   * S. Grimme, C. Bannwarth, P. Shushkov, J. Chem. Theory Comput., 2017,
     13, 1989-2009. DOI: 10.1021/acs.jctc.7b00118
   for GFN0-xTB:
   * P. Pracht, E. Caldeweyher, S. Ehlert, S. Grimme, ChemRxiv, 2019, preprint.
     DOI: 10.26434/chemrxiv.8326202.v1
   for GFN-FF:
   * S. Spicher and S. Grimme, Angew. Chem. Int. Ed., 2020, 59, 15665-15673.
     DOI: 10.1002/anie.202004239
   
   for ALPB and GBSA implicit solvation:
   * S. Ehlert, M. Stahn, S. Spicher, S. Grimme, J. Chem. Theory Comput.,
     2021, 17, 4250-4261. DOI: 10.1021/acs.jctc.1c00471
   
   for DFT-D4:
   * E. Caldeweyher, C. Bannwarth and S. Grimme, J. Chem. Phys., 2017,
     147, 034112. DOI: 10.1063/1.4993215
   * E. Caldeweyher, S. Ehlert, A. Hansen, H. Neugebauer, S. Spicher,
     C. Bannwarth and S. Grimme, J. Chem. Phys., 2019, 150, 154122.
     DOI: 10.1063/1.5090222
   * E. Caldeweyher, J.-M. Mewes, S. Ehlert and S. Grimme, Phys. Chem. Chem. Phys.
     2020, 22, 8499-8512. DOI: 10.1039/D0CP00502A
   
   for sTDA-xTB:
   * S. Grimme and C. Bannwarth, J. Chem. Phys., 2016, 145, 054103.
     DOI: 10.1063/1.4959605
   
   in the mass-spec context:
   * V. Asgeirsson, C. Bauer and S. Grimme, Chem. Sci., 2017, 8, 4879.
     DOI: 10.1039/c7sc00601b
   * J. Koopman and S. Grimme, ACS Omega 2019, 4, 12, 15120-15133.
     DOI: 10.1021/acsomega.9b02011
   
   for metadynamics refer to:
   * S. Grimme, J. Chem. Theory Comput., 2019, 155, 2847-2862
     DOI: 10.1021/acs.jctc.9b00143
   
   for SPH calculations refer to:
   * S. Spicher and S. Grimme, J. Chem. Theory Comput., 2021, 17, 1701-1714
     DOI: 10.1021/acs.jctc.0c01306
   
   with help from (in alphabetical order)
   P. Atkinson, C. Bannwarth, F. Bohle, G. Brandenburg, E. Caldeweyher
   M. Checinski, S. Dohm, S. Ehlert, S. Ehrlich, I. Gerasimov, C. Hölzer
   A. Katbashev, J. Koopman, C. Lavigne, S. Lehtola, F. März, M. Müller,
   F. Musil, H. Neugebauer, J. Pisarek, C. Plett, P. Pracht, F. Pultar,
   J. Seibert, P. Shushkov, S. Spicher, M. Stahn, M. Steiner, T. Strunk,
   J. Stückrath, T. Rose, and J. Unsleber
   
 * started run on 2023/06/20 at 18:28:20.226     

           -------------------------------------------------
          |                Calculation Setup                |
           -------------------------------------------------

          program call               : /lustre/hpc/kemi/ree/PhD/git/ReactivityQM/dep/xtb-6.5.1/bin/xtb --gfn 1 /lustre/hpc/kemi/ree/PhD/git/ReactivityQM/calculations/R02deprot/reac01prodN17/conf17/R02deprot_reac01prodN17_conf17_gfn1.xyz --opt --vfukui --chrg 0 --uhf 0 --alpb DMSO
          hostname                   : node308
          coordinate file            : /lustre/hpc/kemi/ree/PhD/git/ReactivityQM/calculations/R02deprot/reac01prodN17/conf17/R02deprot_reac01prodN17_conf17_gfn1.xyz
          omp threads                :                     1

   ID    Z sym.   atoms
    1    6 C      1, 2, 5, 6, 9-12, 14, 15, 18-20, 22
    2    7 N      3, 4, 8, 13, 24
    3    8 O      7, 16, 17, 21, 23, 25
    4    1 H      26-42

           -------------------------------------------------
          |                 G F N 1 - x T B                 |
           -------------------------------------------------

        Reference                      10.1021/acs.jctc.7b00118
      * Hamiltonian:
        H0-scaling (s, p, d)           1.850000    2.250000    2.000000
        zeta-weighting                 0.000000
      * Dispersion:
        s8                             2.400000
        a1                             0.630000
        a2                             5.000000
        s9                             0.000000
      * Repulsion:
        kExp                           1.500000
        rExp                           1.000000
      * Coulomb:
        alpha                          2.000000
        third order                    atomic
        anisotropic                    false
      * Halogen bond correction:
        rad-scale                      1.300000
        damping                        0.440000

      * Solvation model:               ALPB
        Solvent                        DMSO
        Parameter file                 internal GFN1-xTB/ALPB
        Dielectric constant                4.6680E+01
        Reference state                gsolv [1 M gas/solution]
        Free energy shift                  7.6243E-03 Eh       4.7843E+00 kcal/mol
        Temperature                        2.9815E+02 K
        Density                            1.1000E+00 kg/L
        Solvent mass                       7.8130E+01 g/mol
        Interaction kernel             P16
        Born radius scaling (c1)           1.7672E+00
        Born radii integrator          GBOBC
        Born offset                        0.0000E+00 a0       0.0000E+00 AA
        H-bond correction              true
        Ion screening                  false
        Surface tension                    1.0000E-05 Eh       1.5569E+01 dyn/cm
        Grid points                               230 per atom

          ...................................................
          :                      SETUP                      :
          :.................................................:
          :  # basis functions                 134          :
          :  # atomic orbitals                 134          :
          :  # shells                           84          :
          :  # electrons                       134          :
          :  # halogen bonds                     0          :
          :  max. iterations                   250          :
          :  Hamiltonian                  GFN1-xTB          :
          :  restarted?                      false          :
          :  GBSA solvation                   true          :
          :  PC potential                    false          :
          :  electronic temp.          300.0000000     K    :
          :  accuracy                    1.0000000          :
          :  -> integral cutoff          0.2500000E+02      :
          :  -> integral neglect         0.1000000E-07      :
          :  -> SCF convergence          0.1000000E-05 Eh   :
          :  -> wf. convergence          0.2000000E-04 e    :
          :  Broyden damping             0.4000000          :
          ...................................................

 iter      E             dE          RMSdq      gap      omega  full diag
   1    -83.3368028 -0.833368E+02  0.845E+00    2.83       0.0  T
   2    -83.6440315 -0.307229E+00  0.504E+00    1.55       1.0  T
   3    -83.6043030  0.397285E-01  0.179E+00    1.77       1.0  T
   4    -83.6544542 -0.501512E-01  0.479E-01    1.32       1.0  T
   5    -83.6679670 -0.135128E-01  0.160E-01    1.51       1.0  T
   6    -83.6695830 -0.161602E-02  0.205E-02    1.47       1.0  T
   7    -83.6695925 -0.949754E-05  0.692E-03    1.45       2.2  T
   8    -83.6695932 -0.729999E-06  0.293E-03    1.45       5.3  T
   9    -83.6695932 -0.401105E-07  0.952E-04    1.45      16.2  T
  10    -83.6695933 -0.210404E-07  0.328E-04    1.45      47.0  T
  11    -83.6695933 -0.464539E-09  0.117E-04    1.45     132.4  T
  12    -83.6695933 -0.197474E-09  0.283E-05    1.45     545.2  T

   *** convergence criteria satisfied after 12 iterations ***

         #    Occupation            Energy/Eh            Energy/eV
      -------------------------------------------------------------
         1        2.0000           -0.9094084             -24.7463
       ...           ...                  ...                  ...
        61        2.0000           -0.4524472             -12.3117
        62        2.0000           -0.4469209             -12.1613
        63        2.0000           -0.4400277             -11.9738
        64        2.0000           -0.4300491             -11.7022
        65        2.0000           -0.4256959             -11.5838
        66        2.0000           -0.4011314             -10.9153
        67        2.0000           -0.3957615             -10.7692 (HOMO)
        68                         -0.3423837              -9.3167 (LUMO)
        69                         -0.3100088              -8.4358
        70                         -0.2557354              -6.9589
        71                         -0.2551604              -6.9433
        72                         -0.2361647              -6.4264
       ...                                ...                  ...
       134                          0.7237443              19.6941
      -------------------------------------------------------------
                  HL-Gap            0.0533778 Eh            1.4525 eV
             Fermi-level           -0.3690726 Eh          -10.0430 eV

 SCC (total)                   0 d,  0 h,  0 min,  0.196 sec
 SCC setup                      ...        0 min,  0.002 sec (  1.055%)
 Dispersion                     ...        0 min,  0.000 sec (  0.205%)
 classical contributions        ...        0 min,  0.000 sec (  0.065%)
 integral evaluation            ...        0 min,  0.059 sec ( 30.057%)
 iterations                     ...        0 min,  0.055 sec ( 28.143%)
 molecular gradient             ...        0 min,  0.078 sec ( 40.028%)
 printout                       ...        0 min,  0.001 sec (  0.430%)

         :::::::::::::::::::::::::::::::::::::::::::::::::::::
         ::                     SUMMARY                     ::
         :::::::::::::::::::::::::::::::::::::::::::::::::::::
         :: total energy             -82.911388016811 Eh    ::
         :: total w/o Gsasa/hb       -82.888516778290 Eh    ::
         :: gradient norm              0.120501493753 Eh/a0 ::
         :: HOMO-LUMO gap              1.452483214172 eV    ::
         ::.................................................::
         :: SCC energy               -83.669593261614 Eh    ::
         :: -> electrostatic           0.392982813635 Eh    ::
         :: -> Gsolv                  -0.080767439659 Eh    ::
         ::    -> Gelec               -0.057896201139 Eh    ::
         ::    -> Gsasa               -0.024474092931 Eh    ::
         ::    -> Ghb                 -0.006021424594 Eh    ::
         ::    -> Gshift               0.007624279005 Eh    ::
         :: repulsion energy           0.784072662955 Eh    ::
         :: dispersion energy         -0.025867418152 Eh    ::
         :: halogen bond corr.         0.000000000000 Eh    ::
         :: add. restraining           0.000000000000 Eh    ::
         :: total charge               0.000000000000 e     ::
         :::::::::::::::::::::::::::::::::::::::::::::::::::::

      ----------------------------------------------------------- 
     |                   =====================                   |
     |                        A N C O P T                        |
     |                   =====================                   |
     |               Approximate Normal Coordinate               |
     |                Rational Function Optimizer                |
      ----------------------------------------------------------- 

          ...................................................
          :                      SETUP                      :
          :.................................................:
          :   optimization level            normal          :
          :   max. optcycles                   200          :
          :   ANC micro-cycles                  20          :
          :   degrees of freedom               120          :
          :.................................................:
          :   RF solver                   davidson          :
          :   write xtbopt.log                true          :
          :   linear?                        false          :
          :   energy convergence         0.5000000E-05 Eh   :
          :   grad. convergence          0.1000000E-02 Eh/α :
          :   maximium RF displ.         1.0000000          :
          :   Hlow (freq-cutoff)         0.1000000E-01      :
          :   Hmax (freq-cutoff)         5.0000000          :
          :   S6 in model hess.         20.0000000          :
          ...................................................

generating ANC from model Hessian ...
Using Lindh-Hessian (1995)
 Shifting diagonal of input Hessian by   9.831803629454431E-003
 Lowest  eigenvalues of input Hessian
    0.000000    0.000000    0.000000    0.000000    0.000000    0.000000
    0.010000    0.010222    0.010570    0.010777    0.011329    0.011688
    0.012618    0.012712    0.015373    0.016159    0.016393    0.017341
 Highest eigenvalues
    2.020635    2.111613    2.146328    2.254480    2.342325    2.370114
 

........................................................................
.............................. CYCLE    1 ..............................
........................................................................
   1    -83.6695933 -0.836696E+02  0.849E-06    1.45       0.0  T
   2    -83.6695933 -0.184741E-12  0.480E-06    1.45    3213.0  T
   3    -83.6695933 -0.227374E-12  0.233E-06    1.45    6626.2  T
     SCC iter.                  ...        0 min,  0.011 sec
     gradient                   ...        0 min,  0.144 sec
 * total energy  :   -82.9113880 Eh     change       -0.2386003E-10 Eh
   gradient norm :     0.1205017 Eh/α   predicted     0.0000000E+00 (-100.00%)
   displ. norm   :     0.3079401 α      lambda       -0.1797832E-01
   maximum displ.:     0.1242285 α      in ANC's #27, #33, #28, ...

........................................................................
.............................. CYCLE    2 ..............................
........................................................................
   1    -83.6848043 -0.836848E+02  0.945E-02    1.57       0.0  T
   2    -83.6851200 -0.315655E-03  0.421E-02    1.55       1.0  T
   3    -83.6851714 -0.513727E-04  0.186E-02    1.55       1.0  T
   4    -83.6851714 -0.337900E-07  0.978E-03    1.55       1.6  T
   5    -83.6851741 -0.269968E-05  0.291E-03    1.55       5.3  T
   6    -83.6851743 -0.194579E-06  0.406E-04    1.55      38.0  T
   7    -83.6851743 -0.313636E-08  0.157E-04    1.55      98.4  T
   8    -83.6851743 -0.300886E-09  0.447E-05    1.55     345.0  T
     SCC iter.                  ...        0 min,  0.054 sec
     gradient                   ...        0 min,  0.110 sec
 * total energy  :   -82.9244018 Eh     change       -0.1301376E-01 Eh
   gradient norm :     0.0652068 Eh/α   predicted    -0.9851288E-02 ( -24.30%)
   displ. norm   :     0.2805871 α      lambda       -0.7838821E-02
   maximum displ.:     0.0979213 α      in ANC's #27, #6, #28, ...

........................................................................
.............................. CYCLE    3 ..............................
........................................................................
   1    -83.6986595 -0.836987E+02  0.983E-02    1.62       0.0  T
   2    -83.6989741 -0.314555E-03  0.513E-02    1.63       1.0  T
   3    -83.6990935 -0.119446E-03  0.186E-02    1.62       1.0  T
   4    -83.6990976 -0.408157E-05  0.932E-03    1.62       1.7  T
   5    -83.6990986 -0.102958E-05  0.255E-03    1.62       6.0  T
   6    -83.6990987 -0.948380E-07  0.488E-04    1.62      31.6  T
   7    -83.6990987 -0.472744E-08  0.167E-04    1.62      92.2  T
   8    -83.6990987 -0.323496E-09  0.441E-05    1.62     350.2  T
     SCC iter.                  ...        0 min,  0.027 sec
     gradient                   ...        0 min,  0.091 sec
 * total energy  :   -82.9289965 Eh     change       -0.4594734E-02 Eh
   gradient norm :     0.0214965 Eh/α   predicted    -0.4229338E-02 (  -7.95%)
   displ. norm   :     0.2217342 α      lambda       -0.1155576E-02
   maximum displ.:     0.1212066 α      in ANC's #6, #7, #2, ...

........................................................................
.............................. CYCLE    4 ..............................
........................................................................
   1    -83.7024835 -0.837025E+02  0.318E-02    1.63       0.0  T
   2    -83.7025166 -0.331304E-04  0.203E-02    1.64       1.0  T
   3    -83.7025376 -0.210081E-04  0.642E-03    1.63       2.4  T
   4    -83.7025379 -0.326385E-06  0.322E-03    1.63       4.8  T
   5    -83.7025380 -0.103153E-06  0.806E-04    1.63      19.1  T
   6    -83.7025380 -0.962476E-08  0.205E-04    1.63      75.4  T
   7    -83.7025380 -0.848019E-09  0.681E-05    1.63     226.4  T
   8    -83.7025380 -0.545839E-10  0.163E-05    1.63     944.7  T
     SCC iter.                  ...        0 min,  0.027 sec
     gradient                   ...        0 min,  0.078 sec
 * total energy  :   -82.9298920 Eh     change       -0.8955378E-03 Eh
   gradient norm :     0.0124666 Eh/α   predicted    -0.6062547E-03 ( -32.30%)
   displ. norm   :     0.4165170 α      lambda       -0.1341841E-02
   maximum displ.:     0.2335248 α      in ANC's #6, #7, #2, ...

........................................................................
.............................. CYCLE    5 ..............................
........................................................................
   1    -83.7045627 -0.837046E+02  0.387E-02    1.63       0.0  T
   2    -83.7046208 -0.581613E-04  0.257E-02    1.64       1.0  T
   3    -83.7046531 -0.323014E-04  0.849E-03    1.63       1.8  T
   4    -83.7046537 -0.576519E-06  0.441E-03    1.64       3.5  T
   5    -83.7046539 -0.159052E-06  0.104E-03    1.64      14.9  T
   6    -83.7046539 -0.172557E-07  0.279E-04    1.64      55.3  T
   7    -83.7046539 -0.155806E-08  0.103E-04    1.64     150.4  T
   8    -83.7046539 -0.132317E-09  0.261E-05    1.64     590.3  T
     SCC iter.                  ...        0 min,  0.028 sec
     gradient                   ...        0 min,  0.092 sec
 * total energy  :   -82.9308670 Eh     change       -0.9749791E-03 Eh
   gradient norm :     0.0123630 Eh/α   predicted    -0.7873291E-03 ( -19.25%)
   displ. norm   :     0.4322271 α      lambda       -0.8715043E-03
   maximum displ.:     0.2417872 α      in ANC's #6, #7, #2, ...

........................................................................
.............................. CYCLE    6 ..............................
........................................................................
   1    -83.7049667 -0.837050E+02  0.273E-02    1.63       0.0  T
   2    -83.7050035 -0.367982E-04  0.152E-02    1.64       1.0  T
   3    -83.7050118 -0.835162E-05  0.607E-03    1.63       2.5  T
   4    -83.7050123 -0.524022E-06  0.379E-03    1.63       4.1  T
   5    -83.7050125 -0.195574E-06  0.799E-04    1.63      19.3  T
   6    -83.7050125 -0.108291E-07  0.210E-04    1.63      73.5  T
   7    -83.7050125 -0.835925E-09  0.837E-05    1.63     184.4  T
   8    -83.7050125 -0.859615E-10  0.222E-05    1.63     695.2  T
     SCC iter.                  ...        0 min,  0.059 sec
     gradient                   ...        0 min,  0.107 sec
 * total energy  :   -82.9315383 Eh     change       -0.6712994E-03 Eh
   gradient norm :     0.0145849 Eh/α   predicted    -0.5171695E-03 ( -22.96%)
   displ. norm   :     0.4470081 α      lambda       -0.7710006E-03
   maximum displ.:     0.2440895 α      in ANC's #6, #2, #7, ...

........................................................................
.............................. CYCLE    7 ..............................
........................................................................
   1    -83.7056050 -0.837056E+02  0.234E-02    1.63       0.0  T
   2    -83.7056343 -0.292903E-04  0.959E-03    1.63       1.6  T
   3    -83.7056360 -0.173400E-05  0.431E-03    1.63       3.6  T
   4    -83.7056360 -0.373091E-07  0.304E-03    1.63       5.1  T
   5    -83.7056362 -0.179592E-06  0.751E-04    1.63      20.6  T
   6    -83.7056362 -0.192786E-07  0.161E-04    1.63      95.7  T
   7    -83.7056362 -0.471786E-09  0.708E-05    1.63     217.9  T
     SCC iter.                  ...        0 min,  0.024 sec
     gradient                   ...        0 min,  0.145 sec
 * total energy  :   -82.9321536 Eh     change       -0.6152404E-03 Eh
   gradient norm :     0.0130795 Eh/α   predicted    -0.4625547E-03 ( -24.82%)
   displ. norm   :     0.4743683 α      lambda       -0.7341827E-03
   maximum displ.:     0.2522649 α      in ANC's #6, #2, #7, ...

........................................................................
.............................. CYCLE    8 ..............................
........................................................................
   1    -83.7070483 -0.837070E+02  0.234E-02    1.63       0.0  T
   2    -83.7070752 -0.269097E-04  0.901E-03    1.63       1.7  T
   3    -83.7070776 -0.234279E-05  0.480E-03    1.62       3.2  T
   4    -83.7070778 -0.213932E-06  0.245E-03    1.62       6.3  T
   5    -83.7070779 -0.782929E-07  0.877E-04    1.62      17.6  T
   6    -83.7070779 -0.182678E-07  0.138E-04    1.62     111.7  T
   7    -83.7070779 -0.351463E-09  0.585E-05    1.62     263.9  T
     SCC iter.                  ...        0 min,  0.024 sec
     gradient                   ...        0 min,  0.077 sec
 * total energy  :   -82.9327204 Eh     change       -0.5667881E-03 Eh
   gradient norm :     0.0097265 Eh/α   predicted    -0.4496969E-03 ( -20.66%)
   displ. norm   :     0.4493881 α      lambda       -0.5457036E-03
   maximum displ.:     0.2482158 α      in ANC's #2, #6, #7, ...

........................................................................
.............................. CYCLE    9 ..............................
........................................................................
   1    -83.7085326 -0.837085E+02  0.151E-02    1.62       0.0  T
   2    -83.7085421 -0.946869E-05  0.641E-03    1.62       2.4  T
   3    -83.7085432 -0.115809E-05  0.360E-03    1.62       4.3  T
   4    -83.7085433 -0.102405E-06  0.172E-03    1.62       9.0  T
   5    -83.7085434 -0.519247E-07  0.552E-04    1.62      27.9  T
   6    -83.7085434 -0.753661E-08  0.981E-05    1.62     157.2  T
   7    -83.7085434 -0.160981E-09  0.344E-05    1.62     449.0  T
     SCC iter.                  ...        0 min,  0.023 sec
     gradient                   ...        0 min,  0.070 sec
 * total energy  :   -82.9331372 Eh     change       -0.4168391E-03 Eh
   gradient norm :     0.0086374 Eh/α   predicted    -0.3279544E-03 ( -21.32%)
   displ. norm   :     0.4095772 α      lambda       -0.3872859E-03
   maximum displ.:     0.2407818 α      in ANC's #2, #6, #7, ...

........................................................................
.............................. CYCLE   10 ..............................
........................................................................
   1    -83.7105009 -0.837105E+02  0.116E-02    1.62       0.0  T
   2    -83.7105065 -0.564220E-05  0.646E-03    1.62       2.4  T
   3    -83.7105088 -0.230112E-05  0.261E-03    1.62       5.9  T
   4    -83.7105089 -0.114009E-06  0.127E-03    1.62      12.2  T
   5    -83.7105089 -0.549150E-09  0.343E-04    1.62      44.9  T
   6    -83.7105089 -0.268388E-08  0.684E-05    1.62     225.4  T
   7    -83.7105089 -0.759854E-10  0.223E-05    1.62     693.2  T
     SCC iter.                  ...        0 min,  0.025 sec
     gradient                   ...        0 min,  0.082 sec
 * total energy  :   -82.9334297 Eh     change       -0.2925150E-03 Eh
   gradient norm :     0.0093663 Eh/α   predicted    -0.2261287E-03 ( -22.70%)
   displ. norm   :     0.3851664 α      lambda       -0.2849267E-03
   maximum displ.:     0.2322813 α      in ANC's #2, #6, #7, ...

........................................................................
.............................. CYCLE   11 ..............................
........................................................................
   1    -83.7108038 -0.837108E+02  0.850E-03    1.60       0.0  T
   2    -83.7108079 -0.411461E-05  0.388E-03    1.60       4.0  T
   3    -83.7108083 -0.423069E-06  0.169E-03    1.60       9.1  T
   4    -83.7108084 -0.306403E-07  0.110E-03    1.60      14.0  T
   5    -83.7108084 -0.168381E-07  0.300E-04    1.60      51.5  T
   6    -83.7108084 -0.132729E-08  0.524E-05    1.60     294.7  T
   7    -83.7108084 -0.695763E-10  0.184E-05    1.60     837.1  T
     SCC iter.                  ...        0 min,  0.025 sec
     gradient                   ...        0 min,  0.082 sec
 * total energy  :   -82.9336354 Eh     change       -0.2056754E-03 Eh
   gradient norm :     0.0078005 Eh/α   predicted    -0.1636014E-03 ( -20.46%)
   displ. norm   :     0.3060302 α      lambda       -0.2263508E-03
   maximum displ.:     0.2033729 α      in ANC's #2, #6, #7, ...

........................................................................
.............................. CYCLE   12 ..............................
........................................................................
   1    -83.7139184 -0.837139E+02  0.144E-02    1.62       0.0  T
   2    -83.7139287 -0.102653E-04  0.108E-02    1.61       1.4  T
   3    -83.7139335 -0.479582E-05  0.395E-03    1.62       3.9  T
   4    -83.7139335  0.111446E-07  0.225E-03    1.62       6.8  T
   5    -83.7139335 -0.614660E-07  0.448E-04    1.62      34.5  T
   6    -83.7139335 -0.575930E-08  0.664E-05    1.62     232.5  T
   7    -83.7139335 -0.787992E-10  0.315E-05    1.62     489.9  T
     SCC iter.                  ...        0 min,  0.025 sec
     gradient                   ...        0 min,  0.082 sec
 * total energy  :   -82.9337779 Eh     change       -0.1425425E-03 Eh
   gradient norm :     0.0100947 Eh/α   predicted    -0.1237768E-03 ( -13.17%)
   displ. norm   :     0.2852870 α      lambda       -0.1590080E-03
   maximum displ.:     0.1824605 α      in ANC's #2, #6, #7, ...

........................................................................
.............................. CYCLE   13 ..............................
........................................................................
   1    -83.7115069 -0.837115E+02  0.129E-02    1.60       0.0  T
   2    -83.7115155 -0.856521E-05  0.454E-03    1.61       3.4  T
   3    -83.7115159 -0.464470E-06  0.263E-03    1.61       5.9  T
   4    -83.7115160 -0.740825E-07  0.140E-03    1.61      11.0  T
   5    -83.7115160 -0.284150E-07  0.403E-04    1.61      38.3  T
   6    -83.7115160 -0.407373E-08  0.770E-05    1.61     200.4  T
   7    -83.7115160 -0.141739E-09  0.348E-05    1.61     443.8  T
     SCC iter.                  ...        0 min,  0.025 sec
     gradient                   ...        0 min,  0.082 sec
 * total energy  :   -82.9338833 Eh     change       -0.1053961E-03 Eh
   gradient norm :     0.0058320 Eh/α   predicted    -0.8598124E-04 ( -18.42%)
   displ. norm   :     0.2873941 α      lambda        0.2629599E-04
   maximum displ.:     0.1839080 α      in ANC's #2, #6, #7, ...

........................................................................
.............................. CYCLE   14 ..............................
........................................................................
   1    -83.7080812 -0.837081E+02  0.134E-02    1.59       0.0  T
   2    -83.7080899 -0.876209E-05  0.479E-03    1.60       3.2  T
   3    -83.7080904 -0.430129E-06  0.285E-03    1.60       5.4  T
   4    -83.7080904 -0.557134E-07  0.148E-03    1.60      10.4  T
   5    -83.7080905 -0.424401E-07  0.406E-04    1.60      38.0  T
   6    -83.7080905 -0.480374E-08  0.810E-05    1.60     190.4  T
   7    -83.7080905 -0.164547E-09  0.359E-05    1.60     429.9  T
     SCC iter.                  ...        0 min,  0.025 sec
     gradient                   ...        0 min,  0.082 sec
 * total energy  :   -82.9338604 Eh     change        0.2295382E-04 Eh
   gradient norm :     0.0082686 Eh/α   predicted     0.1423161E-04 ( -38.00%)
   displ. norm   :     0.1182358 α      lambda       -0.1929483E-03
   maximum displ.:     0.0708311 α      in ANC's #6, #7, #13, ...

........................................................................
.............................. CYCLE   15 ..............................
........................................................................
   1    -83.7136090 -0.837136E+02  0.139E-02    1.60       0.0  T
   2    -83.7136153 -0.631013E-05  0.599E-03    1.60       2.6  T
   3    -83.7136157 -0.402395E-06  0.350E-03    1.60       4.4  T
   4    -83.7136156  0.238363E-07  0.161E-03    1.60       9.6  T
   5    -83.7136157 -0.939359E-07  0.341E-04    1.60      45.3  T
   6    -83.7136157 -0.521922E-08  0.686E-05    1.60     224.9  T
   7    -83.7136157 -0.110987E-09  0.267E-05    1.60     577.2  T
     SCC iter.                  ...        0 min,  0.025 sec
     gradient                   ...        0 min,  0.082 sec
 * total energy  :   -82.9339399 Eh     change       -0.7953624E-04 Eh
   gradient norm :     0.0058271 Eh/α   predicted    -0.9782669E-04 (  23.00%)
   displ. norm   :     0.0780322 α      lambda       -0.9172298E-04
   maximum displ.:     0.0400204 α      in ANC's #6, #2, #22, ...

........................................................................
.............................. CYCLE   16 ..............................
........................................................................
   1    -83.7134346 -0.837134E+02  0.922E-03    1.62       0.0  T
   2    -83.7134394 -0.486198E-05  0.507E-03    1.61       3.0  T
   3    -83.7134405 -0.108663E-05  0.199E-03    1.62       7.7  T
   4    -83.7134406 -0.487453E-07  0.121E-03    1.62      12.8  T
   5    -83.7134406 -0.806725E-08  0.256E-04    1.62      60.4  T
   6    -83.7134406 -0.150756E-08  0.454E-05    1.62     339.8  T
   7    -83.7134406 -0.508464E-10  0.170E-05    1.62     909.3  T
     SCC iter.                  ...        0 min,  0.025 sec
     gradient                   ...        0 min,  0.082 sec
 * total energy  :   -82.9339865 Eh     change       -0.4663216E-04 Eh
   gradient norm :     0.0053654 Eh/α   predicted    -0.4614988E-04 (  -1.03%)
   displ. norm   :     0.0550084 α      lambda       -0.3943049E-04
   maximum displ.:     0.0308310 α      in ANC's #2, #9, #21, ...

........................................................................
.............................. CYCLE   17 ..............................
........................................................................
   1    -83.7124734 -0.837125E+02  0.509E-03    1.61       0.0  T
   2    -83.7124750 -0.157438E-05  0.182E-03    1.62       8.5  T
   3    -83.7124751 -0.892344E-07  0.730E-04    1.61      21.1  T
   4    -83.7124751 -0.527791E-09  0.409E-04    1.61      37.7  T
   5    -83.7124751 -0.128937E-08  0.136E-04    1.61     113.1  T
   6    -83.7124751 -0.865384E-09  0.375E-05    1.61     411.7  T
     SCC iter.                  ...        0 min,  0.022 sec
     gradient                   ...        0 min,  0.082 sec
 * total energy  :   -82.9340160 Eh     change       -0.2948845E-04 Eh
   gradient norm :     0.0034646 Eh/α   predicted    -0.1977579E-04 ( -32.94%)
   displ. norm   :     0.1401718 α      lambda       -0.6191155E-04
   maximum displ.:     0.0844001 α      in ANC's #2, #1, #9, ...

........................................................................
.............................. CYCLE   18 ..............................
........................................................................
   1    -83.7107944 -0.837108E+02  0.971E-03    1.61       0.0  T
   2    -83.7107993 -0.485383E-05  0.495E-03    1.61       3.1  T
   3    -83.7108005 -0.120497E-05  0.189E-03    1.61       8.2  T
   4    -83.7108005 -0.747472E-07  0.990E-04    1.61      15.6  T
   5    -83.7108005 -0.370902E-08  0.258E-04    1.61      59.7  T
   6    -83.7108005 -0.140233E-08  0.552E-05    1.61     279.7  T
   7    -83.7108005 -0.493259E-10  0.258E-05    1.61     597.0  T
     SCC iter.                  ...        0 min,  0.025 sec
     gradient                   ...        0 min,  0.082 sec
 * total energy  :   -82.9340509 Eh     change       -0.3482802E-04 Eh
   gradient norm :     0.0033231 Eh/α   predicted    -0.3157047E-04 (  -9.35%)
   displ. norm   :     0.0729467 α      lambda       -0.2059908E-04
   maximum displ.:     0.0477291 α      in ANC's #2, #11, #1, ...

........................................................................
.............................. CYCLE   19 ..............................
........................................................................
   1    -83.7106668 -0.837107E+02  0.217E-03    1.61       0.0  T
   2    -83.7106670 -0.167863E-06  0.845E-04    1.61      18.3  T
   3    -83.7106670 -0.138101E-07  0.511E-04    1.61      30.2  T
   4    -83.7106670 -0.630550E-09  0.215E-04    1.61      71.8  T
   5    -83.7106670 -0.146690E-08  0.659E-05    1.61     234.3  T
   6    -83.7106670 -0.156163E-09  0.164E-05    1.61     939.4  T
     SCC iter.                  ...        0 min,  0.021 sec
     gradient                   ...        0 min,  0.082 sec
 * total energy  :   -82.9340674 Eh     change       -0.1655158E-04 Eh
   gradient norm :     0.0033629 Eh/α   predicted    -0.1035953E-04 ( -37.41%)
   displ. norm   :     0.1649012 α      lambda       -0.4518920E-04
   maximum displ.:     0.1064002 α      in ANC's #2, #11, #1, ...

........................................................................
.............................. CYCLE   20 ..............................
........................................................................
   1    -83.7110957 -0.837111E+02  0.293E-03    1.61       0.0  T
   2    -83.7110959 -0.224231E-06  0.137E-03    1.61      11.2  T
   3    -83.7110959 -0.348838E-07  0.682E-04    1.61      22.6  T
   4    -83.7110959 -0.178321E-08  0.373E-04    1.61      41.4  T
   5    -83.7110959 -0.399986E-08  0.921E-05    1.61     167.5  T
   6    -83.7110959 -0.156746E-09  0.220E-05    1.61     702.2  T
     SCC iter.                  ...        0 min,  0.022 sec
     gradient                   ...        0 min,  0.083 sec
 * total energy  :   -82.9340986 Eh     change       -0.3123150E-04 Eh
   gradient norm :     0.0028515 Eh/α   predicted    -0.2321147E-04 ( -25.68%)
   displ. norm   :     0.1357607 α      lambda       -0.3129531E-04
   maximum displ.:     0.0829814 α      in ANC's #2, #1, #11, ...
 * RMSD in coord.:     0.6665843 α      energy gain  -0.2271062E-01 Eh

generating ANC from model Hessian ...
Using Lindh-Hessian (1995)
 Shifting diagonal of input Hessian by   9.830317609988088E-003
 Lowest  eigenvalues of input Hessian
    0.000000    0.000000    0.000000    0.000000    0.000000    0.000000
    0.010000    0.010372    0.010571    0.010649    0.011312    0.011711
    0.012573    0.012817    0.015328    0.016342    0.017140    0.017384
 Highest eigenvalues
    2.026553    2.123264    2.180238    2.349047    2.375325    2.408214
 

........................................................................
.............................. CYCLE   21 ..............................
........................................................................
   1    -83.7113644 -0.837114E+02  0.419E-03    1.62       0.0  T
   2    -83.7113653 -0.915027E-06  0.194E-03    1.61       7.9  T
   3    -83.7113654 -0.930597E-07  0.790E-04    1.61      19.5  T
   4    -83.7113654 -0.243543E-08  0.596E-04    1.61      25.9  T
   5    -83.7113654 -0.826311E-08  0.132E-04    1.61     116.8  T
   6    -83.7113654 -0.221760E-09  0.345E-05    1.61     446.7  T
     SCC iter.                  ...        0 min,  0.054 sec
     gradient                   ...        0 min,  0.090 sec
 * total energy  :   -82.9341214 Eh     change       -0.2276812E-04 Eh
   gradient norm :     0.0024667 Eh/α   predicted     0.0000000E+00 (-100.00%)
   displ. norm   :     0.0260759 α      lambda       -0.1779984E-04
   maximum displ.:     0.0125645 α      in ANC's #12, #5, #1, ...

........................................................................
.............................. CYCLE   22 ..............................
........................................................................
   1    -83.7117871 -0.837118E+02  0.206E-03    1.62       0.0  T
   2    -83.7117872 -0.117664E-06  0.104E-03    1.62      14.8  T
   3    -83.7117873 -0.422134E-07  0.492E-04    1.62      31.3  T
   4    -83.7117873 -0.372050E-08  0.208E-04    1.62      74.2  T
   5    -83.7117873 -0.522519E-09  0.466E-05    1.62     331.4  T
   6    -83.7117873 -0.533191E-10  0.124E-05    1.62    1240.4  T
     SCC iter.                  ...        0 min,  0.022 sec
     gradient                   ...        0 min,  0.082 sec
 * total energy  :   -82.9341375 Eh     change       -0.1613306E-04 Eh
   gradient norm :     0.0012133 Eh/α   predicted    -0.9856107E-05 ( -38.91%)
   displ. norm   :     0.1255964 α      lambda       -0.3779314E-04
   maximum displ.:     0.0616895 α      in ANC's #12, #5, #1, ...

........................................................................
.............................. CYCLE   23 ..............................
........................................................................
   1    -83.7124026 -0.837124E+02  0.604E-03    1.61       0.0  T
   2    -83.7124038 -0.119921E-05  0.267E-03    1.61       5.8  T
   3    -83.7124040 -0.274784E-06  0.128E-03    1.61      12.0  T
   4    -83.7124041 -0.272282E-07  0.595E-04    1.61      25.9  T
   5    -83.7124041 -0.366117E-08  0.162E-04    1.61      95.5  T
   6    -83.7124041 -0.629825E-09  0.378E-05    1.61     408.7  T
     SCC iter.                  ...        0 min,  0.022 sec
     gradient                   ...        0 min,  0.082 sec
 * total energy  :   -82.9341681 Eh     change       -0.3056754E-04 Eh
   gradient norm :     0.0026421 Eh/α   predicted    -0.1902964E-04 ( -37.75%)
   displ. norm   :     0.0557267 α      lambda       -0.1737242E-04
   maximum displ.:     0.0268472 α      in ANC's #12, #5, #1, ...

........................................................................
.............................. CYCLE   24 ..............................
........................................................................
   1    -83.7122938 -0.837123E+02  0.131E-03    1.61       0.0  T
   2    -83.7122939 -0.528136E-07  0.658E-04    1.61      23.5  T
   3    -83.7122939 -0.537121E-08  0.341E-04    1.61      45.2  T
   4    -83.7122939 -0.504670E-09  0.185E-04    1.61      83.4  T
   5    -83.7122939 -0.100729E-08  0.376E-05    1.61     410.2  T
     SCC iter.                  ...        0 min,  0.018 sec
     gradient                   ...        0 min,  0.082 sec
 * total energy  :   -82.9341847 Eh     change       -0.1661620E-04 Eh
   gradient norm :     0.0023711 Eh/α   predicted    -0.8873427E-05 ( -46.60%)
   displ. norm   :     0.4149676 α      lambda       -0.1248384E-03
   maximum displ.:     0.1997540 α      in ANC's #12, #5, #1, ...

........................................................................
.............................. CYCLE   25 ..............................
........................................................................
   1    -83.7094582 -0.837095E+02  0.120E-02    1.61       0.0  T
   2    -83.7094606 -0.235563E-05  0.628E-03    1.61       2.5  T
   3    -83.7094607 -0.136708E-06  0.346E-03    1.61       4.5  T
   4    -83.7094609 -0.188917E-06  0.137E-03    1.61      11.2  T
   5    -83.7094610 -0.625755E-07  0.299E-04    1.61      51.6  T
   6    -83.7094610 -0.171747E-08  0.823E-05    1.61     187.4  T
   7    -83.7094610 -0.676010E-10  0.258E-05    1.61     597.7  T
     SCC iter.                  ...        0 min,  0.025 sec
     gradient                   ...        0 min,  0.082 sec
 * total energy  :   -82.9341888 Eh     change       -0.4081575E-05 Eh
   gradient norm :     0.0080140 Eh/α   predicted    -0.7316804E-04 (1692.64%)
   displ. norm   :     0.2209235 α      lambda       -0.1722648E-03
   maximum displ.:     0.1106494 α      in ANC's #12, #5, #6, ...

........................................................................
.............................. CYCLE   26 ..............................
........................................................................
   1    -83.7122620 -0.837123E+02  0.937E-03    1.61       0.0  T
   2    -83.7122628 -0.849436E-06  0.482E-03    1.61       3.2  T
   3    -83.7122628 -0.159748E-07  0.201E-03    1.61       7.7  T
   4    -83.7122629 -0.297310E-07  0.576E-04    1.61      26.8  T
   5    -83.7122629 -0.895122E-08  0.217E-04    1.61      71.2  T
   6    -83.7122629 -0.184102E-08  0.559E-05    1.61     276.2  T
   7    -83.7122629 -0.669900E-10  0.146E-05    1.61    1059.1  T
     SCC iter.                  ...        0 min,  0.025 sec
     gradient                   ...        0 min,  0.082 sec
 * total energy  :   -82.9342409 Eh     change       -0.5204475E-04 Eh
   gradient norm :     0.0013350 Eh/α   predicted    -0.9034694E-04 (  73.59%)
   displ. norm   :     0.1121470 α      lambda       -0.2106804E-04
   maximum displ.:     0.0502454 α      in ANC's #12, #1, #5, ...

........................................................................
.............................. CYCLE   27 ..............................
........................................................................
   1    -83.7119918 -0.837120E+02  0.197E-03    1.61       0.0  T
   2    -83.7119919 -0.934121E-07  0.964E-04    1.61      16.0  T
   3    -83.7119919 -0.975660E-08  0.546E-04    1.61      28.3  T
   4    -83.7119920 -0.505976E-08  0.239E-04    1.61      64.5  T
   5    -83.7119920 -0.145000E-08  0.486E-05    1.61     317.4  T
   6    -83.7119920 -0.358966E-10  0.166E-05    1.61     931.0  T
     SCC iter.                  ...        0 min,  0.021 sec
     gradient                   ...        0 min,  0.083 sec
 * total energy  :   -82.9342686 Eh     change       -0.2775642E-04 Eh
   gradient norm :     0.0019595 Eh/α   predicted    -0.1059357E-04 ( -61.83%)
   displ. norm   :     0.3631293 α      lambda       -0.6494466E-04
   maximum displ.:     0.1570847 α      in ANC's #12, #1, #10, ...

........................................................................
.............................. CYCLE   28 ..............................
........................................................................
   1    -83.7097950 -0.837098E+02  0.829E-03    1.61       0.0  T
   2    -83.7097956 -0.586880E-06  0.422E-03    1.61       3.7  T
   3    -83.7097956  0.271022E-07  0.187E-03    1.61       8.2  T
   4    -83.7097956 -0.643116E-07  0.704E-04    1.61      21.9  T
   5    -83.7097956 -0.191227E-07  0.188E-04    1.61      82.0  T
   6    -83.7097956 -0.650360E-09  0.512E-05    1.61     301.5  T
     SCC iter.                  ...        0 min,  0.022 sec
     gradient                   ...        0 min,  0.082 sec
 * total energy  :   -82.9342642 Eh     change        0.4415402E-05 Eh
   gradient norm :     0.0083884 Eh/α   predicted    -0.3438823E-04 (-878.82%)
   displ. norm   :     0.1105458 α      lambda       -0.9946025E-04
   maximum displ.:     0.0536084 α      in ANC's #12, #5, #1, ...

........................................................................
.............................. CYCLE   29 ..............................
........................................................................
   1    -83.7114860 -0.837115E+02  0.559E-03    1.61       0.0  T
   2    -83.7114862 -0.180525E-06  0.293E-03    1.61       5.3  T
   3    -83.7114862  0.120072E-08  0.953E-04    1.61      16.2  T
   4    -83.7114862 -0.990768E-08  0.302E-04    1.61      51.2  T
   5    -83.7114862 -0.240377E-08  0.117E-04    1.61     131.4  T
   6    -83.7114862 -0.513893E-09  0.282E-05    1.61     547.1  T
     SCC iter.                  ...        0 min,  0.022 sec
     gradient                   ...        0 min,  0.082 sec
 * total energy  :   -82.9343235 Eh     change       -0.5930700E-04 Eh
   gradient norm :     0.0037915 Eh/α   predicted    -0.5033791E-04 ( -15.12%)
   displ. norm   :     0.0362586 α      lambda       -0.2998534E-04
   maximum displ.:     0.0166978 α      in ANC's #1, #10, #5, ...

........................................................................
.............................. CYCLE   30 ..............................
........................................................................
   1    -83.7121189 -0.837121E+02  0.232E-03    1.61       0.0  T
   2    -83.7121189 -0.520983E-07  0.122E-03    1.61      12.6  T
   3    -83.7121189  0.191838E-08  0.611E-04    1.61      25.2  T
   4    -83.7121189 -0.698863E-08  0.216E-04    1.61      71.6  T
   5    -83.7121189 -0.181434E-08  0.531E-05    1.61     290.4  T
   6    -83.7121189 -0.591172E-10  0.131E-05    1.61    1181.1  T
     SCC iter.                  ...        0 min,  0.021 sec
     gradient                   ...        0 min,  0.082 sec
 * total energy  :   -82.9343474 Eh     change       -0.2392942E-04 Eh
   gradient norm :     0.0021275 Eh/α   predicted    -0.1501389E-04 ( -37.26%)
   displ. norm   :     0.1301025 α      lambda       -0.4960513E-04
   maximum displ.:     0.0651485 α      in ANC's #1, #10, #3, ...

........................................................................
.............................. CYCLE   31 ..............................
........................................................................
   1    -83.7126997 -0.837127E+02  0.287E-03    1.61       0.0  T
   2    -83.7126998 -0.165417E-06  0.149E-03    1.61      10.4  T
   3    -83.7126999 -0.149432E-07  0.858E-04    1.61      18.0  T
   4    -83.7126999 -0.102808E-07  0.343E-04    1.61      44.9  T
   5    -83.7126999 -0.363148E-08  0.732E-05    1.61     210.9  T
   6    -83.7126999 -0.102617E-09  0.218E-05    1.61     708.9  T
     SCC iter.                  ...        0 min,  0.021 sec
     gradient                   ...        0 min,  0.082 sec
 * total energy  :   -82.9343852 Eh     change       -0.3773453E-04 Eh
   gradient norm :     0.0012500 Eh/α   predicted    -0.2522628E-04 ( -33.15%)
   displ. norm   :     0.4730183 α      lambda       -0.7646951E-04
   maximum displ.:     0.2313757 α      in ANC's #1, #10, #12, ...

........................................................................
.............................. CYCLE   32 ..............................
........................................................................
   1    -83.7100760 -0.837101E+02  0.784E-03    1.61       0.0  T
   2    -83.7100768 -0.800268E-06  0.394E-03    1.61       3.9  T
   3    -83.7100768 -0.591513E-08  0.182E-03    1.61       8.5  T
   4    -83.7100768 -0.222982E-07  0.720E-04    1.61      21.4  T
   5    -83.7100768 -0.239487E-07  0.180E-04    1.61      85.5  T
   6    -83.7100768 -0.758703E-09  0.500E-05    1.61     308.8  T
     SCC iter.                  ...        0 min,  0.021 sec
     gradient                   ...        0 min,  0.082 sec
 * total energy  :   -82.9344053 Eh     change       -0.2011144E-04 Eh
   gradient norm :     0.0061846 Eh/α   predicted    -0.4205334E-04 ( 109.10%)
   displ. norm   :     0.1437050 α      lambda       -0.8301657E-04
   maximum displ.:     0.0643277 α      in ANC's #1, #10, #12, ...

........................................................................
.............................. CYCLE   33 ..............................
........................................................................
   1    -83.7120214 -0.837120E+02  0.530E-03    1.62       0.0  T
   2    -83.7120216 -0.193180E-06  0.288E-03    1.61       5.3  T
   3    -83.7120215  0.406363E-07  0.146E-03    1.61      10.5  T
   4    -83.7120216 -0.744065E-07  0.416E-04    1.61      37.1  T
   5    -83.7120216 -0.476342E-08  0.110E-04    1.61     140.5  T
   6    -83.7120216 -0.184386E-09  0.264E-05    1.61     584.7  T
     SCC iter.                  ...        0 min,  0.021 sec
     gradient                   ...        0 min,  0.082 sec
 * total energy  :   -82.9344439 Eh     change       -0.3859522E-04 Eh
   gradient norm :     0.0014715 Eh/α   predicted    -0.4235315E-04 (   9.74%)
   displ. norm   :     0.0611145 α      lambda       -0.1142473E-04
   maximum displ.:     0.0323006 α      in ANC's #1, #12, #10, ...

........................................................................
.............................. CYCLE   34 ..............................
........................................................................
   1    -83.7122542 -0.837123E+02  0.149E-03    1.62       0.0  T
   2    -83.7122542 -0.726208E-07  0.689E-04    1.61      22.4  T
   3    -83.7122542 -0.647411E-08  0.343E-04    1.61      45.0  T
   4    -83.7122542 -0.290754E-09  0.194E-04    1.61      79.6  T
   5    -83.7122542 -0.876739E-09  0.458E-05    1.61     336.7  T
     SCC iter.                  ...        0 min,  0.017 sec
     gradient                   ...        0 min,  0.082 sec
 * total energy  :   -82.9344584 Eh     change       -0.1453191E-04 Eh
   gradient norm :     0.0010421 Eh/α   predicted    -0.5724991E-05 ( -60.60%)
   displ. norm   :     0.2428395 α      lambda       -0.3059835E-04
   maximum displ.:     0.1264164 α      in ANC's #1, #12, #10, ...

........................................................................
.............................. CYCLE   35 ..............................
........................................................................
   1    -83.7117082 -0.837117E+02  0.404E-03    1.61       0.0  T
   2    -83.7117087 -0.469943E-06  0.157E-03    1.61       9.8  T
   3    -83.7117087 -0.242022E-07  0.896E-04    1.61      17.2  T
   4    -83.7117087 -0.355841E-08  0.395E-04    1.61      39.1  T
   5    -83.7117087 -0.456812E-08  0.121E-04    1.61     127.3  T
   6    -83.7117087 -0.447926E-09  0.300E-05    1.61     514.1  T
     SCC iter.                  ...        0 min,  0.020 sec
     gradient                   ...        0 min,  0.082 sec
 * total energy  :   -82.9344814 Eh     change       -0.2303674E-04 Eh
   gradient norm :     0.0025476 Eh/α   predicted    -0.1573887E-04 ( -31.68%)
   displ. norm   :     0.0308591 α      lambda       -0.1143425E-04
   maximum displ.:     0.0125902 α      in ANC's #7, #3, #8, ...

........................................................................
.............................. CYCLE   36 ..............................
........................................................................
   1    -83.7121570 -0.837122E+02  0.161E-03    1.61       0.0  T
   2    -83.7121570 -0.165051E-07  0.867E-04    1.61      17.8  T
   3    -83.7121570  0.436604E-08  0.531E-04    1.61      29.1  T
   4    -83.7121571 -0.101655E-07  0.104E-04    1.61     147.9  T
   5    -83.7121571 -0.166352E-09  0.292E-05    1.61     529.0  T
     SCC iter.                  ...        0 min,  0.017 sec
     gradient                   ...        0 min,  0.082 sec
 * total energy  :   -82.9344899 Eh     change       -0.8438263E-05 Eh
   gradient norm :     0.0015011 Eh/α   predicted    -0.5715252E-05 ( -32.27%)
   displ. norm   :     0.1572875 α      lambda       -0.1452980E-04
   maximum displ.:     0.0739154 α      in ANC's #1, #8, #2, ...

........................................................................
.............................. CYCLE   37 ..............................
........................................................................
   1    -83.7124659 -0.837125E+02  0.179E-03    1.61       0.0  T
   2    -83.7124660 -0.458203E-07  0.841E-04    1.61      18.3  T
   3    -83.7124660 -0.236010E-08  0.523E-04    1.61      29.5  T
   4    -83.7124660 -0.466882E-08  0.183E-04    1.61      84.1  T
   5    -83.7124660 -0.103553E-08  0.414E-05    1.61     372.4  T
     SCC iter.                  ...        0 min,  0.017 sec
     gradient                   ...        0 min,  0.082 sec
 * total energy  :   -82.9345052 Eh     change       -0.1534612E-04 Eh
   gradient norm :     0.0010948 Eh/α   predicted    -0.7296286E-05 ( -52.46%)
   displ. norm   :     0.3325441 α      lambda       -0.2211545E-04
   maximum displ.:     0.1597991 α      in ANC's #1, #8, #2, ...

........................................................................
.............................. CYCLE   38 ..............................
........................................................................
   1    -83.7110758 -0.837111E+02  0.454E-03    1.61       0.0  T
   2    -83.7110760 -0.132540E-06  0.232E-03    1.61       6.7  T
   3    -83.7110760  0.126054E-07  0.114E-03    1.61      13.6  T
   4    -83.7110760 -0.299755E-07  0.375E-04    1.61      41.2  T
   5    -83.7110760 -0.474519E-08  0.107E-04    1.61     144.2  T
   6    -83.7110760 -0.223707E-09  0.255E-05    1.61     604.4  T
     SCC iter.                  ...        0 min,  0.020 sec
     gradient                   ...        0 min,  0.082 sec
 * total energy  :   -82.9345158 Eh     change       -0.1062155E-04 Eh
   gradient norm :     0.0036203 Eh/α   predicted    -0.1136271E-04 (   6.98%)
   displ. norm   :     0.0590733 α      lambda       -0.2743690E-04
   maximum displ.:     0.0291532 α      in ANC's #1, #12, #4, ...

........................................................................
.............................. CYCLE   39 ..............................
........................................................................
   1    -83.7121369 -0.837121E+02  0.332E-03    1.61       0.0  T
   2    -83.7121370 -0.114402E-06  0.164E-03    1.61       9.4  T
   3    -83.7121370 -0.234499E-08  0.646E-04    1.61      23.9  T
   4    -83.7121370 -0.197920E-08  0.167E-04    1.61      92.3  T
   5    -83.7121370 -0.524906E-09  0.549E-05    1.61     280.9  T
     SCC iter.                  ...        0 min,  0.017 sec
     gradient                   ...        0 min,  0.082 sec
 * total energy  :   -82.9345321 Eh     change       -0.1628746E-04 Eh
   gradient norm :     0.0016864 Eh/α   predicted    -0.1412951E-04 ( -13.25%)
   displ. norm   :     0.1056477 α      lambda       -0.2317893E-04
   maximum displ.:     0.0608377 α      in ANC's #8, #7, #2, ...

........................................................................
.............................. CYCLE   40 ..............................
........................................................................
   1    -83.7125705 -0.837126E+02  0.283E-03    1.61       0.0  T
   2    -83.7125708 -0.276532E-06  0.125E-03    1.61      12.3  T
   3    -83.7125708 -0.163398E-07  0.610E-04    1.61      25.3  T
   4    -83.7125708 -0.793406E-09  0.336E-04    1.61      45.9  T
   5    -83.7125708 -0.291303E-08  0.790E-05    1.61     195.2  T
   6    -83.7125708 -0.215834E-09  0.238E-05    1.61     648.3  T
     SCC iter.                  ...        0 min,  0.020 sec
     gradient                   ...        0 min,  0.082 sec
 * total energy  :   -82.9345430 Eh     change       -0.1088519E-04 Eh
   gradient norm :     0.0011751 Eh/α   predicted    -0.5960380E-05 ( -45.24%)
   displ. norm   :     0.1313556 α      lambda       -0.2354552E-04
   maximum displ.:     0.0721313 α      in ANC's #8, #1, #7, ...

........................................................................
.............................. CYCLE   41 ..............................
........................................................................
   1    -83.7124738 -0.837125E+02  0.256E-03    1.61       0.0  T
   2    -83.7124741 -0.248977E-06  0.996E-04    1.61      15.5  T
   3    -83.7124741 -0.110107E-07  0.513E-04    1.61      30.1  T
   4    -83.7124741 -0.909651E-09  0.179E-04    1.61      86.2  T
   5    -83.7124741 -0.296581E-09  0.429E-05    1.61     359.3  T
     SCC iter.                  ...        0 min,  0.018 sec
     gradient                   ...        0 min,  0.080 sec
 * total energy  :   -82.9345498 Eh     change       -0.6814132E-05 Eh
   gradient norm :     0.0010036 Eh/α   predicted    -0.4022011E-05 ( -40.98%)
   displ. norm   :     0.0438040 α      lambda       -0.2376019E-04
   maximum displ.:     0.0222512 α      in ANC's #4, #24, #8, ...

........................................................................
.............................. CYCLE   42 ..............................
........................................................................
   1    -83.7129618 -0.837130E+02  0.242E-03    1.61       0.0  T
   2    -83.7129620 -0.217595E-06  0.940E-04    1.61      16.4  T
   3    -83.7129620 -0.172527E-07  0.511E-04    1.61      30.2  T
   4    -83.7129620 -0.789925E-09  0.253E-04    1.61      60.9  T
   5    -83.7129620 -0.151969E-08  0.849E-05    1.61     181.9  T
   6    -83.7129620 -0.216019E-09  0.193E-05    1.61     797.7  T
     SCC iter.                  ...        0 min,  0.020 sec
     gradient                   ...        0 min,  0.081 sec
 * total energy  :   -82.9345550 Eh     change       -0.5209108E-05 Eh
   gradient norm :     0.0010977 Eh/α   predicted    -0.3069866E-05 ( -41.07%)
   displ. norm   :     0.0333649 α      lambda       -0.1509745E-04
   maximum displ.:     0.0184699 α      in ANC's #4, #6, #24, ...
 * RMSD in coord.:     0.3109053 α      energy gain  -0.4564004E-03 Eh

generating ANC from model Hessian ...
Using Lindh-Hessian (1995)
 Shifting diagonal of input Hessian by   9.835209839631025E-003
 Lowest  eigenvalues of input Hessian
    0.000000    0.000000    0.000000    0.000000    0.000000    0.000000
    0.010000    0.010384    0.010581    0.010631    0.011278    0.011667
    0.012545    0.012793    0.015287    0.016318    0.017187    0.017389
 Highest eigenvalues
    2.029396    2.124336    2.182563    2.350540    2.379400    2.410505
 

........................................................................
.............................. CYCLE   43 ..............................
........................................................................
   1    -83.7129007 -0.837129E+02  0.746E-04    1.61       0.0  T
   2    -83.7129007 -0.158928E-07  0.437E-04    1.61      35.3  T
   3    -83.7129007 -0.500488E-08  0.202E-04    1.61      76.3  T
   4    -83.7129007 -0.153349E-09  0.113E-04    1.61     136.0  T
   5    -83.7129007 -0.260115E-09  0.193E-05    1.61     801.3  T
     SCC iter.                  ...        0 min,  0.014 sec
     gradient                   ...        0 min,  0.075 sec
 * total energy  :   -82.9345588 Eh     change       -0.3787930E-05 Eh
   gradient norm :     0.0009849 Eh/α   predicted     0.0000000E+00 (-100.00%)
   displ. norm   :     0.0151439 α      lambda       -0.1145775E-05
   maximum displ.:     0.0091620 α      in ANC's #6, #3, #4, ...

   *** GEOMETRY OPTIMIZATION CONVERGED AFTER 43 ITERATIONS ***

------------------------------------------------------------------------
 total energy gain   :        -0.0231708 Eh      -14.5399 kcal/mol
 total RMSD          :         0.8287950 a0        0.4386 Å
 total power (kW/mol):        -1.4147664 (step)   -9.2584 (real)
------------------------------------------------------------------------

 ANCopt (total)                0 d,  0 h,  0 min,  6.571 sec
 optimizer setup                ...        0 min,  0.001 sec (  0.012%)
 model hessian                  ...        0 min,  0.093 sec (  1.418%)
 ANC generation                 ...        0 min,  0.007 sec (  0.104%)
 coordinate transformation      ...        0 min,  0.001 sec (  0.017%)
 single point calculation       ...        0 min,  6.435 sec ( 97.927%)
 optimization log               ...        0 min,  0.023 sec (  0.351%)
 hessian update                 ...        0 min,  0.001 sec (  0.015%)
 rational function              ...        0 min,  0.006 sec (  0.097%)

================
 final structure:
================
42
 xtb: 6.5.1 (579679a)
C           -6.23270309445974        0.01083077716713        2.26724128317838
C           -5.71622895144241        0.05392717617772        0.88113410437162
N           -6.39964963693301        0.09508719658858       -0.21947471458251
N           -5.49472325179754        0.13220345259470       -1.24134610314531
C           -4.31671628870861        0.11098767354879       -0.69946262390927
C           -2.99715637763017        0.13416132797454       -1.39154247438462
O           -2.91746605744135        0.20320031927488       -2.61127407712235
N           -1.96573585093831        0.07408990104083       -0.54148415034486
C           -0.56418958423628        0.06985175767956       -0.94510567581301
C           -0.27396014218768       -1.15960343661167       -1.81715521572500
C           -0.22497317017209        1.36413865377908       -1.69695271686741
C            0.27824649751612       -0.00692138922077        0.32092101282892
N            1.58338923878180        0.02656371492718        0.13195640411080
C            2.36614546855900       -0.04318342099018        1.25409403106522
C            3.77627981554369        0.03477127837224        1.13312097215936
O            4.64403388689582        0.02581625806449        1.95285108760907
O            4.25730996408665        0.24142623458896       -0.31093573653872
C            5.62030316487469        0.73611268279686       -0.35315886958547
C            4.01997465055532       -0.88798091895456       -1.19431871299679
C            1.80017512508823       -0.15079334020978        2.52241630106246
O            2.49822198217904       -0.22885797662357        3.64995308941359
C            0.31995307162222       -0.17350804968789        2.65140416622635
O           -0.22967052609287       -0.25935179249477        3.74846667780002
N           -0.36132060142479       -0.09467671639241        1.47747575771926
O           -4.39330747617186        0.06084210746127        0.64838024402363
H           -7.31758529313326       -0.05859021345620        2.25028576109874
H           -5.81908354926865       -0.84911086209781        2.79339081223074
H           -5.93386029189247        0.91182915287129        2.80406769492475
H           -2.12658155639651        0.00521564288044        0.46008821545524
H           -0.55187475488433       -2.06942709227884       -1.28650051768533
H            0.79088911361358       -1.19238277462638       -2.03906091417616
H           -0.82958703406602       -1.10427769151359       -2.75209772255470
H            0.84755792641998        1.39407007761063       -1.88060811861229
H           -0.75229295701090        1.40266211253239       -2.64892419202727
H           -0.50505506172152        2.22874834143939       -1.09615406161113
H            5.82839784503806        0.99376875491581       -1.38808658331337
H            6.30401715564436       -0.03187256363995        0.00835815431202
H            5.65565729985491        1.61819914148926        0.28223152613635
H            4.61066703249433       -1.74338745697266       -0.86740018572188
H            4.30948851529579       -0.57134228537830       -2.19363658014242
H            2.95147785483222       -1.09387432026707       -1.15190717830825
H            3.46153689911579       -0.20936243435607        3.51504082944832
 
 Bond Distances (Angstroems)
 ---------------------------
C1-C2=1.4798         C1-H26=1.0872        C1-H27=1.0897        C1-H28=1.0905        C2-C1=1.4798         C2-N3=1.2962         
C2-O25=1.3433        N3-C2=1.2962         N3-N4=1.3655         N4-N3=1.3655         N4-C5=1.2968         C5-N4=1.2968         
C5-C6=1.4902         C5-O25=1.3509        C6-C5=1.4902         C6-O7=1.2243         C6-N8=1.3379         O7-C6=1.2243         
N8-C6=1.3379         N8-C9=1.4585         N8-H29=1.0167        C9-N8=1.4585         C9-C10=1.5350        C9-C11=1.5348        
C9-C12=1.5226        C10-C9=1.5350        C10-H30=1.0893       C10-H31=1.0882       C10-H32=1.0890       C11-C9=1.5348        
C11-H33=1.0886       C11-H34=1.0889       C11-H35=1.0895       C12-C9=1.5226        C12-N13=1.3192       C12-N24=1.3245       
N13-C12=1.3192       N13-C14=1.3700       C14-N13=1.3700       C14-C15=1.4175       C14-C20=1.3930       C15-C14=1.4175       
C15-O16=1.1937       C15-O17=1.5360       O16-C15=1.1937       O17-C15=1.5360       O17-C18=1.4506       O17-C19=1.4534       
C18-O17=1.4506       C18-H36=1.0866       C18-H37=1.0899       C18-H38=1.0877       C19-O17=1.4534       C19-H39=1.0897       
C19-H40=1.0875       C19-H41=1.0890       C20-C14=1.3930       C20-O21=1.3284       C20-C22=1.4860       O21-C20=1.3284       
O21-H42=0.9729       C22-C20=1.4860       C22-O23=1.2300       C22-N24=1.3596       O23-C22=1.2300       N24-C12=1.3245       
N24-C22=1.3596       O25-C2=1.3433        O25-C5=1.3509        H26-C1=1.0872        H27-C1=1.0897        H28-C1=1.0905        
H29-N8=1.0167        H30-C10=1.0893       H31-C10=1.0882       H32-C10=1.0890       H33-C11=1.0886       H34-C11=1.0889       
H35-C11=1.0895       H36-C18=1.0866       H37-C18=1.0899       H38-C18=1.0877       H39-C19=1.0897       H40-C19=1.0875       
H41-C19=1.0890       H42-O21=0.9729       
 C  H  Rav=1.0888 sigma=0.0011  Rmin=1.0866  Rmax=1.0905    15
 C  C  Rav=1.4824 sigma=0.0493  Rmin=1.3930  Rmax=1.5350     8
 N  H  Rav=1.0167 sigma=0.0000  Rmin=1.0167  Rmax=1.0167     1
 N  C  Rav=1.3453 sigma=0.0494  Rmin=1.2962  Rmax=1.4585     8
 N  N  Rav=1.3655 sigma=0.0000  Rmin=1.3655  Rmax=1.3655     1
 O  H  Rav=0.9729 sigma=0.0000  Rmin=0.9729  Rmax=0.9729     1
 O  C  Rav=1.3456 sigma=0.1107  Rmin=1.1937  Rmax=1.5360     9
 
 selected bond angles (degree)
 --------------------
H26-C1-C2=109.60               H27-C1-C2=110.05               H27-C1-H26=109.63              H28-C1-C2=109.96               
H28-C1-H26=109.50              H28-C1-H27=108.08              N3-C2-C1=127.75                O25-C2-C1=120.41               
O25-C2-N3=111.84               N4-N3-C2=106.67                C5-N4-N3=106.79                C6-C5-N4=127.59                
O25-C5-N4=111.47               O25-C5-C6=120.94               O7-C6-C5=121.41                N8-C6-C5=112.76                
N8-C6-O7=125.83                C9-N8-C6=124.41                H29-N8-C6=120.46               H29-N8-C9=115.11               
C10-C9-N8=109.95               C11-C9-N8=110.21               C11-C9-C10=110.81              C12-C9-N8=107.56               
C12-C9-C10=109.11              C12-C9-C11=109.12              H30-C10-C9=110.12              H31-C10-C9=108.96              
H31-C10-H30=108.89             H32-C10-C9=110.52              H32-C10-H30=109.30             H32-C10-H31=109.01             
 
 selected dihedral angles (degree)
 ---------------------------------
N3-C2-C1-H26=  4.30           N3-C2-C1-H27=124.93           N3-C2-C1-H28=243.88           O25-C2-C1-H26=183.93          
O25-C2-C1-H27=304.56          O25-C2-C1-H28= 63.50          N4-N3-C2-C1=179.62            N4-N3-C2-O25=359.97           
C5-N4-N3-C2=  0.00            C6-C5-N4-N3=179.94            O25-C5-N4-N3=  0.00           O7-C6-C5-N4=  1.37            
O7-C6-C5-O25=181.30           N8-C6-C5-N4=181.30            N8-C6-C5-O25=  1.22           C9-N8-C6-C5=179.51            
C9-N8-C6-O7=359.43            H29-N8-C6-C5=  0.95           H29-N8-C6-O7=180.86           C10-C9-N8-C6=298.67           
C10-C9-N8-H29=117.31          C11-C9-N8-C6= 61.12           C11-C9-N8-H29=239.75          C12-C9-N8-C6=179.97           
C12-C9-N8-H29=358.61          H30-C10-C9-N8=304.11          H30-C10-C9-C11=182.02         H30-C10-C9-C12= 61.85         
H31-C10-C9-N8=184.73          H31-C10-C9-C11= 62.64         H31-C10-C9-C12=302.47         H32-C10-C9-N8= 64.97          
H32-C10-C9-C11=302.88         H32-C10-C9-C12=182.71         
           -------------------------------------------------
          |                Final Singlepoint                |
           -------------------------------------------------

          ...................................................
          :                      SETUP                      :
          :.................................................:
          :  # basis functions                 134          :
          :  # atomic orbitals                 134          :
          :  # shells                           84          :
          :  # electrons                       134          :
          :  # halogen bonds                     0          :
          :  max. iterations                   250          :
          :  Hamiltonian                  GFN1-xTB          :
          :  restarted?                      false          :
          :  GBSA solvation                   true          :
          :  PC potential                    false          :
          :  electronic temp.          300.0000000     K    :
          :  accuracy                    1.0000000          :
          :  -> integral cutoff          0.2500000E+02      :
          :  -> integral neglect         0.1000000E-07      :
          :  -> SCF convergence          0.1000000E-05 Eh   :
          :  -> wf. convergence          0.2000000E-04 e    :
          :  Broyden damping             0.4000000          :
          ...................................................

 iter      E             dE          RMSdq      gap      omega  full diag
   1    -83.7129007 -0.837129E+02  0.495E-06    1.61       0.0  T
   2    -83.7129007 -0.738964E-12  0.237E-06    1.61    6513.6  T
   3    -83.7129007  0.241585E-12  0.122E-06    1.61   12694.8  T

   *** convergence criteria satisfied after 3 iterations ***

         #    Occupation            Energy/Eh            Energy/eV
      -------------------------------------------------------------
         1        2.0000           -0.9046800             -24.6176
       ...           ...                  ...                  ...
        61        2.0000           -0.4567712             -12.4294
        62        2.0000           -0.4526143             -12.3163
        63        2.0000           -0.4453524             -12.1187
        64        2.0000           -0.4356420             -11.8544
        65        2.0000           -0.4308857             -11.7250
        66        2.0000           -0.4021594             -10.9433
        67        2.0000           -0.4018334             -10.9344 (HOMO)
        68                         -0.3425937              -9.3224 (LUMO)
        69                         -0.3016908              -8.2094
        70                         -0.2578072              -7.0153
        71                         -0.2526936              -6.8761
        72                         -0.2332576              -6.3473
       ...                                ...                  ...
       134                          0.7479683              20.3533
      -------------------------------------------------------------
                  HL-Gap            0.0592397 Eh            1.6120 eV
             Fermi-level           -0.3718679 Eh          -10.1190 eV

 SCC (total)                   0 d,  0 h,  0 min,  0.126 sec
 SCC setup                      ...        0 min,  0.002 sec (  1.386%)
 Dispersion                     ...        0 min,  0.000 sec (  0.277%)
 classical contributions        ...        0 min,  0.000 sec (  0.094%)
 integral evaluation            ...        0 min,  0.033 sec ( 26.016%)
 iterations                     ...        0 min,  0.011 sec (  9.052%)
 molecular gradient             ...        0 min,  0.079 sec ( 62.608%)
 printout                       ...        0 min,  0.001 sec (  0.537%)

         :::::::::::::::::::::::::::::::::::::::::::::::::::::
         ::                     SUMMARY                     ::
         :::::::::::::::::::::::::::::::::::::::::::::::::::::
         :: total energy             -82.934558827573 Eh    ::
         :: total w/o Gsasa/hb       -82.911479180060 Eh    ::
         :: gradient norm              0.000985338420 Eh/a0 ::
         :: HOMO-LUMO gap              1.611993614821 eV    ::
         ::.................................................::
         :: SCC energy               -83.712900733732 Eh    ::
         :: -> electrostatic           0.385733464518 Eh    ::
         :: -> Gsolv                  -0.077435559865 Eh    ::
         ::    -> Gelec               -0.054355912352 Eh    ::
         ::    -> Gsasa               -0.024635772547 Eh    ::
         ::    -> Ghb                 -0.006068153971 Eh    ::
         ::    -> Gshift               0.007624279005 Eh    ::
         :: repulsion energy           0.804423683293 Eh    ::
         :: dispersion energy         -0.026081777134 Eh    ::
         :: halogen bond corr.         0.000000000000 Eh    ::
         :: add. restraining           0.000000000000 Eh    ::
         :: total charge               0.000000000000 e     ::
         :::::::::::::::::::::::::::::::::::::::::::::::::::::

           -------------------------------------------------
          |                Property Printout                |
           -------------------------------------------------

    * Orbital Energies and Occupations

         #    Occupation            Energy/Eh            Energy/eV
      -------------------------------------------------------------
         1        2.0000           -0.9046800             -24.6176
       ...           ...                  ...                  ...
        55        2.0000           -0.4997558             -13.5990
        56        2.0000           -0.4911687             -13.3654
        57        2.0000           -0.4891864             -13.3114
        58        2.0000           -0.4745516             -12.9132
        59        2.0000           -0.4631478             -12.6029
        60        2.0000           -0.4579328             -12.4610
        61        2.0000           -0.4567712             -12.4294
        62        2.0000           -0.4526143             -12.3163
        63        2.0000           -0.4453524             -12.1187
        64        2.0000           -0.4356420             -11.8544
        65        2.0000           -0.4308857             -11.7250
        66        2.0000           -0.4021594             -10.9433
        67        2.0000           -0.4018334             -10.9344 (HOMO)
        68                         -0.3425937              -9.3224 (LUMO)
        69                         -0.3016908              -8.2094
        70                         -0.2578072              -7.0153
        71                         -0.2526936              -6.8761
        72                         -0.2332576              -6.3473
        73                         -0.1900246              -5.1708
        74                         -0.1685907              -4.5876
        75                         -0.1591729              -4.3313
        76                         -0.1416605              -3.8548
        77                         -0.1410123              -3.8371
        78                         -0.1293101              -3.5187
       ...                                ...                  ...
       134                          0.7479683              20.3533
      -------------------------------------------------------------
                  HL-Gap            0.0592397 Eh            1.6120 eV
             Fermi-level           -0.3718679 Eh          -10.1190 eV

  Mulliken/CM5 charges         n(s)   n(p)   n(d)
     1C    -0.11033 -0.24767   1.011  3.099  0.000
     2C     0.38900  0.49777   1.006  2.605  0.000
     3N    -0.27462 -0.38238   1.566  3.709  0.000
     4N    -0.23161 -0.33540   1.568  3.664  0.000
     5C     0.33078  0.45664   1.012  2.657  0.000
     6C     0.46225  0.57282   0.973  2.564  0.000
     7O    -0.59375 -0.63762   1.729  4.865  0.000
     8N    -0.32874 -0.67810   1.431  3.898  0.000
     9C     0.15303  0.19564   1.062  2.785  0.000
    10C    -0.09962 -0.23856   1.018  3.082  0.000
    11C    -0.09925 -0.23785   1.017  3.082  0.000
    12C     0.29680  0.45311   1.018  2.685  0.000
    13N    -0.44002 -0.63250   1.541  3.899  0.000
    14C     0.05911  0.13386   1.023  2.917  0.000
    15C     0.53963  0.59433   1.030  2.430  0.000
    16O    -0.49051 -0.55360   1.720  4.770  0.000
    17O    -0.27393 -0.39675   1.684  4.590  0.000
    18C     0.14524  0.02047   1.004  2.851  0.000
    19C     0.14175  0.01732   1.008  2.850  0.000
    20C     0.25017  0.28488   1.051  2.699  0.000
    21O    -0.48970 -0.68311   1.688  4.801  0.000
    22C     0.45634  0.56588   0.979  2.565  0.000
    23O    -0.61814 -0.65203   1.735  4.884  0.000
    24N    -0.45949 -0.64166   1.534  3.926  0.000
    25O    -0.35677 -0.41307   1.696  4.660  0.000
    26H     0.06684  0.12266   0.933  0.000  0.000
    27H     0.07705  0.13164   0.923  0.000  0.000
    28H     0.07738  0.13171   0.923  0.000  0.000
    29H     0.25422  0.46946   0.746  0.000  0.000
    30H     0.04025  0.09704   0.960  0.000  0.000
    31H     0.03505  0.09275   0.965  0.000  0.000
    32H     0.05265  0.11209   0.947  0.000  0.000
    33H     0.03712  0.09539   0.963  0.000  0.000
    34H     0.05039  0.10964   0.950  0.000  0.000
    35H     0.03862  0.09548   0.961  0.000  0.000
    36H     0.08481  0.14581   0.915  0.000  0.000
    37H     0.08215  0.14502   0.918  0.000  0.000
    38H     0.09363  0.15791   0.906  0.000  0.000
    39H     0.07693  0.13732   0.923  0.000  0.000
    40H     0.08604  0.14700   0.914  0.000  0.000
    41H     0.08360  0.15571   0.916  0.000  0.000
    42H     0.40565  0.59095   0.594  0.000  0.000

Wiberg/Mayer (AO) data.
largest (>0.10) Wiberg bond orders for each atom

 ---------------------------------------------------------------------------
     #   Z sym  total        # sym  WBO       # sym  WBO       # sym  WBO
 ---------------------------------------------------------------------------
     1   6 C    3.987 --     2 C    1.030    26 H    0.983    27 H    0.966
                            28 H    0.962
     2   6 C    3.871 --     3 N    1.616    25 O    1.073     1 C    1.030
     3   7 N    2.980 --     2 C    1.616     4 N    1.192
     4   7 N    2.996 --     5 C    1.627     3 N    1.192
     5   6 C    3.869 --     4 N    1.627    25 O    1.049     6 C    0.985
     6   6 C    3.923 --     7 O    1.561     8 N    1.296     5 C    0.985
     7   8 O    1.882 --     6 C    1.561     8 N    0.185
     8   7 N    3.381 --     6 C    1.296     9 C    0.930    29 H    0.871
                             7 O    0.185
     9   6 C    3.936 --    11 C    0.982    10 C    0.981    12 C    0.975
                             8 N    0.930
    10   6 C    3.991 --    30 H    0.986    31 H    0.982    32 H    0.981
                             9 C    0.981
    11   6 C    3.991 --    35 H    0.986    33 H    0.985     9 C    0.982
                            34 H    0.982
    12   6 C    3.952 --    13 N    1.442    24 N    1.380     9 C    0.975
    13   7 N    3.010 --    12 C    1.442    14 C    1.175
    14   6 C    3.957 --    20 C    1.353    15 C    1.185    13 N    1.175
    15   6 C    3.796 --    16 O    1.729    14 C    1.185    17 O    0.700
    16   8 O    2.065 --    15 C    1.729
    17   8 O    2.480 --    18 C    0.834    19 C    0.823    15 C    0.700
    18   6 C    3.806 --    37 H    0.980    36 H    0.978    38 H    0.976
                            17 O    0.834
    19   6 C    3.797 --    39 H    0.982    40 H    0.978    41 H    0.962
                            17 O    0.823
    20   6 C    3.887 --    14 C    1.353    21 O    1.144    22 C    1.026
    21   8 O    2.128 --    20 C    1.144    42 H    0.800
    22   6 C    3.929 --    23 O    1.548    24 N    1.224    20 C    1.026
    23   8 O    1.847 --    22 C    1.548    24 N    0.132
    24   7 N    3.023 --    12 C    1.380    22 C    1.224    23 O    0.132
    25   8 O    2.316 --     2 C    1.073     5 C    1.049
    26   1 H    0.999 --     1 C    0.983
    27   1 H    0.997 --     1 C    0.966
    28   1 H    0.997 --     1 C    0.962
    29   1 H    0.964 --     8 N    0.871
    30   1 H    1.003 --    10 C    0.986
    31   1 H    1.011 --    10 C    0.982
    32   1 H    1.010 --    10 C    0.981
    33   1 H    1.012 --    11 C    0.985
    34   1 H    1.011 --    11 C    0.982
    35   1 H    1.004 --    11 C    0.986
    36   1 H    0.997 --    18 C    0.978
    37   1 H    0.999 --    18 C    0.980
    38   1 H    0.999 --    18 C    0.976
    39   1 H    0.994 --    19 C    0.982
    40   1 H    0.997 --    19 C    0.978
    41   1 H    1.031 --    19 C    0.962
    42   1 H    0.849 --    21 O    0.800
 ---------------------------------------------------------------------------

Topologies differ in total number of bonds
Writing topology from bond orders to xtbtopo.mol

 dipole moment from electron density (au)
     X       Y       Z   
   7.9607  -0.2157  -1.0650  total (Debye):   20.422

           -------------------------------------------------
          |                Geometry Summary                 |
           -------------------------------------------------

      molecular mass/u    :      351.3152409
   center of mass at/Å    :       -0.3701073       0.0133752       0.3920211
  moments of inertia/u·Å² :        0.1128784E+04   0.4695645E+04   0.5658254E+04
rotational constants/cm⁻¹ :        0.1493433E-01   0.3590057E-02   0.2979300E-02

 * 39 selected distances

     #   Z          #   Z                                           value/Å
     1   6 C        2   6 C                                       1.4798298
     2   6 C        3   7 N                                       1.2961860
     4   7 N        5   6 C                                       1.2968379
     6   6 C        7   8 O                                       1.2242804
     6   6 C        8   7 N                                       1.3379224
     8   7 N        9   6 C                                       1.4585132
     9   6 C       10   6 C                                       1.5350127
     9   6 C       11   6 C                                       1.5347706
    12   6 C       13   7 N                                       1.3191766
    13   7 N       14   6 C                                       1.3699508
    14   6 C       15   6 C                                       1.4174592
    15   6 C       16   8 O                                       1.1937483
    15   6 C       17   8 O                                       1.5360327 (max)
    17   8 O       18   6 C                                       1.4506027
    17   8 O       19   6 C                                       1.4533597
    14   6 C       20   6 C                                       1.3930341
    20   6 C       21   8 O                                       1.3284213
    22   6 C       23   8 O                                       1.2300413
    12   6 C       24   7 N                                       1.3245249
    22   6 C       24   7 N                                       1.3595795
     2   6 C       25   8 O                                       1.3432586
     5   6 C       25   8 O                                       1.3509484
     1   6 C       26   1 H                                       1.0872334
     1   6 C       27   1 H                                       1.0896854
     1   6 C       28   1 H                                       1.0905448
     8   7 N       29   1 H                                       1.0167411
    10   6 C       30   1 H                                       1.0893164
    10   6 C       31   1 H                                       1.0882191
    10   6 C       32   1 H                                       1.0889903
    11   6 C       33   1 H                                       1.0885533
    11   6 C       34   1 H                                       1.0889445
    11   6 C       35   1 H                                       1.0894747
    18   6 C       36   1 H                                       1.0866304
    18   6 C       37   1 H                                       1.0899362
    18   6 C       38   1 H                                       1.0876799
    19   6 C       39   1 H                                       1.0897311
    19   6 C       40   1 H                                       1.0875269
    19   6 C       41   1 H                                       1.0889795
    21   8 O       42   1 H                                       0.9729117 (min)

 * 6 distinct bonds (by element types)

   Z      Z             #   av. dist./Å        max./Å        min./Å
   1 H    6 C          15     1.0887631     1.0905448     1.0866304
   6 C    6 C           5     1.4720213     1.5350127     1.3930341
   1 H    7 N           1     1.0167411     1.0167411     1.0167411
   6 C    7 N           8     1.3453364     1.4585132     1.2961860
   1 H    8 O           1     0.9729117     0.9729117     0.9729117
   6 C    8 O           9     1.3456326     1.5360327     1.1937483


optimized geometry written to: xtbopt.xyz


           -------------------------------------------------
          | TOTAL ENERGY              -82.934558827573 Eh   |
          | GRADIENT NORM               0.000985338420 Eh/α |
          | HOMO-LUMO GAP               1.611993614821 eV   |
           -------------------------------------------------

------------------------------------------------------------------------
 * finished run on 2023/06/20 at 18:28:27.243     
------------------------------------------------------------------------
 total:
 * wall-time:     0 d,  0 h,  0 min,  7.016 sec
 *  cpu-time:     0 d,  0 h,  0 min,  6.441 sec
 * ratio c/w:     0.918 speedup
 SCF:
 * wall-time:     0 d,  0 h,  0 min,  0.197 sec
 *  cpu-time:     0 d,  0 h,  0 min,  0.157 sec
 * ratio c/w:     0.800 speedup
 ANC optimizer:
 * wall-time:     0 d,  0 h,  0 min,  6.727 sec
 *  cpu-time:     0 d,  0 h,  0 min,  6.236 sec
 * ratio c/w:     0.927 speedup

