42
 energy: -83.000561369538 gnorm: 0.000924472213 xtb: 6.5.1 (579679a)
C           -2.79177360774092        2.50240916841240       -1.89681208915373
O           -2.59622390392584        1.17081241151530       -1.39139604306947
C           -3.61096269734820        0.62984671945205       -0.74420489476887
O           -4.67666662314883        1.15157234899179       -0.56375562548329
C           -3.27455931855629       -0.80664355606437       -0.25360760612267
C           -4.46679732431424       -1.35517334140996        0.53297960821635
N           -2.13128197158904       -0.68995895587576        0.62450871351249
C           -0.95865463606522       -0.93958110862141        0.21668097094496
C            0.20958356282123       -0.86303784442633        1.17842416259867
C            0.55922410028230       -2.30322442301292        1.58254325016093
C           -0.15421568114641       -0.01438706849996        2.39925275897737
N            1.32845114390654       -0.24553897867615        0.45906238190855
C            2.57306343153262       -0.13006879581810        0.98666315345573
O            2.96322185116626       -0.65393364258403        2.01177264903096
C            3.42819685824665        0.71901312883907        0.12008946199392
N            3.04017161649002        1.37612407850501       -0.93179192429031
N            4.13281450956754        2.03166251171072       -1.41061970375523
C            5.11969346045691        1.73311883012537       -0.61951645663595
C            6.52606980916391        2.18183158306694       -0.71984652707910
O            4.73654273694906        0.90964232029322        0.36657065151910
N           -0.65138655637212       -1.36081964294291       -1.07012263704479
C           -1.57961602241917       -1.67735553190679       -2.01635823250744
O           -1.28028801242450       -2.01899246740490       -3.13746740322627
C           -3.02740656395916       -1.61014119993173       -1.51662626583002
O           -3.91541406468851       -2.15441880036408       -2.11904180330392
H           -3.69569396524776        2.53747307903226       -2.50834873040547
H           -2.88438987392913        3.20168637155521       -1.06398401023687
H           -1.91471459091051        2.73668267405579       -2.49470988379170
H           -5.33749045211378       -1.41521948013868       -0.11785121341772
H           -4.68403868525638       -0.69342827865070        1.36841708914840
H           -4.22789692874982       -2.34632922484617        0.91178004711167
H            0.90248664330287       -2.86216316964885        0.71368931038987
H           -0.32869584877926       -2.78544115917050        1.98852538508347
H            1.33937776764452       -2.30542984824859        2.34038553487310
H            0.69090018778245        0.02774370455383        3.08401940689383
H           -0.41461893749530        0.99511637671179        2.08562517866284
H           -1.00849830087183       -0.45713775250138        2.90831331003383
H            1.10225368770601        0.38166290529237       -0.29937876112365
H            7.14459311084589        1.37496851904074       -1.11620898852428
H            6.59145261471006        3.03896349192933       -1.38610882365635
H            6.90476433311937        2.44683282479075        0.26638081288023
H            0.31842314136349       -1.45873877712726       -1.33108821396713
