      -----------------------------------------------------------      
     |                   =====================                   |     
     |                           x T B                           |     
     |                   =====================                   |     
     |                         S. Grimme                         |     
     |          Mulliken Center for Theoretical Chemistry        |     
     |                    University of Bonn                     |     
      -----------------------------------------------------------      

   * xtb version 6.5.1 (579679a) compiled by 'ehlert@majestix' on 2022-07-11

   xtb is free software: you can redistribute it and/or modify it under
   the terms of the GNU Lesser General Public License as published by
   the Free Software Foundation, either version 3 of the License, or
   (at your option) any later version.
   
   xtb is distributed in the hope that it will be useful,
   but WITHOUT ANY WARRANTY; without even the implied warranty of
   MERCHANTABILITY or FITNESS FOR A PARTICULAR PURPOSE.  See the
   GNU Lesser General Public License for more details.
   
   Cite this work as:
   * C. Bannwarth, E. Caldeweyher, S. Ehlert, A. Hansen, P. Pracht,
     J. Seibert, S. Spicher, S. Grimme, WIREs Comput. Mol. Sci., 2020, 11,
     e01493. DOI: 10.1002/wcms.1493
   
   for GFN2-xTB:
   * C. Bannwarth, S. Ehlert and S. Grimme., J. Chem. Theory Comput., 2019,
     15, 1652-1671. DOI: 10.1021/acs.jctc.8b01176
   for GFN1-xTB:
   * S. Grimme, C. Bannwarth, P. Shushkov, J. Chem. Theory Comput., 2017,
     13, 1989-2009. DOI: 10.1021/acs.jctc.7b00118
   for GFN0-xTB:
   * P. Pracht, E. Caldeweyher, S. Ehlert, S. Grimme, ChemRxiv, 2019, preprint.
     DOI: 10.26434/chemrxiv.8326202.v1
   for GFN-FF:
   * S. Spicher and S. Grimme, Angew. Chem. Int. Ed., 2020, 59, 15665-15673.
     DOI: 10.1002/anie.202004239
   
   for ALPB and GBSA implicit solvation:
   * S. Ehlert, M. Stahn, S. Spicher, S. Grimme, J. Chem. Theory Comput.,
     2021, 17, 4250-4261. DOI: 10.1021/acs.jctc.1c00471
   
   for DFT-D4:
   * E. Caldeweyher, C. Bannwarth and S. Grimme, J. Chem. Phys., 2017,
     147, 034112. DOI: 10.1063/1.4993215
   * E. Caldeweyher, S. Ehlert, A. Hansen, H. Neugebauer, S. Spicher,
     C. Bannwarth and S. Grimme, J. Chem. Phys., 2019, 150, 154122.
     DOI: 10.1063/1.5090222
   * E. Caldeweyher, J.-M. Mewes, S. Ehlert and S. Grimme, Phys. Chem. Chem. Phys.
     2020, 22, 8499-8512. DOI: 10.1039/D0CP00502A
   
   for sTDA-xTB:
   * S. Grimme and C. Bannwarth, J. Chem. Phys., 2016, 145, 054103.
     DOI: 10.1063/1.4959605
   
   in the mass-spec context:
   * V. Asgeirsson, C. Bauer and S. Grimme, Chem. Sci., 2017, 8, 4879.
     DOI: 10.1039/c7sc00601b
   * J. Koopman and S. Grimme, ACS Omega 2019, 4, 12, 15120-15133.
     DOI: 10.1021/acsomega.9b02011
   
   for metadynamics refer to:
   * S. Grimme, J. Chem. Theory Comput., 2019, 155, 2847-2862
     DOI: 10.1021/acs.jctc.9b00143
   
   for SPH calculations refer to:
   * S. Spicher and S. Grimme, J. Chem. Theory Comput., 2021, 17, 1701-1714
     DOI: 10.1021/acs.jctc.0c01306
   
   with help from (in alphabetical order)
   P. Atkinson, C. Bannwarth, F. Bohle, G. Brandenburg, E. Caldeweyher
   M. Checinski, S. Dohm, S. Ehlert, S. Ehrlich, I. Gerasimov, C. Hölzer
   A. Katbashev, J. Koopman, C. Lavigne, S. Lehtola, F. März, M. Müller,
   F. Musil, H. Neugebauer, J. Pisarek, C. Plett, P. Pracht, F. Pultar,
   J. Seibert, P. Shushkov, S. Spicher, M. Stahn, M. Steiner, T. Strunk,
   J. Stückrath, T. Rose, and J. Unsleber
   
 * started run on 2023/06/20 at 18:23:53.430     

           -------------------------------------------------
          |                Calculation Setup                |
           -------------------------------------------------

          program call               : /lustre/hpc/kemi/ree/PhD/git/ReactivityQM/dep/xtb-6.5.1/bin/xtb --gfn 1 /lustre/hpc/kemi/ree/PhD/git/ReactivityQM/calculations/R02deprot/reac01prodN15/conf12/R02deprot_reac01prodN15_conf12_gfn1.xyz --opt --vfukui --chrg 0 --uhf 0 --alpb DMSO
          hostname                   : node308
          coordinate file            : /lustre/hpc/kemi/ree/PhD/git/ReactivityQM/calculations/R02deprot/reac01prodN15/conf12/R02deprot_reac01prodN15_conf12_gfn1.xyz
          omp threads                :                     1

   ID    Z sym.   atoms
    1    6 C      1, 3, 5, 6, 8, 9, 12-15, 17, 19, 22, 23
    2    8 O      2, 4, 7, 10, 18, 24
    3    7 N      11, 16, 20, 21, 25
    4    1 H      26-42

           -------------------------------------------------
          |                 G F N 1 - x T B                 |
           -------------------------------------------------

        Reference                      10.1021/acs.jctc.7b00118
      * Hamiltonian:
        H0-scaling (s, p, d)           1.850000    2.250000    2.000000
        zeta-weighting                 0.000000
      * Dispersion:
        s8                             2.400000
        a1                             0.630000
        a2                             5.000000
        s9                             0.000000
      * Repulsion:
        kExp                           1.500000
        rExp                           1.000000
      * Coulomb:
        alpha                          2.000000
        third order                    atomic
        anisotropic                    false
      * Halogen bond correction:
        rad-scale                      1.300000
        damping                        0.440000

      * Solvation model:               ALPB
        Solvent                        DMSO
        Parameter file                 internal GFN1-xTB/ALPB
        Dielectric constant                4.6680E+01
        Reference state                gsolv [1 M gas/solution]
        Free energy shift                  7.6243E-03 Eh       4.7843E+00 kcal/mol
        Temperature                        2.9815E+02 K
        Density                            1.1000E+00 kg/L
        Solvent mass                       7.8130E+01 g/mol
        Interaction kernel             P16
        Born radius scaling (c1)           1.7672E+00
        Born radii integrator          GBOBC
        Born offset                        0.0000E+00 a0       0.0000E+00 AA
        H-bond correction              true
        Ion screening                  false
        Surface tension                    1.0000E-05 Eh       1.5569E+01 dyn/cm
        Grid points                               230 per atom

          ...................................................
          :                      SETUP                      :
          :.................................................:
          :  # basis functions                 134          :
          :  # atomic orbitals                 134          :
          :  # shells                           84          :
          :  # electrons                       134          :
          :  # halogen bonds                     0          :
          :  max. iterations                   250          :
          :  Hamiltonian                  GFN1-xTB          :
          :  restarted?                      false          :
          :  GBSA solvation                   true          :
          :  PC potential                    false          :
          :  electronic temp.          300.0000000     K    :
          :  accuracy                    1.0000000          :
          :  -> integral cutoff          0.2500000E+02      :
          :  -> integral neglect         0.1000000E-07      :
          :  -> SCF convergence          0.1000000E-05 Eh   :
          :  -> wf. convergence          0.2000000E-04 e    :
          :  Broyden damping             0.4000000          :
          ...................................................

 iter      E             dE          RMSdq      gap      omega  full diag
   1    -83.2252171 -0.832252E+02  0.840E+00    0.84       0.0  T
   2    -83.2489939 -0.237769E-01  0.550E+00    0.16       1.0  T
   3    -83.3601402 -0.111146E+00  0.328E+00    0.70       1.0  T
   4    -83.5113555 -0.151215E+00  0.145E+00    0.68       1.0  T
   5    -83.5562621 -0.449066E-01  0.835E-01    0.50       1.0  T
   6    -83.2269357  0.329326E+00  0.223E+00    0.24       1.0  T
   7    -83.5663971 -0.339461E+00  0.736E-01    0.44       1.0  T
   8    -83.5726722 -0.627513E-02  0.608E-01    0.33       1.0  T
   9    -83.5860016 -0.133294E-01  0.366E-01    0.15       1.0  T
  10    -83.5421219  0.438797E-01  0.838E-01    0.04       1.0  T
  11    -83.5930889 -0.509670E-01  0.169E-01    0.10       1.0  T
  12    -83.5947585 -0.166954E-02  0.731E-02    0.09       1.0  T
  13    -83.5927336  0.202488E-02  0.181E-01    0.06       1.0  T
  14    -83.5951481 -0.241455E-02  0.388E-03    0.08       4.0  T
  15    -83.5950159  0.132210E-03  0.426E-02    0.07       1.0  T
  16    -83.5951457 -0.129831E-03  0.677E-03    0.08       2.3  T
  17    -83.5951470 -0.124522E-05  0.541E-03    0.08       2.9  T
  18    -83.5951491 -0.210036E-05  0.871E-04    0.08      17.7  T
  19    -83.5951491 -0.543074E-07  0.189E-04    0.08      81.4  T
  20    -83.5951492 -0.155916E-08  0.116E-04    0.08     133.4  T

   *** convergence criteria satisfied after 20 iterations ***

         #    Occupation            Energy/Eh            Energy/eV
      -------------------------------------------------------------
         1        2.0000           -0.8642669             -23.5179
       ...           ...                  ...                  ...
        61        2.0000           -0.4677662             -12.7286
        62        2.0000           -0.4630143             -12.5993
        63        2.0000           -0.4561395             -12.4122
        64        2.0000           -0.4460646             -12.1380
        65        2.0000           -0.4426709             -12.0457
        66        1.9998           -0.4350251             -11.8376
        67        1.6463           -0.4278720             -11.6430 (HOMO)
        68        0.3539           -0.4249505             -11.5635 (LUMO)
        69                         -0.3386212              -9.2144
        70                         -0.3180355              -8.6542
        71                         -0.2853752              -7.7655
        72                         -0.2609981              -7.1021
       ...                                ...                  ...
       134                          0.6914889              18.8164
      -------------------------------------------------------------
                  HL-Gap            0.0029215 Eh            0.0795 eV
             Fermi-level           -0.4264108 Eh          -11.6032 eV

 SCC (total)                   0 d,  0 h,  0 min,  0.279 sec
 SCC setup                      ...        0 min,  0.002 sec (  0.813%)
 Dispersion                     ...        0 min,  0.000 sec (  0.157%)
 classical contributions        ...        0 min,  0.000 sec (  0.053%)
 integral evaluation            ...        0 min,  0.112 sec ( 40.172%)
 iterations                     ...        0 min,  0.082 sec ( 29.467%)
 molecular gradient             ...        0 min,  0.081 sec ( 28.960%)
 printout                       ...        0 min,  0.001 sec (  0.356%)

         :::::::::::::::::::::::::::::::::::::::::::::::::::::
         ::                     SUMMARY                     ::
         :::::::::::::::::::::::::::::::::::::::::::::::::::::
         :: total energy             -82.856493973087 Eh    ::
         :: total w/o Gsasa/hb       -82.834001656730 Eh    ::
         :: gradient norm              0.141177620968 Eh/a0 ::
         :: HOMO-LUMO gap              0.079498300332 eV    ::
         ::.................................................::
         :: SCC energy               -83.595149151431 Eh    ::
         :: -> electrostatic           0.360881134013 Eh    ::
         :: -> Gsolv                  -0.056012266435 Eh    ::
         ::    -> Gelec               -0.033519950079 Eh    ::
         ::    -> Gsasa               -0.024565054652 Eh    ::
         ::    -> Ghb                 -0.005551540709 Eh    ::
         ::    -> Gshift               0.007624279005 Eh    ::
         :: repulsion energy           0.763987679014 Eh    ::
         :: dispersion energy         -0.025332500670 Eh    ::
         :: halogen bond corr.         0.000000000000 Eh    ::
         :: add. restraining           0.000000000000 Eh    ::
         :: total charge               0.000000000017 e     ::
         :::::::::::::::::::::::::::::::::::::::::::::::::::::

      ----------------------------------------------------------- 
     |                   =====================                   |
     |                        A N C O P T                        |
     |                   =====================                   |
     |               Approximate Normal Coordinate               |
     |                Rational Function Optimizer                |
      ----------------------------------------------------------- 

          ...................................................
          :                      SETUP                      :
          :.................................................:
          :   optimization level            normal          :
          :   max. optcycles                   200          :
          :   ANC micro-cycles                  20          :
          :   degrees of freedom               120          :
          :.................................................:
          :   RF solver                   davidson          :
          :   write xtbopt.log                true          :
          :   linear?                        false          :
          :   energy convergence         0.5000000E-05 Eh   :
          :   grad. convergence          0.1000000E-02 Eh/α :
          :   maximium RF displ.         1.0000000          :
          :   Hlow (freq-cutoff)         0.1000000E-01      :
          :   Hmax (freq-cutoff)         5.0000000          :
          :   S6 in model hess.         20.0000000          :
          ...................................................

generating ANC from model Hessian ...
Using Lindh-Hessian (1995)
 Shifting diagonal of input Hessian by   9.846346689450223E-003
 Lowest  eigenvalues of input Hessian
    0.000000    0.000000    0.000000    0.000000    0.000000    0.000000
    0.010000    0.010195    0.010812    0.011092    0.011819    0.012193
    0.013311    0.014027    0.014784    0.014933    0.016599    0.017641
 Highest eigenvalues
    2.032082    2.035181    2.102907    2.154986    2.305496    2.356690
 

........................................................................
.............................. CYCLE    1 ..............................
........................................................................
   1    -83.5951492 -0.835951E+02  0.169E-06    0.08       0.0  T
   2    -83.5951492  0.500222E-11  0.824E-06    0.08    1872.9  T
   3    -83.5951492 -0.450484E-11  0.247E-06    0.08    6234.6  T
     SCC iter.                  ...        0 min,  0.013 sec
     gradient                   ...        0 min,  0.081 sec
 * total energy  :   -82.8564940 Eh     change       -0.9840875E-09 Eh
   gradient norm :     0.1411801 Eh/α   predicted     0.0000000E+00 (-100.00%)
   displ. norm   :     0.3476723 α      lambda       -0.2252711E-01
   maximum displ.:     0.1582984 α      in ANC's #26, #19, #27, ...

........................................................................
.............................. CYCLE    2 ..............................
........................................................................
   1    -83.6184376 -0.836184E+02  0.196E-01    0.28       0.0  T
   2    -83.5412171  0.772205E-01  0.103E+00    0.19       1.0  T
   3    -83.6204179 -0.792008E-01  0.133E-01    0.24       1.0  T
   4    -83.6210661 -0.648175E-03  0.597E-02    0.24       1.0  T
   5    -83.6213014 -0.235332E-03  0.133E-02    0.22       1.2  T
   6    -83.6212951  0.628839E-05  0.121E-02    0.22       1.3  T
   7    -83.6213011 -0.603857E-05  0.548E-03    0.22       2.8  T
   8    -83.6213032 -0.205904E-05  0.646E-04    0.22      23.9  T
   9    -83.6213032 -0.183979E-07  0.313E-04    0.22      49.3  T
  10    -83.6213032 -0.237620E-09  0.252E-04    0.22      61.2  T
  11    -83.6213032 -0.400421E-08  0.717E-05    0.22     215.2  T
  12    -83.6213032 -0.344627E-09  0.950E-06    0.22    1624.6  T
     SCC iter.                  ...        0 min,  0.055 sec
     gradient                   ...        0 min,  0.081 sec
 * total energy  :   -82.8756309 Eh     change       -0.1913692E-01 Eh
   gradient norm :     0.0928125 Eh/α   predicted    -0.1264186E-01 ( -33.94%)
   displ. norm   :     0.6838942 α      lambda       -0.3682887E-01
   maximum displ.:     0.2175581 α      in ANC's #19, #26, #20, ...

........................................................................
.............................. CYCLE    3 ..............................
........................................................................
   1    -83.6557781 -0.836558E+02  0.367E-01    0.93       0.0  T
   2    -83.6592239 -0.344581E-02  0.180E-01    0.92       1.0  T
   3    -83.6607744 -0.155046E-02  0.773E-02    0.91       1.0  T
   4    -83.6609265 -0.152170E-03  0.354E-02    0.92       1.0  T
   5    -83.6609212  0.535185E-05  0.143E-02    0.92       1.1  T
   6    -83.6609303 -0.908162E-05  0.172E-03    0.92       9.0  T
   7    -83.6609303 -0.568129E-07  0.526E-04    0.92      29.3  T
   8    -83.6609303 -0.374470E-08  0.226E-04    0.92      68.3  T
   9    -83.6609303 -0.553655E-09  0.706E-05    0.92     218.6  T
  10    -83.6609303 -0.760281E-10  0.173E-05    0.92     889.7  T
     SCC iter.                  ...        0 min,  0.042 sec
     gradient                   ...        0 min,  0.081 sec
 * total energy  :   -82.8928778 Eh     change       -0.1724686E-01 Eh
   gradient norm :     0.1072230 Eh/α   predicted    -0.2702710E-01 (  56.71%)
   displ. norm   :     0.3150286 α      lambda       -0.1187779E-01
   maximum displ.:     0.1548882 α      in ANC's #19, #20, #26, ...

........................................................................
.............................. CYCLE    4 ..............................
........................................................................
   1    -83.6631245 -0.836631E+02  0.169E-01    1.12       0.0  T
   2    -83.6637272 -0.602671E-03  0.142E-01    1.14       1.0  T
   3    -83.6648935 -0.116636E-02  0.138E-02    1.13       1.1  T
   4    -83.6648950 -0.148555E-05  0.779E-03    1.13       2.0  T
   5    -83.6648953 -0.324362E-06  0.295E-03    1.13       5.2  T
   6    -83.6648954 -0.852823E-07  0.603E-04    1.13      25.6  T
   7    -83.6648954 -0.827421E-08  0.178E-04    1.13      86.5  T
   8    -83.6648954 -0.263384E-09  0.551E-05    1.13     279.9  T
     SCC iter.                  ...        0 min,  0.035 sec
     gradient                   ...        0 min,  0.081 sec
 * total energy  :   -82.9034138 Eh     change       -0.1053602E-01 Eh
   gradient norm :     0.0804953 Eh/α   predicted    -0.6528295E-02 ( -38.04%)
   displ. norm   :     0.6751768 α      lambda       -0.3028203E-01
   maximum displ.:     0.2297516 α      in ANC's #19, #45, #20, ...

........................................................................
.............................. CYCLE    5 ..............................
........................................................................
   1    -83.6805016 -0.836805E+02  0.418E-01    1.88       0.0  T
   2    -83.6882660 -0.776443E-02  0.118E-01    1.88       1.0  T
   3    -83.6888036 -0.537620E-03  0.461E-02    1.89       1.0  T
   4    -83.6888177 -0.140245E-04  0.237E-02    1.89       1.0  T
   5    -83.6888179 -0.212249E-06  0.596E-03    1.88       2.6  T
   6    -83.6888184 -0.543262E-06  0.143E-03    1.88      10.8  T
   7    -83.6888185 -0.351025E-07  0.501E-04    1.88      30.8  T
   8    -83.6888185 -0.246040E-08  0.180E-04    1.88      85.8  T
   9    -83.6888185 -0.194902E-09  0.341E-05    1.88     452.3  T
     SCC iter.                  ...        0 min,  0.035 sec
     gradient                   ...        0 min,  0.081 sec
 * total energy  :   -82.9339302 Eh     change       -0.3051643E-01 Eh
   gradient norm :     0.0920122 Eh/α   predicted    -0.2204441E-01 ( -27.76%)
   displ. norm   :     0.9134680 α      lambda       -0.5356459E-01
   maximum displ.:     0.3042191 α      in ANC's #70, #64, #39, ...

........................................................................
.............................. CYCLE    6 ..............................
........................................................................
   1    -83.6617589 -0.836618E+02  0.549E-01    2.01       0.0  T
   2    -83.6797958 -0.180369E-01  0.208E-01    2.22       1.0  T
   3    -83.6806721 -0.876218E-03  0.107E-01    2.21       1.0  T
   4    -83.6806965 -0.244322E-04  0.506E-02    2.21       1.0  T
   5    -83.6807049 -0.839353E-05  0.989E-03    2.21       1.6  T
   6    -83.6807073 -0.237628E-05  0.182E-03    2.21       8.5  T
   7    -83.6807073 -0.518426E-07  0.679E-04    2.21      22.7  T
   8    -83.6807073 -0.610095E-08  0.273E-04    2.21      56.5  T
   9    -83.6807073 -0.589964E-09  0.667E-05    2.21     231.2  T
  10    -83.6807073 -0.450058E-10  0.853E-06    2.21    1809.8  T
     SCC iter.                  ...        0 min,  0.038 sec
     gradient                   ...        0 min,  0.082 sec
 * total energy  :   -82.8953200 Eh     change        0.3861026E-01 Eh
   gradient norm :     0.4079149 Eh/α   predicted    -0.4913016E-01 (-227.25%)
   displ. norm   :     0.5017423 α      lambda       -0.1798756E+00
   maximum displ.:     0.1597935 α      in ANC's #45, #70, #64, ...

........................................................................
.............................. CYCLE    7 ..............................
........................................................................
   1    -83.6892101 -0.836892E+02  0.395E-01    2.18       0.0  T
   2    -83.6969341 -0.772396E-02  0.144E-01    2.15       1.0  T
   3    -83.6972753 -0.341169E-03  0.858E-02    2.15       1.0  T
   4    -83.6972832 -0.789325E-05  0.373E-02    2.15       1.0  T
   5    -83.6972872 -0.402686E-05  0.447E-03    2.14       3.5  T
   6    -83.6972879 -0.701335E-06  0.112E-03    2.14      13.8  T
   7    -83.6972879 -0.208858E-07  0.356E-04    2.14      43.3  T
   8    -83.6972879 -0.151573E-08  0.139E-04    2.14     111.1  T
   9    -83.6972879 -0.297945E-09  0.434E-05    2.14     355.2  T
     SCC iter.                  ...        0 min,  0.036 sec
     gradient                   ...        0 min,  0.081 sec
 * total energy  :   -82.9514478 Eh     change       -0.5612786E-01 Eh
   gradient norm :     0.0990618 Eh/α   predicted    -0.1125793E+00 ( 100.58%)
   displ. norm   :     0.6444722 α      lambda       -0.8941432E-02
   maximum displ.:     0.2302740 α      in ANC's #26, #19, #20, ...

........................................................................
.............................. CYCLE    8 ..............................
........................................................................
   1    -83.6790404 -0.836790E+02  0.242E-01    2.22       0.0  T
   2    -83.6827201 -0.367965E-02  0.105E-01    2.21       1.0  T
   3    -83.6830066 -0.286528E-03  0.458E-02    2.20       1.0  T
   4    -83.6830064  0.247022E-06  0.260E-02    2.20       1.0  T
   5    -83.6830097 -0.337823E-05  0.240E-03    2.19       6.4  T
   6    -83.6830099 -0.211814E-06  0.710E-04    2.19      21.7  T
   7    -83.6830100 -0.115168E-07  0.277E-04    2.19      55.7  T
   8    -83.6830100 -0.106377E-08  0.638E-05    2.19     241.9  T
   9    -83.6830100 -0.785150E-10  0.202E-05    2.19     763.8  T
     SCC iter.                  ...        0 min,  0.039 sec
     gradient                   ...        0 min,  0.081 sec
 * total energy  :   -82.9296428 Eh     change        0.2180504E-01 Eh
   gradient norm :     0.2056001 Eh/α   predicted    -0.6327578E-02 (-129.02%)
   displ. norm   :     0.4300438 α      lambda       -0.3830152E-01
   maximum displ.:     0.1512484 α      in ANC's #19, #26, #24, ...

........................................................................
.............................. CYCLE    9 ..............................
........................................................................
   1    -83.6992868 -0.836993E+02  0.170E-01    2.22       0.0  T
   2    -83.7009341 -0.164728E-02  0.672E-02    2.19       1.0  T
   3    -83.7010695 -0.135436E-03  0.262E-02    2.20       1.0  T
   4    -83.7010700 -0.439734E-06  0.152E-02    2.20       1.0  T
   5    -83.7010709 -0.923630E-06  0.163E-03    2.20       9.4  T
   6    -83.7010710 -0.735823E-07  0.431E-04    2.20      35.8  T
   7    -83.7010710 -0.377199E-08  0.161E-04    2.20      95.8  T
   8    -83.7010710 -0.368857E-09  0.374E-05    2.20     412.2  T
     SCC iter.                  ...        0 min,  0.033 sec
     gradient                   ...        0 min,  0.081 sec
 * total energy  :   -82.9526004 Eh     change       -0.2295763E-01 Eh
   gradient norm :     0.1151002 Eh/α   predicted    -0.2269250E-01 (  -1.15%)
   displ. norm   :     0.8679725 α      lambda       -0.9344079E-02
   maximum displ.:     0.5291306 α      in ANC's #19, #20, #14, ...

........................................................................
.............................. CYCLE   10 ..............................
........................................................................
   1    -83.6905455 -0.836905E+02  0.821E-02    2.21       0.0  T
   2    -83.6908707 -0.325177E-03  0.396E-02    2.21       1.0  T
   3    -83.6908951 -0.244301E-04  0.229E-02    2.22       1.0  T
   4    -83.6908956 -0.417582E-06  0.763E-03    2.22       2.0  T
   5    -83.6908959 -0.378934E-06  0.944E-04    2.22      16.3  T
   6    -83.6908960 -0.286577E-07  0.317E-04    2.22      48.7  T
   7    -83.6908960 -0.157823E-08  0.947E-05    2.22     163.0  T
   8    -83.6908960 -0.122640E-09  0.335E-05    2.22     460.5  T
     SCC iter.                  ...        0 min,  0.034 sec
     gradient                   ...        0 min,  0.080 sec
 * total energy  :   -82.9509204 Eh     change        0.1680009E-02 Eh
   gradient norm :     0.1329654 Eh/α   predicted    -0.8191863E-02 (-587.61%)
   displ. norm   :     0.5180717 α      lambda       -0.1472914E-01
   maximum displ.:     0.2644705 α      in ANC's #5, #19, #1, ...

........................................................................
.............................. CYCLE   11 ..............................
........................................................................
   1    -83.7035276 -0.837035E+02  0.141E-01    2.15       0.0  T
   2    -83.7042083 -0.680700E-03  0.624E-02    2.13       1.0  T
   3    -83.7042577 -0.493962E-04  0.348E-02    2.13       1.0  T
   4    -83.7042590 -0.134212E-05  0.103E-02    2.12       1.5  T
   5    -83.7042602 -0.115870E-05  0.157E-03    2.13       9.8  T
   6    -83.7042603 -0.693772E-07  0.440E-04    2.13      35.0  T
   7    -83.7042603 -0.320769E-08  0.967E-05    2.13     159.6  T
   8    -83.7042603 -0.125510E-09  0.219E-05    2.13     705.5  T
     SCC iter.                  ...        0 min,  0.031 sec
     gradient                   ...        0 min,  0.081 sec
 * total energy  :   -82.9497568 Eh     change        0.1163637E-02 Eh
   gradient norm :     0.1037464 Eh/α   predicted    -0.9341244E-02 (-902.76%)
   displ. norm   :     0.4406069 α      lambda       -0.1832855E-01
   maximum displ.:     0.1450341 α      in ANC's #24, #38, #25, ...

........................................................................
.............................. CYCLE   12 ..............................
........................................................................
   1    -83.7046460 -0.837046E+02  0.138E-01    2.17       0.0  T
   2    -83.7053856 -0.739533E-03  0.523E-02    2.19       1.0  T
   3    -83.7054747 -0.891296E-04  0.231E-02    2.18       1.0  T
   4    -83.7054751 -0.403683E-06  0.742E-03    2.19       2.1  T
   5    -83.7054758 -0.725583E-06  0.999E-04    2.19      15.4  T
   6    -83.7054758 -0.233868E-07  0.239E-04    2.19      64.6  T
   7    -83.7054758 -0.130156E-08  0.975E-05    2.19     158.3  T
   8    -83.7054758 -0.125581E-09  0.375E-05    2.19     411.3  T
     SCC iter.                  ...        0 min,  0.029 sec
     gradient                   ...        0 min,  0.081 sec
 * total energy  :   -82.9546075 Eh     change       -0.4850733E-02 Eh
   gradient norm :     0.1116079 Eh/α   predicted    -0.1094342E-01 ( 125.60%)
   displ. norm   :     0.3706228 α      lambda       -0.7883653E-02
   maximum displ.:     0.1891798 α      in ANC's #28, #5, #39, ...

........................................................................
.............................. CYCLE   13 ..............................
........................................................................
   1    -83.6985822 -0.836986E+02  0.538E-02    2.20       0.0  T
   2    -83.6986210 -0.387520E-04  0.298E-02    2.19       1.0  T
   3    -83.6986246 -0.358655E-05  0.161E-02    2.19       1.0  T
   4    -83.6986261 -0.152296E-05  0.197E-03    2.19       7.8  T
   5    -83.6986262 -0.700145E-07  0.687E-04    2.19      22.5  T
   6    -83.6986262 -0.493520E-08  0.185E-04    2.19      83.6  T
   7    -83.6986262 -0.363841E-09  0.490E-05    2.19     314.7  T
     SCC iter.                  ...        0 min,  0.029 sec
     gradient                   ...        0 min,  0.081 sec
 * total energy  :   -82.9561410 Eh     change       -0.1533508E-02 Eh
   gradient norm :     0.0996673 Eh/α   predicted    -0.4483260E-02 ( 192.35%)
   displ. norm   :     0.1913061 α      lambda       -0.4291677E-02
   maximum displ.:     0.0859655 α      in ANC's #5, #28, #45, ...

........................................................................
.............................. CYCLE   14 ..............................
........................................................................
   1    -83.7089457 -0.837089E+02  0.539E-02    2.18       0.0  T
   2    -83.7089986 -0.528944E-04  0.279E-02    2.19       1.0  T
   3    -83.7090011 -0.252256E-05  0.153E-02    2.19       1.0  T
   4    -83.7090020 -0.942232E-06  0.256E-03    2.19       6.0  T
   5    -83.7090021 -0.114763E-06  0.424E-04    2.19      36.4  T
   6    -83.7090021 -0.346439E-08  0.176E-04    2.19      87.8  T
   7    -83.7090021 -0.277296E-09  0.421E-05    2.19     366.8  T
     SCC iter.                  ...        0 min,  0.028 sec
     gradient                   ...        0 min,  0.080 sec
 * total energy  :   -82.9580654 Eh     change       -0.1924439E-02 Eh
   gradient norm :     0.0838927 Eh/α   predicted    -0.2224384E-02 (  15.59%)
   displ. norm   :     0.1334312 α      lambda       -0.1273633E-02
   maximum displ.:     0.0704894 α      in ANC's #5, #3, #1, ...

........................................................................
.............................. CYCLE   15 ..............................
........................................................................
   1    -83.7091155 -0.837091E+02  0.153E-02    2.19       0.0  T
   2    -83.7091271 -0.116169E-04  0.703E-03    2.19       2.2  T
   3    -83.7091278 -0.684520E-06  0.413E-03    2.19       3.7  T
   4    -83.7091278 -0.290975E-07  0.174E-03    2.19       8.8  T
   5    -83.7091278 -0.130054E-07  0.167E-04    2.19      92.4  T
   6    -83.7091278 -0.899206E-09  0.485E-05    2.19     318.0  T
     SCC iter.                  ...        0 min,  0.023 sec
     gradient                   ...        0 min,  0.081 sec
 * total energy  :   -82.9589048 Eh     change       -0.8394108E-03 Eh
   gradient norm :     0.0799377 Eh/α   predicted    -0.6481580E-03 ( -22.78%)
   displ. norm   :     0.2260926 α      lambda       -0.1877279E-02
   maximum displ.:     0.1040822 α      in ANC's #3, #28, #14, ...

........................................................................
.............................. CYCLE   16 ..............................
........................................................................
   1    -83.7102126 -0.837102E+02  0.134E-02    2.19       0.0  T
   2    -83.7102152 -0.253664E-05  0.806E-03    2.19       1.9  T
   3    -83.7102154 -0.192672E-06  0.412E-03    2.19       3.7  T
   4    -83.7102154 -0.560438E-07  0.650E-04    2.19      23.7  T
   5    -83.7102154 -0.559355E-08  0.123E-04    2.19     125.1  T
   6    -83.7102154 -0.369468E-09  0.476E-05    2.19     323.9  T
     SCC iter.                  ...        0 min,  0.023 sec
     gradient                   ...        0 min,  0.080 sec
 * total energy  :   -82.9605429 Eh     change       -0.1638043E-02 Eh
   gradient norm :     0.0699700 Eh/α   predicted    -0.9866208E-03 ( -39.77%)
   displ. norm   :     0.5182272 α      lambda       -0.4613701E-02
   maximum displ.:     0.2088091 α      in ANC's #3, #28, #14, ...

........................................................................
.............................. CYCLE   17 ..............................
........................................................................
   1    -83.7110994 -0.837111E+02  0.466E-02    2.18       0.0  T
   2    -83.7111471 -0.477018E-04  0.255E-02    2.18       1.0  T
   3    -83.7111508 -0.368230E-05  0.130E-02    2.18       1.2  T
   4    -83.7111516 -0.828165E-06  0.304E-03    2.18       5.1  T
   5    -83.7111517 -0.645597E-07  0.537E-04    2.18      28.7  T
   6    -83.7111517 -0.672556E-08  0.138E-04    2.18     111.6  T
   7    -83.7111517 -0.369852E-09  0.608E-05    2.18     254.0  T
     SCC iter.                  ...        0 min,  0.026 sec
     gradient                   ...        0 min,  0.081 sec
 * total energy  :   -82.9623477 Eh     change       -0.1804846E-02 Eh
   gradient norm :     0.0604412 Eh/α   predicted    -0.2926312E-02 (  62.14%)
   displ. norm   :     0.1078154 α      lambda       -0.3448171E-02
   maximum displ.:     0.0449181 α      in ANC's #19, #28, #32, ...

........................................................................
.............................. CYCLE   18 ..............................
........................................................................
   1    -83.7203690 -0.837204E+02  0.376E-02    2.19       0.0  T
   2    -83.7203781 -0.912569E-05  0.201E-02    2.19       1.0  T
   3    -83.7203779  0.214948E-06  0.777E-03    2.19       2.0  T
   4    -83.7203788 -0.855176E-06  0.150E-03    2.19      10.3  T
   5    -83.7203788 -0.334910E-07  0.347E-04    2.19      44.5  T
   6    -83.7203788 -0.153200E-08  0.875E-05    2.19     176.3  T
   7    -83.7203788 -0.971028E-10  0.231E-05    2.19     668.4  T
     SCC iter.                  ...        0 min,  0.026 sec
     gradient                   ...        0 min,  0.081 sec
 * total energy  :   -82.9643500 Eh     change       -0.2002275E-02 Eh
   gradient norm :     0.0402798 Eh/α   predicted    -0.1744166E-02 ( -12.89%)
   displ. norm   :     0.2399663 α      lambda       -0.1689559E-02
   maximum displ.:     0.1025042 α      in ANC's #3, #4, #14, ...

........................................................................
.............................. CYCLE   19 ..............................
........................................................................
   1    -83.7244896 -0.837245E+02  0.327E-02    2.18       0.0  T
   2    -83.7245390 -0.494120E-04  0.150E-02    2.19       1.0  T
   3    -83.7245436 -0.457644E-05  0.731E-03    2.19       2.1  T
   4    -83.7245436 -0.277566E-07  0.234E-03    2.19       6.6  T
   5    -83.7245437 -0.396539E-07  0.294E-04    2.19      52.5  T
   6    -83.7245437 -0.306656E-08  0.888E-05    2.19     173.8  T
   7    -83.7245437 -0.136751E-09  0.400E-05    2.19     385.4  T
     SCC iter.                  ...        0 min,  0.029 sec
     gradient                   ...        0 min,  0.081 sec
 * total energy  :   -82.9656352 Eh     change       -0.1285154E-02 Eh
   gradient norm :     0.0258654 Eh/α   predicted    -0.8935034E-03 ( -30.48%)
   displ. norm   :     0.3534347 α      lambda       -0.1522898E-02
   maximum displ.:     0.1367999 α      in ANC's #3, #4, #28, ...

........................................................................
.............................. CYCLE   20 ..............................
........................................................................
   1    -83.7249566 -0.837250E+02  0.339E-02    2.18       0.0  T
   2    -83.7250160 -0.593301E-04  0.153E-02    2.18       1.0  T
   3    -83.7250217 -0.569597E-05  0.638E-03    2.18       2.4  T
   4    -83.7250217 -0.470563E-07  0.270E-03    2.18       5.7  T
   5    -83.7250217 -0.321730E-07  0.407E-04    2.18      38.0  T
   6    -83.7250218 -0.460160E-08  0.851E-05    2.18     181.4  T
   7    -83.7250218 -0.236227E-09  0.414E-05    2.18     372.3  T
     SCC iter.                  ...        0 min,  0.029 sec
     gradient                   ...        0 min,  0.081 sec
 * total energy  :   -82.9664656 Eh     change       -0.8303978E-03 Eh
   gradient norm :     0.0205928 Eh/α   predicted    -0.8566747E-03 (   3.16%)
   displ. norm   :     0.1747793 α      lambda       -0.8016826E-03
   maximum displ.:     0.0595128 α      in ANC's #19, #7, #4, ...
 * RMSD in coord.:     0.4667400 α      energy gain  -0.1099716E+00 Eh

generating ANC from model Hessian ...
Using Lindh-Hessian (1995)
 Shifting diagonal of input Hessian by   9.843005023693823E-003
 Lowest  eigenvalues of input Hessian
    0.000000    0.000000    0.000000    0.000000    0.000000    0.000000
    0.010000    0.010253    0.010783    0.011141    0.011679    0.012214
    0.012888    0.013654    0.014699    0.015364    0.016384    0.018386
 Highest eigenvalues
    2.053342    2.119937    2.133369    2.177582    2.393752    2.430522
 

........................................................................
.............................. CYCLE   21 ..............................
........................................................................
   1    -83.7265515 -0.837266E+02  0.192E-02    2.18       0.0  T
   2    -83.7265625 -0.109961E-04  0.842E-03    2.18       1.8  T
   3    -83.7265634 -0.835241E-06  0.449E-03    2.18       3.4  T
   4    -83.7265634 -0.522662E-07  0.114E-03    2.18      13.5  T
   5    -83.7265634 -0.986533E-08  0.239E-04    2.18      64.6  T
   6    -83.7265634 -0.125206E-08  0.645E-05    2.18     239.1  T
   7    -83.7265634 -0.627693E-10  0.203E-05    2.18     760.1  T
     SCC iter.                  ...        0 min,  0.027 sec
     gradient                   ...        0 min,  0.081 sec
 * total energy  :   -82.9670250 Eh     change       -0.5594165E-03 Eh
   gradient norm :     0.0115145 Eh/α   predicted     0.0000000E+00 (-100.00%)
   displ. norm   :     0.1127853 α      lambda       -0.3970844E-03
   maximum displ.:     0.0747491 α      in ANC's #7, #5, #3, ...

........................................................................
.............................. CYCLE   22 ..............................
........................................................................
   1    -83.7272414 -0.837272E+02  0.600E-03    2.19       0.0  T
   2    -83.7272428 -0.133715E-05  0.321E-03    2.19       4.8  T
   3    -83.7272429 -0.876315E-07  0.180E-03    2.19       8.6  T
   4    -83.7272429 -0.838511E-09  0.610E-04    2.19      25.3  T
   5    -83.7272429 -0.437581E-08  0.959E-05    2.19     160.9  T
   6    -83.7272429 -0.274397E-09  0.243E-05    2.19     634.3  T
     SCC iter.                  ...        0 min,  0.027 sec
     gradient                   ...        0 min,  0.082 sec
 * total energy  :   -82.9673518 Eh     change       -0.3268439E-03 Eh
   gradient norm :     0.0064268 Eh/α   predicted    -0.2010692E-03 ( -38.48%)
   displ. norm   :     0.3128101 α      lambda       -0.6588854E-03
   maximum displ.:     0.2123579 α      in ANC's #7, #5, #3, ...

........................................................................
.............................. CYCLE   23 ..............................
........................................................................
   1    -83.7267559 -0.837268E+02  0.150E-02    2.20       0.0  T
   2    -83.7267636 -0.763198E-05  0.697E-03    2.20       2.2  T
   3    -83.7267641 -0.510968E-06  0.377E-03    2.20       4.1  T
   4    -83.7267641 -0.494910E-08  0.110E-03    2.20      14.0  T
   5    -83.7267641 -0.118852E-07  0.199E-04    2.20      77.4  T
   6    -83.7267641 -0.129222E-08  0.663E-05    2.20     232.6  T
     SCC iter.                  ...        0 min,  0.029 sec
     gradient                   ...        0 min,  0.082 sec
 * total energy  :   -82.9677471 Eh     change       -0.3952778E-03 Eh
   gradient norm :     0.0072538 Eh/α   predicted    -0.3616925E-03 (  -8.50%)
   displ. norm   :     0.1704799 α      lambda       -0.1845814E-03
   maximum displ.:     0.1137170 α      in ANC's #7, #5, #3, ...

........................................................................
.............................. CYCLE   24 ..............................
........................................................................
   1    -83.7267796 -0.837268E+02  0.789E-03    2.21       0.0  T
   2    -83.7267816 -0.204579E-05  0.264E-03    2.21       5.8  T
   3    -83.7267818 -0.166889E-06  0.138E-03    2.21      11.2  T
   4    -83.7267818 -0.324111E-08  0.309E-04    2.21      50.0  T
   5    -83.7267818 -0.991690E-09  0.802E-05    2.21     192.4  T
   6    -83.7267818 -0.134307E-09  0.205E-05    2.21     752.6  T
     SCC iter.                  ...        0 min,  0.029 sec
     gradient                   ...        0 min,  0.083 sec
 * total energy  :   -82.9679019 Eh     change       -0.1547882E-03 Eh
   gradient norm :     0.0075876 Eh/α   predicted    -0.9498056E-04 ( -38.64%)
   displ. norm   :     0.3459634 α      lambda       -0.3652486E-03
   maximum displ.:     0.2104171 α      in ANC's #7, #5, #3, ...

........................................................................
.............................. CYCLE   25 ..............................
........................................................................
   1    -83.7267428 -0.837267E+02  0.153E-02    2.22       0.0  T
   2    -83.7267528 -0.999300E-05  0.497E-03    2.22       3.1  T
   3    -83.7267536 -0.788036E-06  0.257E-03    2.22       6.0  T
   4    -83.7267536 -0.275535E-07  0.113E-03    2.22      13.7  T
   5    -83.7267536 -0.400563E-08  0.191E-04    2.22      81.0  T
   6    -83.7267536 -0.107767E-08  0.465E-05    2.22     331.6  T
     SCC iter.                  ...        0 min,  0.029 sec
     gradient                   ...        0 min,  0.082 sec
 * total energy  :   -82.9681757 Eh     change       -0.2738546E-03 Eh
   gradient norm :     0.0071740 Eh/α   predicted    -0.2044866E-03 ( -25.33%)
   displ. norm   :     0.3623870 α      lambda       -0.2791393E-03
   maximum displ.:     0.2055002 α      in ANC's #7, #5, #3, ...

........................................................................
.............................. CYCLE   26 ..............................
........................................................................
   1    -83.7265746 -0.837266E+02  0.151E-02    2.24       0.0  T
   2    -83.7265850 -0.104728E-04  0.473E-03    2.24       3.3  T
   3    -83.7265859 -0.866962E-06  0.254E-03    2.24       6.1  T
   4    -83.7265860 -0.601718E-07  0.126E-03    2.24      12.2  T
   5    -83.7265860 -0.150470E-08  0.177E-04    2.24      87.2  T
   6    -83.7265860 -0.917609E-09  0.433E-05    2.24     356.1  T
     SCC iter.                  ...        0 min,  0.029 sec
     gradient                   ...        0 min,  0.082 sec
 * total energy  :   -82.9683664 Eh     change       -0.1906986E-03 Eh
   gradient norm :     0.0075618 Eh/α   predicted    -0.1579061E-03 ( -17.20%)
   displ. norm   :     0.2005571 α      lambda       -0.1557893E-03
   maximum displ.:     0.1208627 α      in ANC's #5, #7, #11, ...

........................................................................
.............................. CYCLE   27 ..............................
........................................................................
   1    -83.7282470 -0.837282E+02  0.124E-02    2.26       0.0  T
   2    -83.7282538 -0.675036E-05  0.418E-03    2.26       3.7  T
   3    -83.7282543 -0.530767E-06  0.223E-03    2.26       6.9  T
   4    -83.7282543 -0.414335E-07  0.108E-03    2.26      14.3  T
   5    -83.7282543 -0.188389E-08  0.134E-04    2.26     115.0  T
   6    -83.7282543 -0.438689E-09  0.284E-05    2.26     543.6  T
     SCC iter.                  ...        0 min,  0.028 sec
     gradient                   ...        0 min,  0.082 sec
 * total energy  :   -82.9684778 Eh     change       -0.1113345E-03 Eh
   gradient norm :     0.0053724 Eh/α   predicted    -0.8103278E-04 ( -27.22%)
   displ. norm   :     0.1846597 α      lambda       -0.1204280E-03
   maximum displ.:     0.1184030 α      in ANC's #5, #7, #11, ...

........................................................................
.............................. CYCLE   28 ..............................
........................................................................
   1    -83.7287451 -0.837287E+02  0.109E-02    2.27       0.0  T
   2    -83.7287506 -0.555209E-05  0.333E-03    2.27       4.6  T
   3    -83.7287511 -0.502116E-06  0.166E-03    2.27       9.3  T
   4    -83.7287512 -0.403367E-07  0.768E-04    2.27      20.1  T
   5    -83.7287512 -0.756444E-09  0.170E-04    2.27      90.8  T
   6    -83.7287512 -0.372850E-09  0.342E-05    2.27     451.8  T
     SCC iter.                  ...        0 min,  0.028 sec
     gradient                   ...        0 min,  0.082 sec
 * total energy  :   -82.9685598 Eh     change       -0.8203760E-04 Eh
   gradient norm :     0.0036107 Eh/α   predicted    -0.6226932E-04 ( -24.10%)
   displ. norm   :     0.1291700 α      lambda       -0.8659097E-04
   maximum displ.:     0.0796807 α      in ANC's #5, #1, #8, ...

........................................................................
.............................. CYCLE   29 ..............................
........................................................................
   1    -83.7306864 -0.837307E+02  0.103E-02    2.28       0.0  T
   2    -83.7306907 -0.430164E-05  0.360E-03    2.28       4.3  T
   3    -83.7306910 -0.341781E-06  0.188E-03    2.28       8.2  T
   4    -83.7306910 -0.275088E-07  0.899E-04    2.28      17.2  T
   5    -83.7306910 -0.276455E-08  0.129E-04    2.28     120.0  T
   6    -83.7306910 -0.315779E-09  0.329E-05    2.28     468.5  T
     SCC iter.                  ...        0 min,  0.028 sec
     gradient                   ...        0 min,  0.080 sec
 * total energy  :   -82.9686099 Eh     change       -0.5008780E-04 Eh
   gradient norm :     0.0052044 Eh/α   predicted    -0.4401880E-04 ( -12.12%)
   displ. norm   :     0.2061889 α      lambda       -0.7918157E-04
   maximum displ.:     0.1320336 α      in ANC's #5, #1, #8, ...

........................................................................
.............................. CYCLE   30 ..............................
........................................................................
   1    -83.7289671 -0.837290E+02  0.920E-03    2.29       0.0  T
   2    -83.7289698 -0.267246E-05  0.358E-03    2.29       4.3  T
   3    -83.7289700 -0.253433E-06  0.217E-03    2.29       7.1  T
   4    -83.7289701 -0.503464E-07  0.746E-04    2.29      20.7  T
   5    -83.7289701 -0.120990E-08  0.126E-04    2.29     122.0  T
   6    -83.7289701 -0.337479E-09  0.309E-05    2.29     498.8  T
     SCC iter.                  ...        0 min,  0.025 sec
     gradient                   ...        0 min,  0.080 sec
 * total energy  :   -82.9686625 Eh     change       -0.5257506E-04 Eh
   gradient norm :     0.0062611 Eh/α   predicted    -0.4130973E-04 ( -21.43%)
   displ. norm   :     0.1756417 α      lambda       -0.8566777E-04
   maximum displ.:     0.1001865 α      in ANC's #5, #1, #8, ...

........................................................................
.............................. CYCLE   31 ..............................
........................................................................
   1    -83.7283821 -0.837284E+02  0.552E-03    2.29       0.0  T
   2    -83.7283834 -0.123165E-05  0.234E-03    2.29       6.6  T
   3    -83.7283835 -0.133729E-06  0.124E-03    2.29      12.5  T
   4    -83.7283835 -0.107633E-07  0.465E-04    2.29      33.2  T
   5    -83.7283835 -0.694570E-09  0.685E-05    2.29     225.2  T
   6    -83.7283835 -0.130257E-09  0.234E-05    2.29     659.0  T
     SCC iter.                  ...        0 min,  0.024 sec
     gradient                   ...        0 min,  0.080 sec
 * total energy  :   -82.9687315 Eh     change       -0.6901939E-04 Eh
   gradient norm :     0.0067328 Eh/α   predicted    -0.4415628E-04 ( -36.02%)
   displ. norm   :     0.2476121 α      lambda       -0.1509920E-03
   maximum displ.:     0.1242550 α      in ANC's #1, #5, #8, ...

........................................................................
.............................. CYCLE   32 ..............................
........................................................................
   1    -83.7277793 -0.837278E+02  0.777E-03    2.29       0.0  T
   2    -83.7277815 -0.215204E-05  0.305E-03    2.29       5.1  T
   3    -83.7277817 -0.252131E-06  0.150E-03    2.29      10.3  T
   4    -83.7277817 -0.581372E-08  0.462E-04    2.29      33.4  T
   5    -83.7277817 -0.188717E-08  0.713E-05    2.29     216.4  T
   6    -83.7277817 -0.150308E-09  0.291E-05    2.29     529.5  T
     SCC iter.                  ...        0 min,  0.023 sec
     gradient                   ...        0 min,  0.080 sec
 * total energy  :   -82.9688339 Eh     change       -0.1023626E-03 Eh
   gradient norm :     0.0069030 Eh/α   predicted    -0.8012516E-04 ( -21.72%)
   displ. norm   :     0.1204689 α      lambda       -0.1083918E-03
   maximum displ.:     0.0754047 α      in ANC's #1, #3, #14, ...

........................................................................
.............................. CYCLE   33 ..............................
........................................................................
   1    -83.7288871 -0.837289E+02  0.887E-03    2.29       0.0  T
   2    -83.7288892 -0.208658E-05  0.338E-03    2.29       4.6  T
   3    -83.7288894 -0.191647E-06  0.186E-03    2.29       8.3  T
   4    -83.7288894 -0.582746E-08  0.288E-04    2.29      53.6  T
   5    -83.7288894 -0.149070E-08  0.896E-05    2.29     172.2  T
   6    -83.7288894 -0.183590E-09  0.156E-05    2.29     989.9  T
     SCC iter.                  ...        0 min,  0.023 sec
     gradient                   ...        0 min,  0.080 sec
 * total energy  :   -82.9688932 Eh     change       -0.5934739E-04 Eh
   gradient norm :     0.0046245 Eh/α   predicted    -0.5498590E-04 (  -7.35%)
   displ. norm   :     0.3754813 α      lambda       -0.1756190E-03
   maximum displ.:     0.2106909 α      in ANC's #1, #5, #8, ...

........................................................................
.............................. CYCLE   34 ..............................
........................................................................
   1    -83.7262481 -0.837262E+02  0.183E-02    2.29       0.0  T
   2    -83.7262610 -0.128478E-04  0.783E-03    2.29       2.0  T
   3    -83.7262624 -0.140125E-05  0.383E-03    2.29       4.0  T
   4    -83.7262624 -0.680769E-07  0.121E-03    2.29      12.8  T
   5    -83.7262624 -0.730030E-08  0.296E-04    2.29      52.1  T
   6    -83.7262625 -0.214278E-08  0.593E-05    2.29     260.2  T
   7    -83.7262625 -0.110447E-09  0.223E-05    2.29     693.3  T
     SCC iter.                  ...        0 min,  0.027 sec
     gradient                   ...        0 min,  0.081 sec
 * total energy  :   -82.9689193 Eh     change       -0.2607023E-04 Eh
   gradient norm :     0.0141643 Eh/α   predicted    -0.1002402E-03 ( 284.50%)
   displ. norm   :     0.1410278 α      lambda       -0.2176324E-03
   maximum displ.:     0.0787844 α      in ANC's #5, #1, #8, ...

........................................................................
.............................. CYCLE   35 ..............................
........................................................................
   1    -83.7291513 -0.837292E+02  0.847E-03    2.30       0.0  T
   2    -83.7291521 -0.837433E-06  0.441E-03    2.30       3.5  T
   3    -83.7291522 -0.595246E-07  0.223E-03    2.30       6.9  T
   4    -83.7291522 -0.437340E-07  0.398E-04    2.30      38.7  T
   5    -83.7291522 -0.184488E-08  0.106E-04    2.30     145.9  T
   6    -83.7291522 -0.353694E-09  0.198E-05    2.30     780.4  T
     SCC iter.                  ...        0 min,  0.025 sec
     gradient                   ...        0 min,  0.081 sec
 * total energy  :   -82.9690427 Eh     change       -0.1234412E-03 Eh
   gradient norm :     0.0046978 Eh/α   predicted    -0.1109954E-03 ( -10.08%)
   displ. norm   :     0.1599231 α      lambda       -0.1257304E-03
   maximum displ.:     0.0988580 α      in ANC's #1, #7, #17, ...

........................................................................
.............................. CYCLE   36 ..............................
........................................................................
   1    -83.7303179 -0.837303E+02  0.691E-03    2.30       0.0  T
   2    -83.7303208 -0.289838E-05  0.291E-03    2.30       5.3  T
   3    -83.7303210 -0.252143E-06  0.140E-03    2.30      11.0  T
   4    -83.7303210 -0.874607E-08  0.635E-04    2.30      24.3  T
   5    -83.7303210 -0.100880E-08  0.147E-04    2.30     105.3  T
   6    -83.7303210 -0.400036E-09  0.348E-05    2.30     443.3  T
     SCC iter.                  ...        0 min,  0.046 sec
     gradient                   ...        0 min,  0.094 sec
 * total energy  :   -82.9691531 Eh     change       -0.1103944E-03 Eh
   gradient norm :     0.0036837 Eh/α   predicted    -0.6447253E-04 ( -41.60%)
   displ. norm   :     0.6064209 α      lambda       -0.3833438E-03
   maximum displ.:     0.3857333 α      in ANC's #1, #7, #17, ...

........................................................................
.............................. CYCLE   37 ..............................
........................................................................
   1    -83.7282511 -0.837283E+02  0.279E-02    2.31       0.0  T
   2    -83.7282836 -0.325459E-04  0.115E-02    2.31       1.3  T
   3    -83.7282865 -0.286716E-05  0.587E-03    2.31       2.6  T
   4    -83.7282868 -0.309377E-06  0.204E-03    2.32       7.6  T
   5    -83.7282868 -0.104109E-07  0.579E-04    2.32      26.7  T
   6    -83.7282868 -0.548204E-08  0.103E-04    2.32     150.1  T
   7    -83.7282868 -0.382485E-09  0.420E-05    2.32     367.5  T
     SCC iter.                  ...        0 min,  0.025 sec
     gradient                   ...        0 min,  0.144 sec
 * total energy  :   -82.9693228 Eh     change       -0.1697188E-03 Eh
   gradient norm :     0.0197808 Eh/α   predicted    -0.2619720E-03 (  54.36%)
   displ. norm   :     0.0953979 α      lambda       -0.3151169E-03
   maximum displ.:     0.0494209 α      in ANC's #5, #1, #8, ...

........................................................................
.............................. CYCLE   38 ..............................
........................................................................
   1    -83.7302543 -0.837303E+02  0.127E-02    2.32       0.0  T
   2    -83.7302578 -0.352328E-05  0.635E-03    2.32       2.4  T
   3    -83.7302581 -0.272643E-06  0.309E-03    2.32       5.0  T
   4    -83.7302582 -0.864887E-07  0.810E-04    2.32      19.1  T
   5    -83.7302582 -0.400155E-08  0.200E-04    2.32      77.2  T
   6    -83.7302582 -0.104373E-08  0.367E-05    2.32     420.7  T
     SCC iter.                  ...        0 min,  0.022 sec
     gradient                   ...        0 min,  0.081 sec
 * total energy  :   -82.9694767 Eh     change       -0.1538823E-03 Eh
   gradient norm :     0.0053167 Eh/α   predicted    -0.1590850E-03 (   3.38%)
   displ. norm   :     0.2834715 α      lambda       -0.1821840E-03
   maximum displ.:     0.1955737 α      in ANC's #1, #7, #17, ...

........................................................................
.............................. CYCLE   39 ..............................
........................................................................
   1    -83.7300663 -0.837301E+02  0.705E-03    2.32       0.0  T
   2    -83.7300681 -0.186063E-05  0.269E-03    2.32       5.7  T
   3    -83.7300683 -0.175119E-06  0.151E-03    2.32      10.3  T
   4    -83.7300683 -0.188235E-07  0.478E-04    2.32      32.3  T
   5    -83.7300683 -0.561016E-09  0.142E-04    2.32     108.5  T
   6    -83.7300683 -0.368715E-09  0.290E-05    2.32     532.6  T
     SCC iter.                  ...        0 min,  0.022 sec
     gradient                   ...        0 min,  0.080 sec
 * total energy  :   -82.9696378 Eh     change       -0.1610643E-03 Eh
   gradient norm :     0.0059297 Eh/α   predicted    -0.9783634E-04 ( -39.26%)
   displ. norm   :     0.5338469 α      lambda       -0.7665477E-03
   maximum displ.:     0.3875205 α      in ANC's #1, #2, #17, ...

........................................................................
.............................. CYCLE   40 ..............................
........................................................................
   1    -83.7278176 -0.837278E+02  0.201E-02    2.32       0.0  T
   2    -83.7278268 -0.916905E-05  0.871E-03    2.32       1.8  T
   3    -83.7278275 -0.731756E-06  0.464E-03    2.32       3.3  T
   4    -83.7278277 -0.175782E-06  0.121E-03    2.32      12.8  T
   5    -83.7278277 -0.710148E-08  0.309E-04    2.32      50.0  T
   6    -83.7278277 -0.287233E-08  0.590E-05    2.32     261.4  T
   7    -83.7278277 -0.924842E-10  0.200E-05    2.32     771.1  T
     SCC iter.                  ...        0 min,  0.025 sec
     gradient                   ...        0 min,  0.080 sec
 * total energy  :   -82.9698063 Eh     change       -0.1685535E-03 Eh
   gradient norm :     0.0172664 Eh/α   predicted    -0.2579273E-03 (  53.02%)
   displ. norm   :     0.1369005 α      lambda       -0.6136628E-03
   maximum displ.:     0.0972467 α      in ANC's #1, #5, #3, ...

........................................................................
.............................. CYCLE   41 ..............................
........................................................................
   1    -83.7299928 -0.837300E+02  0.704E-03    2.32       0.0  T
   2    -83.7299941 -0.129355E-05  0.351E-03    2.32       4.4  T
   3    -83.7299942 -0.549640E-07  0.179E-03    2.32       8.6  T
   4    -83.7299942 -0.145798E-07  0.538E-04    2.32      28.7  T
   5    -83.7299942 -0.476068E-08  0.108E-04    2.32     143.0  T
   6    -83.7299942 -0.231822E-09  0.263E-05    2.32     586.1  T
     SCC iter.                  ...        0 min,  0.022 sec
     gradient                   ...        0 min,  0.080 sec
 * total energy  :   -82.9699937 Eh     change       -0.1873966E-03 Eh
   gradient norm :     0.0073925 Eh/α   predicted    -0.1362331E-03 ( -27.30%)
   displ. norm   :     0.2611494 α      lambda       -0.5214930E-03
   maximum displ.:     0.1993138 α      in ANC's #1, #2, #4, ...

........................................................................
.............................. CYCLE   42 ..............................
........................................................................
   1    -83.7287646 -0.837288E+02  0.730E-03    2.32       0.0  T
   2    -83.7287659 -0.130546E-05  0.309E-03    2.32       5.0  T
   3    -83.7287660 -0.109941E-06  0.175E-03    2.32       8.8  T
   4    -83.7287660 -0.166364E-07  0.484E-04    2.32      31.9  T
   5    -83.7287660 -0.114970E-08  0.129E-04    2.32     119.5  T
   6    -83.7287660 -0.641649E-09  0.278E-05    2.32     554.5  T
     SCC iter.                  ...        0 min,  0.023 sec
     gradient                   ...        0 min,  0.081 sec
 * total energy  :   -82.9701082 Eh     change       -0.1144444E-03 Eh
   gradient norm :     0.0067804 Eh/α   predicted    -0.8898963E-04 ( -22.24%)
   displ. norm   :     0.3219358 α      lambda       -0.9909797E-03
   maximum displ.:     0.2508761 α      in ANC's #1, #4, #20, ...
 * RMSD in coord.:     0.6034296 α      energy gain  -0.3642610E-02 Eh

generating ANC from model Hessian ...
Using Lindh-Hessian (1995)
 Shifting diagonal of input Hessian by   9.834665861228959E-003
 Lowest  eigenvalues of input Hessian
    0.000000    0.000000    0.000000    0.000000    0.000000    0.000000
    0.010000    0.010246    0.010794    0.011116    0.011488    0.012255
    0.013140    0.013754    0.014739    0.015432    0.016381    0.018338
 Highest eigenvalues
    2.055019    2.106413    2.130855    2.189266    2.390730    2.428133
 

........................................................................
.............................. CYCLE   43 ..............................
........................................................................
   1    -83.7300125 -0.837300E+02  0.112E-02    2.32       0.0  T
   2    -83.7300170 -0.450325E-05  0.440E-03    2.32       3.5  T
   3    -83.7300175 -0.471796E-06  0.214E-03    2.32       7.2  T
   4    -83.7300176 -0.414418E-07  0.770E-04    2.32      20.0  T
   5    -83.7300176 -0.145039E-08  0.257E-04    2.32      60.0  T
   6    -83.7300176 -0.149616E-08  0.390E-05    2.32     395.9  T
   7    -83.7300176 -0.388383E-10  0.156E-05    2.32     987.0  T
     SCC iter.                  ...        0 min,  0.026 sec
     gradient                   ...        0 min,  0.080 sec
 * total energy  :   -82.9702384 Eh     change       -0.1302124E-03 Eh
   gradient norm :     0.0062418 Eh/α   predicted     0.0000000E+00 (-100.00%)
   displ. norm   :     0.0430032 α      lambda       -0.8401325E-04
   maximum displ.:     0.0203097 α      in ANC's #5, #4, #2, ...

........................................................................
.............................. CYCLE   44 ..............................
........................................................................
   1    -83.7312991 -0.837313E+02  0.483E-03    2.33       0.0  T
   2    -83.7313003 -0.111810E-05  0.253E-03    2.33       6.1  T
   3    -83.7313004 -0.118904E-06  0.136E-03    2.33      11.3  T
   4    -83.7313004 -0.219566E-08  0.430E-04    2.33      35.9  T
   5    -83.7313004 -0.137240E-08  0.655E-05    2.33     235.5  T
   6    -83.7313004 -0.145249E-09  0.159E-05    2.33     972.9  T
     SCC iter.                  ...        0 min,  0.021 sec
     gradient                   ...        0 min,  0.080 sec
 * total energy  :   -82.9703073 Eh     change       -0.6895013E-04 Eh
   gradient norm :     0.0030089 Eh/α   predicted    -0.4298112E-04 ( -37.66%)
   displ. norm   :     0.1264160 α      lambda       -0.1350524E-03
   maximum displ.:     0.0658845 α      in ANC's #5, #4, #2, ...

........................................................................
.............................. CYCLE   45 ..............................
........................................................................
   1    -83.7327453 -0.837327E+02  0.938E-03    2.33       0.0  T
   2    -83.7327507 -0.536943E-05  0.459E-03    2.33       3.4  T
   3    -83.7327512 -0.551827E-06  0.225E-03    2.33       6.9  T
   4    -83.7327513 -0.406980E-08  0.920E-04    2.33      16.8  T
   5    -83.7327513 -0.373610E-08  0.160E-04    2.33      96.7  T
   6    -83.7327513 -0.819924E-09  0.351E-05    2.33     439.9  T
     SCC iter.                  ...        0 min,  0.021 sec
     gradient                   ...        0 min,  0.080 sec
 * total energy  :   -82.9703991 Eh     change       -0.9180587E-04 Eh
   gradient norm :     0.0029060 Eh/α   predicted    -0.6860652E-04 ( -25.27%)
   displ. norm   :     0.1425240 α      lambda       -0.8161599E-04
   maximum displ.:     0.0748461 α      in ANC's #5, #4, #2, ...

........................................................................
.............................. CYCLE   46 ..............................
........................................................................
   1    -83.7326898 -0.837327E+02  0.755E-03    2.34       0.0  T
   2    -83.7326934 -0.355071E-05  0.308E-03    2.34       5.0  T
   3    -83.7326938 -0.377223E-06  0.112E-03    2.34      13.8  T
   4    -83.7326938 -0.670775E-08  0.527E-04    2.34      29.3  T
   5    -83.7326938 -0.651966E-09  0.172E-04    2.34      90.0  T
   6    -83.7326938 -0.463785E-09  0.304E-05    2.34     508.1  T
     SCC iter.                  ...        0 min,  0.021 sec
     gradient                   ...        0 min,  0.080 sec
 * total energy  :   -82.9704634 Eh     change       -0.6427559E-04 Eh
   gradient norm :     0.0047122 Eh/α   predicted    -0.4181882E-04 ( -34.94%)
   displ. norm   :     0.2586163 α      lambda       -0.1212759E-03
   maximum displ.:     0.1366964 α      in ANC's #5, #4, #2, ...

........................................................................
.............................. CYCLE   47 ..............................
........................................................................
   1    -83.7312877 -0.837313E+02  0.125E-02    2.35       0.0  T
   2    -83.7312947 -0.699495E-05  0.469E-03    2.35       3.3  T
   3    -83.7312954 -0.763075E-06  0.196E-03    2.35       7.9  T
   4    -83.7312955 -0.364474E-07  0.716E-04    2.35      21.6  T
   5    -83.7312955 -0.160894E-08  0.279E-04    2.35      55.4  T
   6    -83.7312955 -0.118872E-08  0.419E-05    2.35     368.2  T
   7    -83.7312955 -0.565024E-10  0.153E-05    2.35    1010.4  T
     SCC iter.                  ...        0 min,  0.025 sec
     gradient                   ...        0 min,  0.090 sec
 * total energy  :   -82.9705330 Eh     change       -0.6961614E-04 Eh
   gradient norm :     0.0083118 Eh/α   predicted    -0.6469629E-04 (  -7.07%)
   displ. norm   :     0.0993346 α      lambda       -0.8070451E-04
   maximum displ.:     0.0511708 α      in ANC's #5, #4, #2, ...

........................................................................
.............................. CYCLE   48 ..............................
........................................................................
   1    -83.7312291 -0.837312E+02  0.382E-03    2.36       0.0  T
   2    -83.7312295 -0.459548E-06  0.159E-03    2.36       9.7  T
   3    -83.7312296 -0.545640E-07  0.860E-04    2.36      17.9  T
   4    -83.7312296 -0.348389E-08  0.294E-04    2.36      52.5  T
   5    -83.7312296 -0.465519E-09  0.600E-05    2.36     257.0  T
   6    -83.7312296 -0.145917E-09  0.145E-05    2.36    1065.7  T
     SCC iter.                  ...        0 min,  0.037 sec
     gradient                   ...        0 min,  0.089 sec
 * total energy  :   -82.9705998 Eh     change       -0.6672742E-04 Eh
   gradient norm :     0.0052474 Eh/α   predicted    -0.4079914E-04 ( -38.86%)
   displ. norm   :     0.2490618 α      lambda       -0.1355040E-03
   maximum displ.:     0.1224246 α      in ANC's #5, #4, #2, ...

........................................................................
.............................. CYCLE   49 ..............................
........................................................................
   1    -83.7311060 -0.837311E+02  0.107E-02    2.37       0.0  T
   2    -83.7311097 -0.376850E-05  0.408E-03    2.37       3.8  T
   3    -83.7311103 -0.576025E-06  0.217E-03    2.37       7.1  T
   4    -83.7311103 -0.468031E-07  0.815E-04    2.37      18.9  T
   5    -83.7311104 -0.937987E-09  0.146E-04    2.37     105.6  T
   6    -83.7311104 -0.641137E-09  0.350E-05    2.37     441.5  T
     SCC iter.                  ...        0 min,  0.023 sec
     gradient                   ...        0 min,  0.081 sec
 * total energy  :   -82.9706813 Eh     change       -0.8158660E-04 Eh
   gradient norm :     0.0035585 Eh/α   predicted    -0.7195822E-04 ( -11.80%)
   displ. norm   :     0.0741059 α      lambda       -0.4189956E-04
   maximum displ.:     0.0304825 α      in ANC's #2, #4, #1, ...

........................................................................
.............................. CYCLE   50 ..............................
........................................................................
   1    -83.7324863 -0.837325E+02  0.559E-03    2.37       0.0  T
   2    -83.7324874 -0.113261E-05  0.225E-03    2.38       6.8  T
   3    -83.7324876 -0.224500E-06  0.109E-03    2.38      14.1  T
   4    -83.7324876 -0.935586E-08  0.422E-04    2.38      36.5  T
   5    -83.7324876 -0.423356E-09  0.524E-05    2.38     294.3  T
   6    -83.7324876 -0.667342E-10  0.162E-05    2.38     953.4  T
     SCC iter.                  ...        0 min,  0.022 sec
     gradient                   ...        0 min,  0.081 sec
 * total energy  :   -82.9707106 Eh     change       -0.2927906E-04 Eh
   gradient norm :     0.0044249 Eh/α   predicted    -0.2109337E-04 ( -27.96%)
   displ. norm   :     0.2770066 α      lambda       -0.7949482E-04
   maximum displ.:     0.1240137 α      in ANC's #4, #5, #2, ...

........................................................................
.............................. CYCLE   51 ..............................
........................................................................
   1    -83.7325276 -0.837325E+02  0.177E-02    2.40       0.0  T
   2    -83.7325395 -0.119801E-04  0.674E-03    2.40       2.3  T
   3    -83.7325419 -0.234983E-05  0.318E-03    2.40       4.9  T
   4    -83.7325420 -0.126958E-06  0.122E-03    2.40      12.7  T
   5    -83.7325420 -0.338707E-08  0.298E-04    2.40      51.7  T
   6    -83.7325420 -0.141679E-08  0.449E-05    2.40     343.4  T
   7    -83.7325420 -0.513154E-10  0.180E-05    2.40     859.3  T
     SCC iter.                  ...        0 min,  0.026 sec
     gradient                   ...        0 min,  0.081 sec
 * total energy  :   -82.9707662 Eh     change       -0.5561352E-04 Eh
   gradient norm :     0.0037925 Eh/α   predicted    -0.4279987E-04 ( -23.04%)
   displ. norm   :     0.2417988 α      lambda       -0.7297596E-04
   maximum displ.:     0.1073388 α      in ANC's #4, #2, #1, ...

........................................................................
.............................. CYCLE   52 ..............................
........................................................................
   1    -83.7331032 -0.837331E+02  0.176E-02    2.42       0.0  T
   2    -83.7331176 -0.143604E-04  0.682E-03    2.42       2.3  T
   3    -83.7331206 -0.298886E-05  0.264E-03    2.42       5.8  T
   4    -83.7331206 -0.812346E-07  0.119E-03    2.42      12.9  T
   5    -83.7331206 -0.273947E-08  0.287E-04    2.42      53.7  T
   6    -83.7331206 -0.139995E-08  0.441E-05    2.42     349.9  T
   7    -83.7331206 -0.553797E-10  0.187E-05    2.42     824.7  T
     SCC iter.                  ...        0 min,  0.027 sec
     gradient                   ...        0 min,  0.080 sec
 * total energy  :   -82.9708236 Eh     change       -0.5735997E-04 Eh
   gradient norm :     0.0037483 Eh/α   predicted    -0.3862202E-04 ( -32.67%)
   displ. norm   :     0.3132217 α      lambda       -0.1070651E-03
   maximum displ.:     0.1409299 α      in ANC's #2, #4, #1, ...

........................................................................
.............................. CYCLE   53 ..............................
........................................................................
   1    -83.7338186 -0.837338E+02  0.244E-02    2.46       0.0  T
   2    -83.7338486 -0.299634E-04  0.969E-03    2.46       1.6  T
   3    -83.7338550 -0.634823E-05  0.334E-03    2.46       4.6  T
   4    -83.7338551 -0.119201E-06  0.162E-03    2.46       9.5  T
   5    -83.7338551 -0.424899E-08  0.399E-04    2.46      38.7  T
   6    -83.7338551 -0.279321E-08  0.638E-05    2.46     241.7  T
   7    -83.7338551 -0.130157E-09  0.276E-05    2.46     559.8  T
     SCC iter.                  ...        0 min,  0.032 sec
     gradient                   ...        0 min,  0.080 sec
 * total energy  :   -82.9709048 Eh     change       -0.8119864E-04 Eh
   gradient norm :     0.0052029 Eh/α   predicted    -0.5878690E-04 ( -27.60%)
   displ. norm   :     0.3405467 α      lambda       -0.1063590E-03
   maximum displ.:     0.1547221 α      in ANC's #2, #1, #4, ...

........................................................................
.............................. CYCLE   54 ..............................
........................................................................
   1    -83.7336177 -0.837336E+02  0.254E-02    2.50       0.0  T
   2    -83.7336499 -0.322582E-04  0.102E-02    2.50       1.5  T
   3    -83.7336572 -0.722439E-05  0.333E-03    2.50       4.6  T
   4    -83.7336573 -0.120593E-06  0.158E-03    2.50       9.8  T
   5    -83.7336573 -0.527720E-08  0.410E-04    2.50      37.7  T
   6    -83.7336573 -0.293133E-08  0.656E-05    2.50     235.2  T
   7    -83.7336573 -0.147509E-09  0.290E-05    2.50     531.7  T
     SCC iter.                  ...        0 min,  0.030 sec
     gradient                   ...        0 min,  0.080 sec
 * total energy  :   -82.9709844 Eh     change       -0.7961909E-04 Eh
   gradient norm :     0.0066563 Eh/α   predicted    -0.5934840E-04 ( -25.46%)
   displ. norm   :     0.2605923 α      lambda       -0.1473127E-03
   maximum displ.:     0.1280237 α      in ANC's #1, #2, #4, ...

........................................................................
.............................. CYCLE   55 ..............................
........................................................................
   1    -83.7377733 -0.837378E+02  0.256E-02    2.54       0.0  T
   2    -83.7378038 -0.304861E-04  0.113E-02    2.54       1.4  T
   3    -83.7378106 -0.685938E-05  0.433E-03    2.54       3.6  T
   4    -83.7378107 -0.788148E-07  0.174E-03    2.54       8.9  T
   5    -83.7378107 -0.530565E-08  0.281E-04    2.54      54.9  T
   6    -83.7378107 -0.261632E-08  0.723E-05    2.54     213.3  T
   7    -83.7378107 -0.104919E-09  0.307E-05    2.54     501.8  T
     SCC iter.                  ...        0 min,  0.028 sec
     gradient                   ...        0 min,  0.081 sec
 * total energy  :   -82.9710282 Eh     change       -0.4377294E-04 Eh
   gradient norm :     0.0086565 Eh/α   predicted    -0.7873859E-04 (  79.88%)
   displ. norm   :     0.3221032 α      lambda       -0.1472026E-03
   maximum displ.:     0.1484361 α      in ANC's #4, #2, #1, ...

........................................................................
.............................. CYCLE   56 ..............................
........................................................................
   1    -83.7330074 -0.837330E+02  0.224E-02    2.57       0.0  T
   2    -83.7330267 -0.192273E-04  0.992E-03    2.57       1.6  T
   3    -83.7330314 -0.473453E-05  0.465E-03    2.57       3.3  T
   4    -83.7330316 -0.160778E-06  0.141E-03    2.57      10.9  T
   5    -83.7330316 -0.707556E-08  0.271E-04    2.57      56.9  T
   6    -83.7330316 -0.230732E-08  0.614E-05    2.57     251.4  T
   7    -83.7330316 -0.956675E-10  0.234E-05    2.57     658.4  T
     SCC iter.                  ...        0 min,  0.027 sec
     gradient                   ...        0 min,  0.081 sec
 * total energy  :   -82.9711110 Eh     change       -0.8281705E-04 Eh
   gradient norm :     0.0090540 Eh/α   predicted    -0.8129548E-04 (  -1.84%)
   displ. norm   :     0.0411627 α      lambda       -0.7955710E-04
   maximum displ.:     0.0176425 α      in ANC's #7, #9, #4, ...

........................................................................
.............................. CYCLE   57 ..............................
........................................................................
   1    -83.7347672 -0.837348E+02  0.599E-03    2.57       0.0  T
   2    -83.7347690 -0.177360E-05  0.302E-03    2.57       5.1  T
   3    -83.7347691 -0.939416E-07  0.175E-03    2.57       8.8  T
   4    -83.7347691 -0.161424E-08  0.597E-04    2.57      25.8  T
   5    -83.7347691 -0.432246E-08  0.136E-04    2.57     113.4  T
   6    -83.7347691 -0.810559E-09  0.285E-05    2.57     541.4  T
     SCC iter.                  ...        0 min,  0.022 sec
     gradient                   ...        0 min,  0.081 sec
 * total energy  :   -82.9711586 Eh     change       -0.4759729E-04 Eh
   gradient norm :     0.0037512 Eh/α   predicted    -0.3984628E-04 ( -16.28%)
   displ. norm   :     0.3576709 α      lambda       -0.1248093E-03
   maximum displ.:     0.1750165 α      in ANC's #1, #2, #4, ...

........................................................................
.............................. CYCLE   58 ..............................
........................................................................
   1    -83.7342692 -0.837343E+02  0.295E-02    2.61       0.0  T
   2    -83.7343081 -0.388909E-04  0.129E-02    2.62       1.2  T
   3    -83.7343190 -0.108737E-04  0.429E-03    2.62       3.6  T
   4    -83.7343191 -0.125029E-06  0.162E-03    2.62       9.5  T
   5    -83.7343191 -0.604817E-08  0.221E-04    2.62      69.7  T
   6    -83.7343191 -0.206499E-08  0.695E-05    2.62     222.1  T
   7    -83.7343191 -0.848530E-10  0.287E-05    2.62     537.1  T
     SCC iter.                  ...        0 min,  0.026 sec
     gradient                   ...        0 min,  0.080 sec
 * total energy  :   -82.9712411 Eh     change       -0.8249327E-04 Eh
   gradient norm :     0.0061312 Eh/α   predicted    -0.7038885E-04 ( -14.67%)
   displ. norm   :     0.3440545 α      lambda       -0.1085056E-03
   maximum displ.:     0.1794753 α      in ANC's #1, #2, #4, ...

........................................................................
.............................. CYCLE   59 ..............................
........................................................................
   1    -83.7343114 -0.837343E+02  0.335E-02    2.67       0.0  T
   2    -83.7343608 -0.494826E-04  0.142E-02    2.68       1.1  T
   3    -83.7343749 -0.141005E-04  0.424E-03    2.68       3.6  T
   4    -83.7343751 -0.136238E-06  0.169E-03    2.68       9.1  T
   5    -83.7343751 -0.649361E-08  0.272E-04    2.68      56.8  T
   6    -83.7343751 -0.245363E-08  0.680E-05    2.68     226.9  T
   7    -83.7343751 -0.910205E-10  0.319E-05    2.68     483.7  T
     SCC iter.                  ...        0 min,  0.025 sec
     gradient                   ...        0 min,  0.080 sec
 * total energy  :   -82.9713182 Eh     change       -0.7706476E-04 Eh
   gradient norm :     0.0077395 Eh/α   predicted    -0.6067575E-04 ( -21.27%)
   displ. norm   :     0.3822129 α      lambda       -0.2303269E-03
   maximum displ.:     0.2174655 α      in ANC's #1, #2, #4, ...

........................................................................
.............................. CYCLE   60 ..............................
........................................................................
   1    -83.7390937 -0.837391E+02  0.501E-02    2.77       0.0  T
   2    -83.7392016 -0.107823E-03  0.213E-02    2.77       1.0  T
   3    -83.7392323 -0.306943E-04  0.639E-03    2.77       2.4  T
   4    -83.7392325 -0.270298E-06  0.244E-03    2.77       6.3  T
   5    -83.7392325 -0.117240E-07  0.459E-04    2.77      33.6  T
[...]
 N  H  Rav=1.0123 sigma=0.0000  Rmin=1.0123  Rmax=1.0123     1
 N  C  Rav=1.3412 sigma=0.0658  Rmin=1.2600  Rmax=1.4603     8
 N  N  Rav=1.3632 sigma=0.0000  Rmin=1.3632  Rmax=1.3632     1
 O  H  Rav=0.9653 sigma=0.0000  Rmin=0.9653  Rmax=0.9653     1
 O  C  Rav=1.3320 sigma=0.0693  Rmin=1.2122  Rmax=1.4297     9
 
 selected bond angles (degree)
 --------------------
H26-C1-O2=110.18               H27-C1-O2=110.26               H27-C1-H26=109.30              H28-C1-O2=106.56               
H28-C1-H26=110.23              H28-C1-H27=110.29              C3-O2-C1=116.40                O4-C3-O2=122.68                
C5-C3-O2=113.82                C5-C3-O4=123.50                C6-C5-C3=124.72                N25-C5-C3=112.49               
N25-C5-C6=122.38               O7-C6-C5=123.98                O10-C6-C5=121.92               O10-C6-O7=114.09               
H29-O7-C6=111.61               O10-C8-C9=114.60               N11-C8-C9=123.48               N11-C8-O10=121.90              
H30-C9-C8=109.52               H31-C9-C8=109.54               H31-C9-H30=107.64              H32-C9-C8=110.16               
H32-C9-H30=109.88              H32-C9-H31=110.05              C8-O10-C6=111.71               
 
 selected dihedral angles (degree)
 ---------------------------------
C3-O2-C1-H26= 63.60           C3-O2-C1-H27=302.87           C3-O2-C1-H28=183.18           O4-C3-O2-C1=  0.70            
C5-C3-O2-C1=180.04            C6-C5-C3-O2=  9.13            C6-C5-C3-O4=188.47            N25-C5-C3-O2=181.96           
N25-C5-C3-O4=  1.30           O7-C6-C5-C3=355.73            O7-C6-C5-N25=183.58           O10-C6-C5-C3=174.60           
O10-C6-C5-N25=  2.44          H29-O7-C6-C5=171.26           H29-O7-C6-O10=352.32          H30-C9-C8-O10=300.26          
H30-C9-C8-N11=121.46          H31-C9-C8-O10= 58.11          H31-C9-C8-N11=239.30          H32-C9-C8-O10=179.30          
H32-C9-C8-N11=  0.49          C8-O10-C6-C5= 60.63           C8-O10-C6-O7=239.60           C6-O10-C8-C9=113.09           
C6-O10-C8-N11=291.91          
           -------------------------------------------------
          |                Final Singlepoint                |
           -------------------------------------------------

          ...................................................
          :                      SETUP                      :
          :.................................................:
          :  # basis functions                 134          :
          :  # atomic orbitals                 134          :
          :  # shells                           84          :
          :  # electrons                       134          :
          :  # halogen bonds                     0          :
          :  max. iterations                   250          :
          :  Hamiltonian                  GFN1-xTB          :
          :  restarted?                      false          :
          :  GBSA solvation                   true          :
          :  PC potential                    false          :
          :  electronic temp.          300.0000000     K    :
          :  accuracy                    1.0000000          :
          :  -> integral cutoff          0.2500000E+02      :
          :  -> integral neglect         0.1000000E-07      :
          :  -> SCF convergence          0.1000000E-05 Eh   :
          :  -> wf. convergence          0.2000000E-04 e    :
          :  Broyden damping             0.4000000          :
          ...................................................

 iter      E             dE          RMSdq      gap      omega  full diag
   1    -83.7656801 -0.837657E+02  0.104E-05    2.72       0.0  T
   2    -83.7656801 -0.390799E-11  0.582E-06    2.72    2650.6  T
   3    -83.7656801 -0.923706E-12  0.204E-06    2.72    7551.4  T

   *** convergence criteria satisfied after 3 iterations ***

         #    Occupation            Energy/Eh            Energy/eV
      -------------------------------------------------------------
         1        2.0000           -0.8625857             -23.4722
       ...           ...                  ...                  ...
        61        2.0000           -0.4707971             -12.8110
        62        2.0000           -0.4610347             -12.5454
        63        2.0000           -0.4586929             -12.4817
        64        2.0000           -0.4500616             -12.2468
        65        2.0000           -0.4447241             -12.1016
        66        2.0000           -0.4359787             -11.8636
        67        2.0000           -0.4166215             -11.3368 (HOMO)
        68                         -0.3167814              -8.6201 (LUMO)
        69                         -0.3077476              -8.3742
        70                         -0.2922431              -7.9523
        71                         -0.2561571              -6.9704
        72                         -0.2460979              -6.6967
       ...                                ...                  ...
       134                          0.7250597              19.7299
      -------------------------------------------------------------
                  HL-Gap            0.0998402 Eh            2.7168 eV
             Fermi-level           -0.3667015 Eh           -9.9785 eV

 SCC (total)                   0 d,  0 h,  0 min,  0.129 sec
 SCC setup                      ...        0 min,  0.002 sec (  1.318%)
 Dispersion                     ...        0 min,  0.000 sec (  0.254%)
 classical contributions        ...        0 min,  0.000 sec (  0.094%)
 integral evaluation            ...        0 min,  0.034 sec ( 26.706%)
 iterations                     ...        0 min,  0.012 sec (  8.948%)
 molecular gradient             ...        0 min,  0.080 sec ( 62.031%)
 printout                       ...        0 min,  0.001 sec (  0.617%)

         :::::::::::::::::::::::::::::::::::::::::::::::::::::
         ::                     SUMMARY                     ::
         :::::::::::::::::::::::::::::::::::::::::::::::::::::
         :: total energy             -82.981517930906 Eh    ::
         :: total w/o Gsasa/hb       -82.956010016153 Eh    ::
         :: gradient norm              0.000365619756 Eh/a0 ::
         :: HOMO-LUMO gap              2.716789519038 eV    ::
         ::.................................................::
         :: SCC energy               -83.765680064181 Eh    ::
         :: -> electrostatic           0.337357752829 Eh    ::
         :: -> Gsolv                  -0.055728827755 Eh    ::
         ::    -> Gelec               -0.030220913002 Eh    ::
         ::    -> Gsasa               -0.025273064632 Eh    ::
         ::    -> Ghb                 -0.007859129125 Eh    ::
         ::    -> Gshift               0.007624279005 Eh    ::
         :: repulsion energy           0.809379995976 Eh    ::
         :: dispersion energy         -0.025217862701 Eh    ::
         :: halogen bond corr.         0.000000000000 Eh    ::
         :: add. restraining           0.000000000000 Eh    ::
         :: total charge              -0.000000000000 e     ::
         :::::::::::::::::::::::::::::::::::::::::::::::::::::

           -------------------------------------------------
          |                Property Printout                |
           -------------------------------------------------

    * Orbital Energies and Occupations

         #    Occupation            Energy/Eh            Energy/eV
      -------------------------------------------------------------
         1        2.0000           -0.8625857             -23.4722
       ...           ...                  ...                  ...
        55        2.0000           -0.5014255             -13.6445
        56        2.0000           -0.4963331             -13.5059
        57        2.0000           -0.4935212             -13.4294
        58        2.0000           -0.4879478             -13.2777
        59        2.0000           -0.4819756             -13.1152
        60        2.0000           -0.4800402             -13.0626
        61        2.0000           -0.4707971             -12.8110
        62        2.0000           -0.4610347             -12.5454
        63        2.0000           -0.4586929             -12.4817
        64        2.0000           -0.4500616             -12.2468
        65        2.0000           -0.4447241             -12.1016
        66        2.0000           -0.4359787             -11.8636
        67        2.0000           -0.4166215             -11.3368 (HOMO)
        68                         -0.3167814              -8.6201 (LUMO)
        69                         -0.3077476              -8.3742
        70                         -0.2922431              -7.9523
        71                         -0.2561571              -6.9704
        72                         -0.2460979              -6.6967
        73                         -0.1958686              -5.3299
        74                         -0.1825717              -4.9680
        75                         -0.1450799              -3.9478
        76                         -0.1422972              -3.8721
        77                         -0.1365092              -3.7146
        78                         -0.1194462              -3.2503
       ...                                ...                  ...
       134                          0.7250597              19.7299
      -------------------------------------------------------------
                  HL-Gap            0.0998402 Eh            2.7168 eV
             Fermi-level           -0.3667015 Eh           -9.9785 eV

  Mulliken/CM5 charges         n(s)   n(p)   n(d)
     1C     0.16516  0.04466   0.979  2.856  0.000
     2O    -0.42158 -0.50532   1.686  4.735  0.000
     3C     0.57136  0.63814   0.967  2.462  0.000
     4O    -0.57224 -0.61643   1.725  4.847  0.000
     5C     0.02671  0.10101   1.025  2.949  0.000
     6C     0.48187  0.53458   0.967  2.551  0.000
     7O    -0.50346 -0.69897   1.688  4.816  0.000
     8C     0.42590  0.52992   1.009  2.565  0.000
     9C    -0.11543 -0.25230   1.018  3.098  0.000
    10O    -0.44394 -0.50342   1.686  4.758  0.000
    11N    -0.37973 -0.57323   1.520  3.859  0.000
    12C     0.29282  0.44646   1.019  2.688  0.000
    13C     0.15604  0.19848   1.062  2.782  0.000
    14C    -0.09777 -0.23621   1.018  3.079  0.000
    15C    -0.10006 -0.23881   1.019  3.081  0.000
    16N    -0.33963 -0.68878   1.429  3.910  0.000
    17C     0.46671  0.57643   0.974  2.560  0.000
    18O    -0.57760 -0.62262   1.726  4.851  0.000
    19C     0.33269  0.45838   1.009  2.658  0.000
    20N    -0.24628 -0.35676   1.569  3.678  0.000
    21N    -0.26605 -0.37358   1.565  3.701  0.000
    22C     0.38757  0.49604   1.007  2.605  0.000
    23C    -0.11120 -0.24860   1.012  3.100  0.000
    24O    -0.33972 -0.39119   1.691  4.648  0.000
    25N    -0.35209 -0.53795   1.523  3.829  0.000
    26H     0.04929  0.11060   0.951  0.000  0.000
    27H     0.04957  0.11158   0.950  0.000  0.000
    28H     0.05164  0.11203   0.948  0.000  0.000
    29H     0.42566  0.60434   0.574  0.000  0.000
    30H     0.07996  0.13548   0.920  0.000  0.000
    31H     0.08454  0.13959   0.915  0.000  0.000
    32H     0.06958  0.12610   0.930  0.000  0.000
    33H     0.03988  0.09685   0.960  0.000  0.000
    34H     0.04456  0.10282   0.955  0.000  0.000
    35H     0.05455  0.11404   0.945  0.000  0.000
    36H     0.05637  0.11597   0.944  0.000  0.000
    37H     0.04065  0.09759   0.959  0.000  0.000
    38H     0.04319  0.10062   0.957  0.000  0.000
    39H     0.24529  0.46243   0.755  0.000  0.000
    40H     0.07824  0.13271   0.922  0.000  0.000
    41H     0.06883  0.12469   0.931  0.000  0.000
    42H     0.07813  0.13260   0.922  0.000  0.000

Wiberg/Mayer (AO) data.
largest (>0.10) Wiberg bond orders for each atom

 ---------------------------------------------------------------------------
     #   Z sym  total        # sym  WBO       # sym  WBO       # sym  WBO
 ---------------------------------------------------------------------------
     1   6 C    3.875 --    28 H    0.986    26 H    0.980    27 H    0.980
                             2 O    0.900
     2   8 O    2.187 --     3 C    1.097     1 C    0.900     4 O    0.127
     3   6 C    3.856 --     4 O    1.641     2 O    1.097     5 C    1.030
     4   8 O    1.912 --     3 C    1.641     2 O    0.127
     5   6 C    3.938 --     6 C    1.543    25 N    1.086     3 C    1.030
     6   6 C    3.845 --     5 C    1.543     7 O    1.116    10 O    0.964
     7   8 O    2.097 --     6 C    1.116    29 H    0.802
     8   6 C    3.875 --    11 N    1.766     9 C    1.029    10 O    0.909
     9   6 C    3.987 --     8 C    1.029    32 H    0.981    30 H    0.958
                            31 H    0.958
    10   8 O    2.096 --     6 C    0.964     8 C    0.909
    11   7 N    3.121 --     8 C    1.766    12 C    1.068
    12   6 C    3.939 --    25 N    1.707    11 N    1.068    13 C    0.978
    13   6 C    3.934 --    15 C    0.979    14 C    0.978    12 C    0.978
                            16 N    0.929
    14   6 C    3.990 --    33 H    0.986    34 H    0.984    35 H    0.981
                            13 C    0.978
    15   6 C    3.990 --    37 H    0.986    38 H    0.985    36 H    0.981
                            13 C    0.979
    16   7 N    3.360 --    17 C    1.270    13 C    0.929    39 H    0.881
                            18 O    0.182
    17   6 C    3.920 --    18 O    1.583    16 N    1.270    19 C    0.986
    18   8 O    1.901 --    17 C    1.583    16 N    0.182
    19   6 C    3.873 --    20 N    1.613    24 O    1.064    17 C    0.986
    20   7 N    3.014 --    19 C    1.613    21 N    1.197
    21   7 N    2.980 --    22 C    1.608    20 N    1.197
    22   6 C    3.871 --    21 N    1.608    24 O    1.082    23 C    1.031
    23   6 C    3.987 --    22 C    1.031    41 H    0.983    42 H    0.964
                            40 H    0.964
    24   8 O    2.329 --    22 C    1.082    19 C    1.064
    25   7 N    3.062 --    12 C    1.707     5 C    1.086
    26   1 H    1.008 --     1 C    0.980
    27   1 H    1.009 --     1 C    0.980
    28   1 H    1.011 --     1 C    0.986
    29   1 H    0.830 --     7 O    0.802
    30   1 H    0.997 --     9 C    0.958
    31   1 H    0.996 --     9 C    0.958
    32   1 H    1.000 --     9 C    0.981
    33   1 H    1.003 --    14 C    0.986
    34   1 H    1.011 --    14 C    0.984
    35   1 H    1.009 --    14 C    0.981
    36   1 H    1.009 --    15 C    0.981
    37   1 H    1.003 --    15 C    0.986
    38   1 H    1.009 --    15 C    0.985
    39   1 H    0.968 --    16 N    0.881
    40   1 H    0.997 --    23 C    0.964
    41   1 H    0.999 --    23 C    0.983
    42   1 H    0.997 --    23 C    0.964
 ---------------------------------------------------------------------------

Topologies differ in total number of bonds
Writing topology from bond orders to xtbtopo.mol

 dipole moment from electron density (au)
     X       Y       Z   
   0.9323  -3.1838  -2.5649  total (Debye):   10.659

           -------------------------------------------------
          |                Geometry Summary                 |
           -------------------------------------------------

      molecular mass/u    :      351.3152409
   center of mass at/Å    :        0.0172042      -0.0424816       0.0202008
  moments of inertia/u·Å² :        0.9748256E+03   0.5170347E+04   0.5862577E+04
rotational constants/cm⁻¹ :        0.1729297E-01   0.3260445E-02   0.2875465E-02

 * 36 selected distances

     #   Z          #   Z                                           value/Å
     1   6 C        2   8 O                                       1.4297244
     2   8 O        3   6 C                                       1.3374955
     3   6 C        4   8 O                                       1.2122426
     5   6 C        6   6 C                                       1.3599090
     6   6 C        7   8 O                                       1.3268705
     8   6 C        9   6 C                                       1.4850479
     6   6 C       10   8 O                                       1.3733853
     8   6 C       11   7 N                                       1.2600473
    13   6 C       14   6 C                                       1.5363298 (max)
    13   6 C       15   6 C                                       1.5360427
    13   6 C       16   7 N                                       1.4603033
    16   7 N       17   6 C                                       1.3441933
    17   6 C       18   8 O                                       1.2200822
    19   6 C       20   7 N                                       1.2994411
    21   7 N       22   6 C                                       1.2984845
    22   6 C       23   6 C                                       1.4795588
    19   6 C       24   8 O                                       1.3455776
    22   6 C       24   8 O                                       1.3414733
    12   6 C       25   7 N                                       1.2754040
     1   6 C       26   1 H                                       1.0930246
     1   6 C       27   1 H                                       1.0929560
     1   6 C       28   1 H                                       1.0882583
     7   8 O       29   1 H                                       0.9653355 (min)
     9   6 C       30   1 H                                       1.0891757
     9   6 C       31   1 H                                       1.0897697
     9   6 C       32   1 H                                       1.0870034
    14   6 C       33   1 H                                       1.0891759
    14   6 C       34   1 H                                       1.0893917
    14   6 C       35   1 H                                       1.0885742
    15   6 C       36   1 H                                       1.0884295
    15   6 C       37   1 H                                       1.0889433
    15   6 C       38   1 H                                       1.0891342
    16   7 N       39   1 H                                       1.0123195
    23   6 C       40   1 H                                       1.0898825
    23   6 C       41   1 H                                       1.0871307
    23   6 C       42   1 H                                       1.0899078

 * 6 distinct bonds (by element types)

   Z      Z             #   av. dist./Å        max./Å        min./Å
   1 H    6 C          15     1.0893838     1.0930246     1.0870034
   6 C    6 C           5     1.4793776     1.5363298     1.3599090
   1 H    7 N           1     1.0123195     1.0123195     1.0123195
   6 C    7 N           6     1.3229789     1.4603033     1.2600473
   1 H    8 O           1     0.9653355     0.9653355     0.9653355
   6 C    8 O           8     1.3233564     1.4297244     1.2122426


optimized geometry written to: xtbopt.xyz


           -------------------------------------------------
          | TOTAL ENERGY              -82.981517930906 Eh   |
          | GRADIENT NORM               0.000365619756 Eh/α |
          | HOMO-LUMO GAP               2.716789519038 eV   |
           -------------------------------------------------

------------------------------------------------------------------------
 * finished run on 2023/06/20 at 18:24:07.643     
------------------------------------------------------------------------
 total:
 * wall-time:     0 d,  0 h,  0 min, 14.214 sec
 *  cpu-time:     0 d,  0 h,  0 min, 13.501 sec
 * ratio c/w:     0.950 speedup
 SCF:
 * wall-time:     0 d,  0 h,  0 min,  0.280 sec
 *  cpu-time:     0 d,  0 h,  0 min,  0.202 sec
 * ratio c/w:     0.722 speedup
 ANC optimizer:
 * wall-time:     0 d,  0 h,  0 min, 13.814 sec
 *  cpu-time:     0 d,  0 h,  0 min, 13.251 sec
 * ratio c/w:     0.959 speedup

