42
 energy: -83.624282422114 gnorm: 0.000780788851 xtb: 6.5.1 (579679a)
C           -3.64281772557932        3.57153085338699       -0.02795429641235
O           -3.53840552504159        2.16072679931890       -0.01994586382798
C           -2.30322025168306        1.66176415482179        0.31238692671500
O           -1.38929856097216        2.44878459233425        0.57204093897124
C           -2.19125434672784        0.21139852931187        0.32074709914632
C           -3.29334754536733       -0.64322846237169        0.02832553362639
O           -4.44404830395257       -0.27387273163284       -0.36054643998256
C           -3.04997795945948       -2.09946966699398        0.26882819374787
O           -3.94281089122803       -2.96230779615121        0.29946883284007
N           -1.75717787815472       -2.47967643710926        0.48583526762899
C           -0.61265394890649       -1.58609974675845        0.57882278420941
C            0.20228711030024       -1.99447727917103        1.82450618685552
C            0.28353116608349       -1.73293982619347       -0.73179509814382
C            0.99287061198639       -3.08889307218727       -0.81685117033803
C           -0.59204612249309       -1.53012071011308       -1.97781137653399
N            1.25183615305253       -0.65248920775297       -0.61227334856163
C            2.25710272593154       -0.42413522334583       -1.49950232989998
O            2.52070482315804       -1.16179537721630       -2.46874904792733
C            3.05558718246532        0.75275767557909       -1.19237407007325
N            4.03189681767416        1.27167570218718       -1.91665479043611
N            4.46680778497825        2.38286126212541       -1.24634223950152
C            3.75018167883899        2.48594046613410       -0.17376942960490
C            3.86455320947540        3.52195787070269        0.88105104583664
O            2.83340009913460        1.50126959060816       -0.06490420599202
N           -0.94985716098779       -0.21180592141926        0.71439714032796
H           -3.41510912825192        3.99031422204776        0.95891981992114
H           -2.95611581613783        4.01470622609067       -0.75865049964426
H           -4.66947303792129        3.82006666752764       -0.29855246127430
H           -1.61036109513520       -3.44316183939936        0.73363793304056
H            1.13998998999725       -1.44215827740206        1.84684016064300
H            0.41190161868547       -3.06195211176323        1.83410290162022
H           -0.37283140544382       -1.74327373794144        2.71477780999739
H            1.45256017823035       -3.22186472686941       -1.79629977736240
H            1.77309988483447       -3.16698740778930       -0.06134190085604
H            0.27219005140870       -3.89135513889773       -0.66396003122512
H           -1.32867688476787       -2.33035038877424       -2.04464268589957
H           -1.10931551102544       -0.57116681656570       -1.92924760732390
H            0.02605431899175       -1.55189123457489       -2.87485506101411
H            0.90224791200806        0.12567691233803       -0.04521182848925
H            4.09265483689925        3.05863257584618        1.84093028646148
H            4.65950926446750        4.21564835351458        0.62009028361010
H            2.92783168061833        4.06976668453904        0.98400641514981
