      -----------------------------------------------------------      
     |                   =====================                   |     
     |                           x T B                           |     
     |                   =====================                   |     
     |                         S. Grimme                         |     
     |          Mulliken Center for Theoretical Chemistry        |     
     |                    University of Bonn                     |     
      -----------------------------------------------------------      

   * xtb version 6.5.1 (579679a) compiled by 'ehlert@majestix' on 2022-07-11

   xtb is free software: you can redistribute it and/or modify it under
   the terms of the GNU Lesser General Public License as published by
   the Free Software Foundation, either version 3 of the License, or
   (at your option) any later version.
   
   xtb is distributed in the hope that it will be useful,
   but WITHOUT ANY WARRANTY; without even the implied warranty of
   MERCHANTABILITY or FITNESS FOR A PARTICULAR PURPOSE.  See the
   GNU Lesser General Public License for more details.
   
   Cite this work as:
   * C. Bannwarth, E. Caldeweyher, S. Ehlert, A. Hansen, P. Pracht,
     J. Seibert, S. Spicher, S. Grimme, WIREs Comput. Mol. Sci., 2020, 11,
     e01493. DOI: 10.1002/wcms.1493
   
   for GFN2-xTB:
   * C. Bannwarth, S. Ehlert and S. Grimme., J. Chem. Theory Comput., 2019,
     15, 1652-1671. DOI: 10.1021/acs.jctc.8b01176
   for GFN1-xTB:
   * S. Grimme, C. Bannwarth, P. Shushkov, J. Chem. Theory Comput., 2017,
     13, 1989-2009. DOI: 10.1021/acs.jctc.7b00118
   for GFN0-xTB:
   * P. Pracht, E. Caldeweyher, S. Ehlert, S. Grimme, ChemRxiv, 2019, preprint.
     DOI: 10.26434/chemrxiv.8326202.v1
   for GFN-FF:
   * S. Spicher and S. Grimme, Angew. Chem. Int. Ed., 2020, 59, 15665-15673.
     DOI: 10.1002/anie.202004239
   
   for ALPB and GBSA implicit solvation:
   * S. Ehlert, M. Stahn, S. Spicher, S. Grimme, J. Chem. Theory Comput.,
     2021, 17, 4250-4261. DOI: 10.1021/acs.jctc.1c00471
   
   for DFT-D4:
   * E. Caldeweyher, C. Bannwarth and S. Grimme, J. Chem. Phys., 2017,
     147, 034112. DOI: 10.1063/1.4993215
   * E. Caldeweyher, S. Ehlert, A. Hansen, H. Neugebauer, S. Spicher,
     C. Bannwarth and S. Grimme, J. Chem. Phys., 2019, 150, 154122.
     DOI: 10.1063/1.5090222
   * E. Caldeweyher, J.-M. Mewes, S. Ehlert and S. Grimme, Phys. Chem. Chem. Phys.
     2020, 22, 8499-8512. DOI: 10.1039/D0CP00502A
   
   for sTDA-xTB:
   * S. Grimme and C. Bannwarth, J. Chem. Phys., 2016, 145, 054103.
     DOI: 10.1063/1.4959605
   
   in the mass-spec context:
   * V. Asgeirsson, C. Bauer and S. Grimme, Chem. Sci., 2017, 8, 4879.
     DOI: 10.1039/c7sc00601b
   * J. Koopman and S. Grimme, ACS Omega 2019, 4, 12, 15120-15133.
     DOI: 10.1021/acsomega.9b02011
   
   for metadynamics refer to:
   * S. Grimme, J. Chem. Theory Comput., 2019, 155, 2847-2862
     DOI: 10.1021/acs.jctc.9b00143
   
   for SPH calculations refer to:
   * S. Spicher and S. Grimme, J. Chem. Theory Comput., 2021, 17, 1701-1714
     DOI: 10.1021/acs.jctc.0c01306
   
   with help from (in alphabetical order)
   P. Atkinson, C. Bannwarth, F. Bohle, G. Brandenburg, E. Caldeweyher
   M. Checinski, S. Dohm, S. Ehlert, S. Ehrlich, I. Gerasimov, C. Hölzer
   A. Katbashev, J. Koopman, C. Lavigne, S. Lehtola, F. März, M. Müller,
   F. Musil, H. Neugebauer, J. Pisarek, C. Plett, P. Pracht, F. Pultar,
   J. Seibert, P. Shushkov, S. Spicher, M. Stahn, M. Steiner, T. Strunk,
   J. Stückrath, T. Rose, and J. Unsleber
   
 * started run on 2023/06/21 at 17:40:38.887     

           -------------------------------------------------
          |                Calculation Setup                |
           -------------------------------------------------

          program call               : /lustre/hpc/kemi/ree/PhD/git/ReactivityQM/dep/xtb-6.5.1/bin/xtb --gfn 1 /lustre/hpc/kemi/ree/PhD/git/ReactivityQM/calculations/R02methylcation/reac01prodN09/conf07/R02methylcation_reac01prodN09_conf07_gfn1.xyz --opt --vfukui --chrg 0 --uhf 0 --alpb DMSO
          hostname                   : node317
          coordinate file            : /lustre/hpc/kemi/ree/PhD/git/ReactivityQM/calculations/R02methylcation/reac01prodN09/conf07/R02methylcation_reac01prodN09_conf07_gfn1.xyz
          omp threads                :                     1

   ID    Z sym.   atoms
    1    6 C      1, 3, 4, 6, 8-11, 13, 15, 18, 19, 22, 24
    2    8 O      2, 5, 14, 20, 23, 25
    3    7 N      7, 12, 16, 17, 21
    4    1 H      26-42

           -------------------------------------------------
          |                 G F N 1 - x T B                 |
           -------------------------------------------------

        Reference                      10.1021/acs.jctc.7b00118
      * Hamiltonian:
        H0-scaling (s, p, d)           1.850000    2.250000    2.000000
        zeta-weighting                 0.000000
      * Dispersion:
        s8                             2.400000
        a1                             0.630000
        a2                             5.000000
        s9                             0.000000
      * Repulsion:
        kExp                           1.500000
        rExp                           1.000000
      * Coulomb:
        alpha                          2.000000
        third order                    atomic
        anisotropic                    false
      * Halogen bond correction:
        rad-scale                      1.300000
        damping                        0.440000

      * Solvation model:               ALPB
        Solvent                        DMSO
        Parameter file                 internal GFN1-xTB/ALPB
        Dielectric constant                4.6680E+01
        Reference state                gsolv [1 M gas/solution]
        Free energy shift                  7.6243E-03 Eh       4.7843E+00 kcal/mol
        Temperature                        2.9815E+02 K
        Density                            1.1000E+00 kg/L
        Solvent mass                       7.8130E+01 g/mol
        Interaction kernel             P16
        Born radius scaling (c1)           1.7672E+00
        Born radii integrator          GBOBC
        Born offset                        0.0000E+00 a0       0.0000E+00 AA
        H-bond correction              true
        Ion screening                  false
        Surface tension                    1.0000E-05 Eh       1.5569E+01 dyn/cm
        Grid points                               230 per atom

          ...................................................
          :                      SETUP                      :
          :.................................................:
          :  # basis functions                 134          :
          :  # atomic orbitals                 134          :
          :  # shells                           84          :
          :  # electrons                       134          :
          :  # halogen bonds                     0          :
          :  max. iterations                   250          :
          :  Hamiltonian                  GFN1-xTB          :
          :  restarted?                      false          :
          :  GBSA solvation                   true          :
          :  PC potential                    false          :
          :  electronic temp.          300.0000000     K    :
          :  accuracy                    1.0000000          :
          :  -> integral cutoff          0.2500000E+02      :
          :  -> integral neglect         0.1000000E-07      :
          :  -> SCF convergence          0.1000000E-05 Eh   :
          :  -> wf. convergence          0.2000000E-04 e    :
          :  Broyden damping             0.4000000          :
          ...................................................

 iter      E             dE          RMSdq      gap      omega  full diag
   1    -83.1523278 -0.831523E+02  0.839E+00    0.62       0.0  T
   2    -83.2978624 -0.145535E+00  0.549E+00    0.46       1.0  T
   3    -83.3777041 -0.798417E-01  0.311E+00    0.75       1.0  T
   4    -83.5179410 -0.140237E+00  0.130E+00    0.52       1.0  T
   5    -83.5015629  0.163781E-01  0.102E+00    0.15       1.0  T
   6    -83.5508710 -0.493082E-01  0.885E-01    0.42       1.0  T
   7    -83.5242754  0.265956E-01  0.999E-01    0.12       1.0  T
   8    -83.5870685 -0.627931E-01  0.527E-01    0.14       1.0  T
   9    -83.5774529  0.961555E-02  0.594E-01    0.05       1.0  T
  10    -83.6038666 -0.264136E-01  0.311E-01    0.08       1.0  T
  11    -83.6101820 -0.631540E-02  0.176E-01    0.06       1.0  T
  12    -83.6125712 -0.238927E-02  0.672E-02    0.05       1.0  T
  13    -83.6129561 -0.384855E-03  0.556E-03    0.04       2.8  T
  14    -83.6129468  0.923415E-05  0.107E-02    0.04       1.4  T
  15    -83.6129577 -0.108096E-04  0.107E-03    0.04      14.4  T
  16    -83.6129570  0.636284E-06  0.279E-03    0.04       5.5  T
  17    -83.6129578 -0.743206E-06  0.268E-04    0.04      57.5  T
  18    -83.6129578 -0.383899E-08  0.173E-04    0.04      89.2  T
  19    -83.6129578 -0.251923E-08  0.173E-05    0.04     893.5  T

   *** convergence criteria satisfied after 19 iterations ***

         #    Occupation            Energy/Eh            Energy/eV
      -------------------------------------------------------------
         1        2.0000           -0.8726278             -23.7454
       ...           ...                  ...                  ...
        61        2.0000           -0.4694874             -12.7754
        62        2.0000           -0.4660658             -12.6823
        63        2.0000           -0.4636533             -12.6166
        64        2.0000           -0.4508698             -12.2688
        65        2.0000           -0.4492825             -12.2256
        66        2.0000           -0.4483189             -12.1994
        67        1.3923           -0.4318300             -11.7507 (HOMO)
        68        0.6077           -0.4302548             -11.7078 (LUMO)
        69                         -0.3305823              -8.9956
        70                         -0.3233196              -8.7980
        71                         -0.3120372              -8.4910
        72                         -0.2637058              -7.1758
       ...                                ...                  ...
       134                          0.7248092              19.7231
      -------------------------------------------------------------
                  HL-Gap            0.0015752 Eh            0.0429 eV
             Fermi-level           -0.4310424 Eh          -11.7293 eV

 SCC (total)                   0 d,  0 h,  0 min,  0.280 sec
 SCC setup                      ...        0 min,  0.002 sec (  0.841%)
 Dispersion                     ...        0 min,  0.000 sec (  0.151%)
 classical contributions        ...        0 min,  0.000 sec (  0.051%)
 integral evaluation            ...        0 min,  0.073 sec ( 26.246%)
 iterations                     ...        0 min,  0.120 sec ( 42.902%)
 molecular gradient             ...        0 min,  0.082 sec ( 29.433%)
 printout                       ...        0 min,  0.001 sec (  0.353%)

         :::::::::::::::::::::::::::::::::::::::::::::::::::::
         ::                     SUMMARY                     ::
         :::::::::::::::::::::::::::::::::::::::::::::::::::::
         :: total energy             -82.859713239249 Eh    ::
         :: total w/o Gsasa/hb       -82.839571567581 Eh    ::
         :: gradient norm              0.115363483237 Eh/a0 ::
         :: HOMO-LUMO gap              0.042863966382 eV    ::
         ::.................................................::
         :: SCC energy               -83.612957769464 Eh    ::
         :: -> electrostatic           0.380200655135 Eh    ::
         :: -> Gsolv                  -0.057911781533 Eh    ::
         ::    -> Gelec               -0.037770109865 Eh    ::
         ::    -> Gsasa               -0.023583440031 Eh    ::
         ::    -> Ghb                 -0.004182510642 Eh    ::
         ::    -> Gshift               0.007624279005 Eh    ::
         :: repulsion energy           0.779061328422 Eh    ::
         :: dispersion energy         -0.025816798207 Eh    ::
         :: halogen bond corr.         0.000000000000 Eh    ::
         :: add. restraining           0.000000000000 Eh    ::
         :: total charge               0.000000000000 e     ::
         :::::::::::::::::::::::::::::::::::::::::::::::::::::

      ----------------------------------------------------------- 
     |                   =====================                   |
     |                        A N C O P T                        |
     |                   =====================                   |
     |               Approximate Normal Coordinate               |
     |                Rational Function Optimizer                |
      ----------------------------------------------------------- 

          ...................................................
          :                      SETUP                      :
          :.................................................:
          :   optimization level            normal          :
          :   max. optcycles                   200          :
          :   ANC micro-cycles                  20          :
          :   degrees of freedom               120          :
          :.................................................:
          :   RF solver                   davidson          :
          :   write xtbopt.log                true          :
          :   linear?                        false          :
          :   energy convergence         0.5000000E-05 Eh   :
          :   grad. convergence          0.1000000E-02 Eh/α :
          :   maximium RF displ.         1.0000000          :
          :   Hlow (freq-cutoff)         0.1000000E-01      :
          :   Hmax (freq-cutoff)         5.0000000          :
          :   S6 in model hess.         20.0000000          :
          ...................................................

generating ANC from model Hessian ...
Using Lindh-Hessian (1995)
 Shifting diagonal of input Hessian by   9.789610928564127E-003
 Lowest  eigenvalues of input Hessian
    0.000000    0.000000    0.000000    0.000000    0.000000    0.000000
    0.010000    0.010104    0.010700    0.010930    0.011739    0.011922
    0.013601    0.013890    0.014761    0.015008    0.015677    0.017877
 Highest eigenvalues
    2.038366    2.074093    2.105985    2.298663    2.358334    2.453647
 

........................................................................
.............................. CYCLE    1 ..............................
........................................................................
   1    -83.6129578 -0.836130E+02  0.168E-05    0.04       0.0  T
   2    -83.6129578  0.354217E-08  0.190E-04    0.04      81.1  T
   3    -83.6129578 -0.355310E-08  0.114E-05    0.04    1350.0  T
     SCC iter.                  ...        0 min,  0.011 sec
     gradient                   ...        0 min,  0.082 sec
 * total energy  :   -82.8597132 Eh     change       -0.5158540E-11 Eh
   gradient norm :     0.1153630 Eh/α   predicted     0.0000000E+00 (-100.00%)
   displ. norm   :     0.4038929 α      lambda       -0.1927898E-01
   maximum displ.:     0.2094236 α      in ANC's #20, #21, #14, ...

........................................................................
.............................. CYCLE    2 ..............................
........................................................................
   1    -83.6253810 -0.836254E+02  0.228E-01    0.20       0.0  T
   2    -83.5338677  0.915133E-01  0.972E-01    0.18       1.0  T
   3    -83.6212015 -0.873338E-01  0.285E-01    0.16       1.0  T
   4    -83.6282921 -0.709062E-02  0.812E-02    0.14       1.0  T
   5    -83.6288552 -0.563094E-03  0.162E-02    0.12       1.0  T
   6    -83.6288463  0.893771E-05  0.158E-02    0.12       1.0  T
   7    -83.6288688 -0.225300E-04  0.206E-03    0.12       7.5  T
   8    -83.6288691 -0.223280E-06  0.977E-04    0.12      15.8  T
   9    -83.6288691 -0.372418E-08  0.794E-04    0.12      19.4  T
  10    -83.6288691 -0.523202E-07  0.129E-04    0.12     119.9  T
  11    -83.6288691  0.146926E-09  0.827E-05    0.12     186.6  T
     SCC iter.                  ...        0 min,  0.044 sec
     gradient                   ...        0 min,  0.082 sec
 * total energy  :   -82.8753153 Eh     change       -0.1560205E-01 Eh
   gradient norm :     0.0739611 Eh/α   predicted    -0.1123897E-01 ( -27.96%)
   displ. norm   :     0.6169856 α      lambda       -0.2524075E-01
   maximum displ.:     0.2729443 α      in ANC's #38, #20, #19, ...

........................................................................
.............................. CYCLE    3 ..............................
........................................................................
   1    -83.6501327 -0.836501E+02  0.263E-01    0.80       0.0  T
   2    -83.6500893  0.433788E-04  0.216E-01    0.75       1.0  T
   3    -83.6533098 -0.322052E-02  0.903E-02    0.74       1.0  T
   4    -83.6537870 -0.477126E-03  0.275E-02    0.73       1.0  T
   5    -83.6537914 -0.446409E-05  0.108E-02    0.73       1.4  T
   6    -83.6537930 -0.154173E-05  0.204E-03    0.73       7.6  T
   7    -83.6537930 -0.705532E-07  0.850E-04    0.73      18.1  T
   8    -83.6537931 -0.315213E-07  0.245E-04    0.73      63.0  T
   9    -83.6537931 -0.913730E-09  0.427E-05    0.73     361.3  T
  10    -83.6537931 -0.503917E-10  0.154E-05    0.73    1002.5  T
     SCC iter.                  ...        0 min,  0.039 sec
     gradient                   ...        0 min,  0.082 sec
 * total energy  :   -82.8933227 Eh     change       -0.1800739E-01 Eh
   gradient norm :     0.0606427 Eh/α   predicted    -0.1742459E-01 (  -3.24%)
   displ. norm   :     0.5329425 α      lambda       -0.1456093E-01
   maximum displ.:     0.2675458 α      in ANC's #38, #19, #20, ...

........................................................................
.............................. CYCLE    4 ..............................
........................................................................
   1    -83.6676901 -0.836677E+02  0.280E-01    1.55       0.0  T
   2    -83.6709610 -0.327090E-02  0.158E-01    1.45       1.0  T
   3    -83.6725772 -0.161623E-02  0.417E-02    1.47       1.0  T
   4    -83.6726082 -0.309136E-04  0.198E-02    1.47       1.0  T
   5    -83.6726086 -0.430473E-06  0.745E-03    1.47       2.1  T
   6    -83.6726097 -0.109398E-05  0.105E-03    1.46      14.7  T
   7    -83.6726097 -0.290244E-07  0.489E-04    1.46      31.6  T
   8    -83.6726097 -0.278273E-08  0.198E-04    1.46      77.9  T
   9    -83.6726097 -0.312241E-09  0.491E-05    1.46     314.4  T
     SCC iter.                  ...        0 min,  0.040 sec
     gradient                   ...        0 min,  0.091 sec
 * total energy  :   -82.9078340 Eh     change       -0.1451136E-01 Eh
   gradient norm :     0.1054006 Eh/α   predicted    -0.9348329E-02 ( -35.58%)
   displ. norm   :     0.4290020 α      lambda       -0.1806655E-01
   maximum displ.:     0.2125001 α      in ANC's #38, #19, #47, ...

........................................................................
.............................. CYCLE    5 ..............................
........................................................................
   1    -83.6906557 -0.836907E+02  0.194E-01    2.10       0.0  T
   2    -83.6928382 -0.218255E-02  0.801E-02    2.07       1.0  T
   3    -83.6930175 -0.179226E-03  0.282E-02    2.05       1.0  T
   4    -83.6930263 -0.881684E-05  0.162E-02    2.05       1.0  T
   5    -83.6930267 -0.402948E-06  0.384E-03    2.05       4.0  T
   6    -83.6930270 -0.322206E-06  0.665E-04    2.05      23.2  T
   7    -83.6930270 -0.107138E-07  0.296E-04    2.05      52.1  T
   8    -83.6930270 -0.858037E-09  0.132E-04    2.05     117.0  T
   9    -83.6930270 -0.132928E-09  0.301E-05    2.05     512.3  T
     SCC iter.                  ...        0 min,  0.041 sec
     gradient                   ...        0 min,  0.086 sec
 * total energy  :   -82.9286036 Eh     change       -0.2076957E-01 Eh
   gradient norm :     0.1396124 Eh/α   predicted    -0.1069579E-01 ( -48.50%)
   displ. norm   :     0.4011174 α      lambda       -0.2566053E-01
   maximum displ.:     0.1783072 α      in ANC's #38, #47, #68, ...

........................................................................
.............................. CYCLE    6 ..............................
........................................................................
   1    -83.7115944 -0.837116E+02  0.173E-01    2.28       0.0  T
   2    -83.7131007 -0.150624E-02  0.866E-02    2.32       1.0  T
   3    -83.7132390 -0.138329E-03  0.447E-02    2.30       1.0  T
   4    -83.7132415 -0.248656E-05  0.167E-02    2.30       1.0  T
   5    -83.7132422 -0.730356E-06  0.235E-03    2.30       6.6  T
   6    -83.7132423 -0.121331E-06  0.461E-04    2.30      33.5  T
   7    -83.7132423 -0.487499E-08  0.190E-04    2.30      81.2  T
   8    -83.7132423 -0.443919E-09  0.970E-05    2.30     159.1  T
     SCC iter.                  ...        0 min,  0.028 sec
     gradient                   ...        0 min,  0.082 sec
 * total energy  :   -82.9474901 Eh     change       -0.1888651E-01 Eh
   gradient norm :     0.1209312 Eh/α   predicted    -0.1489461E-01 ( -21.14%)
   displ. norm   :     0.4339023 α      lambda       -0.3241383E-01
   maximum displ.:     0.1251525 α      in ANC's #67, #76, #38, ...

........................................................................
.............................. CYCLE    7 ..............................
........................................................................
   1    -83.7123273 -0.837123E+02  0.222E-01    2.24       0.0  T
   2    -83.7148524 -0.252510E-02  0.109E-01    2.34       1.0  T
   3    -83.7150791 -0.226642E-03  0.604E-02    2.32       1.0  T
   4    -83.7150822 -0.311405E-05  0.201E-02    2.31       1.0  T
   5    -83.7150838 -0.157797E-05  0.340E-03    2.31       4.5  T
   6    -83.7150841 -0.312584E-06  0.583E-04    2.31      26.5  T
   7    -83.7150841 -0.701118E-08  0.251E-04    2.31      61.6  T
   8    -83.7150841 -0.771678E-09  0.828E-05    2.31     186.3  T
   9    -83.7150841 -0.850235E-10  0.162E-05    2.31     952.1  T
     SCC iter.                  ...        0 min,  0.031 sec
     gradient                   ...        0 min,  0.083 sec
 * total energy  :   -82.9504897 Eh     change       -0.2999531E-02 Eh
   gradient norm :     0.1286606 Eh/α   predicted    -0.1925820E-01 ( 542.04%)
   displ. norm   :     0.2578866 α      lambda       -0.1985512E-01
   maximum displ.:     0.0882026 α      in ANC's #26, #68, #38, ...

........................................................................
.............................. CYCLE    8 ..............................
........................................................................
   1    -83.7184463 -0.837184E+02  0.120E-01    2.32       0.0  T
   2    -83.7194949 -0.104851E-02  0.629E-02    2.27       1.0  T
   3    -83.7195449 -0.500980E-04  0.363E-02    2.28       1.0  T
   4    -83.7195457 -0.799286E-06  0.169E-02    2.28       1.0  T
   5    -83.7195466 -0.808869E-06  0.160E-03    2.28       9.7  T
   6    -83.7195466 -0.871629E-07  0.306E-04    2.28      50.5  T
   7    -83.7195466 -0.277331E-08  0.765E-05    2.28     201.7  T
   8    -83.7195466 -0.109480E-09  0.289E-05    2.28     534.4  T
     SCC iter.                  ...        0 min,  0.028 sec
     gradient                   ...        0 min,  0.082 sec
 * total energy  :   -82.9601745 Eh     change       -0.9684852E-02 Eh
   gradient norm :     0.0281678 Eh/α   predicted    -0.1058785E-01 (   9.32%)
   displ. norm   :     0.1650318 α      lambda       -0.2267532E-02
   maximum displ.:     0.0536016 α      in ANC's #21, #5, #19, ...

........................................................................
.............................. CYCLE    9 ..............................
........................................................................
   1    -83.7252371 -0.837252E+02  0.472E-02    2.32       0.0  T
   2    -83.7253225 -0.854125E-04  0.165E-02    2.32       1.0  T
   3    -83.7253314 -0.892060E-05  0.700E-03    2.32       2.2  T
   4    -83.7253316 -0.125786E-06  0.232E-03    2.32       6.6  T
   5    -83.7253316 -0.157615E-07  0.390E-04    2.32      39.5  T
   6    -83.7253316 -0.322382E-08  0.124E-04    2.32     124.7  T
   7    -83.7253316 -0.353111E-09  0.485E-05    2.32     317.9  T
     SCC iter.                  ...        0 min,  0.024 sec
     gradient                   ...        0 min,  0.083 sec
 * total energy  :   -82.9608021 Eh     change       -0.6275587E-03 Eh
   gradient norm :     0.0224359 Eh/α   predicted    -0.1164646E-02 (  85.58%)
   displ. norm   :     0.1240465 α      lambda       -0.1181438E-02
   maximum displ.:     0.0431305 α      in ANC's #21, #5, #13, ...

........................................................................
.............................. CYCLE   10 ..............................
........................................................................
   1    -83.7255270 -0.837255E+02  0.389E-02    2.32       0.0  T
   2    -83.7255863 -0.593707E-04  0.137E-02    2.33       1.1  T
   3    -83.7255932 -0.686472E-05  0.497E-03    2.33       3.1  T
   4    -83.7255932 -0.833289E-08  0.138E-03    2.33      11.2  T
   5    -83.7255932 -0.245204E-07  0.301E-04    2.33      51.3  T
   6    -83.7255932 -0.177926E-08  0.716E-05    2.33     215.6  T
   7    -83.7255932 -0.116856E-09  0.199E-05    2.33     777.2  T
     SCC iter.                  ...        0 min,  0.025 sec
     gradient                   ...        0 min,  0.083 sec
 * total energy  :   -82.9614356 Eh     change       -0.6335588E-03 Eh
   gradient norm :     0.0126892 Eh/α   predicted    -0.5998523E-03 (  -5.32%)
   displ. norm   :     0.1246411 α      lambda       -0.4417619E-03
   maximum displ.:     0.0494815 α      in ANC's #5, #4, #19, ...

........................................................................
.............................. CYCLE   11 ..............................
........................................................................
   1    -83.7244127 -0.837244E+02  0.143E-02    2.30       0.0  T
   2    -83.7244200 -0.731442E-05  0.696E-03    2.30       2.2  T
   3    -83.7244207 -0.725484E-06  0.331E-03    2.30       4.7  T
   4    -83.7244207 -0.579423E-08  0.846E-04    2.30      18.2  T
   5    -83.7244207 -0.512526E-08  0.115E-04    2.30     134.4  T
   6    -83.7244207 -0.405279E-09  0.362E-05    2.30     425.8  T
     SCC iter.                  ...        0 min,  0.021 sec
     gradient                   ...        0 min,  0.083 sec
 * total energy  :   -82.9617035 Eh     change       -0.2678404E-03 Eh
   gradient norm :     0.0089889 Eh/α   predicted    -0.2243235E-03 ( -16.25%)
   displ. norm   :     0.1987175 α      lambda       -0.3470048E-03
   maximum displ.:     0.0920769 α      in ANC's #5, #13, #1, ...

........................................................................
.............................. CYCLE   12 ..............................
........................................................................
   1    -83.7241861 -0.837242E+02  0.708E-03    2.30       0.0  T
   2    -83.7241882 -0.218702E-05  0.369E-03    2.30       4.2  T
   3    -83.7241885 -0.210492E-06  0.173E-03    2.30       8.9  T
   4    -83.7241885 -0.350475E-08  0.521E-04    2.30      29.6  T
   5    -83.7241885 -0.162257E-08  0.958E-05    2.30     161.1  T
   6    -83.7241885 -0.225484E-09  0.281E-05    2.30     549.8  T
     SCC iter.                  ...        0 min,  0.021 sec
     gradient                   ...        0 min,  0.083 sec
 * total energy  :   -82.9619855 Eh     change       -0.2820238E-03 Eh
   gradient norm :     0.0104857 Eh/α   predicted    -0.1803603E-03 ( -36.05%)
   displ. norm   :     0.4394829 α      lambda       -0.6454948E-03
   maximum displ.:     0.2207265 α      in ANC's #5, #1, #13, ...

........................................................................
.............................. CYCLE   13 ..............................
........................................................................
   1    -83.7235637 -0.837236E+02  0.119E-02    2.30       0.0  T
   2    -83.7235672 -0.345330E-05  0.604E-03    2.30       2.6  T
   3    -83.7235675 -0.319015E-06  0.300E-03    2.30       5.1  T
   4    -83.7235675 -0.230728E-07  0.765E-04    2.30      20.2  T
   5    -83.7235675 -0.380544E-08  0.169E-04    2.30      91.2  T
   6    -83.7235675 -0.638693E-09  0.537E-05    2.30     287.3  T
     SCC iter.                  ...        0 min,  0.021 sec
     gradient                   ...        0 min,  0.083 sec
 * total energy  :   -82.9624451 Eh     change       -0.4595999E-03 Eh
   gradient norm :     0.0118574 Eh/α   predicted    -0.3850902E-03 ( -16.21%)
   displ. norm   :     0.3850030 α      lambda       -0.4675968E-03
   maximum displ.:     0.2100867 α      in ANC's #5, #1, #2, ...

........................................................................
.............................. CYCLE   14 ..............................
........................................................................
   1    -83.7245764 -0.837246E+02  0.106E-02    2.31       0.0  T
   2    -83.7245792 -0.280001E-05  0.485E-03    2.32       3.2  T
   3    -83.7245795 -0.245330E-06  0.254E-03    2.32       6.1  T
   4    -83.7245795 -0.820938E-08  0.533E-04    2.32      28.9  T
   5    -83.7245795 -0.367349E-08  0.130E-04    2.32     118.5  T
   6    -83.7245795 -0.306116E-09  0.403E-05    2.32     383.2  T
     SCC iter.                  ...        0 min,  0.021 sec
     gradient                   ...        0 min,  0.083 sec
 * total energy  :   -82.9627982 Eh     change       -0.3531208E-03 Eh
   gradient norm :     0.0110151 Eh/α   predicted    -0.2684571E-03 ( -23.98%)
   displ. norm   :     0.4157686 α      lambda       -0.5100373E-03
   maximum displ.:     0.2344455 α      in ANC's #5, #1, #3, ...

........................................................................
.............................. CYCLE   15 ..............................
........................................................................
   1    -83.7268229 -0.837268E+02  0.103E-02    2.33       0.0  T
   2    -83.7268259 -0.302989E-05  0.530E-03    2.33       2.9  T
   3    -83.7268262 -0.298208E-06  0.263E-03    2.33       5.9  T
   4    -83.7268262 -0.446479E-08  0.699E-04    2.33      22.1  T
   5    -83.7268262 -0.335508E-08  0.111E-04    2.33     139.4  T
   6    -83.7268262 -0.190525E-09  0.343E-05    2.33     449.4  T
     SCC iter.                  ...        0 min,  0.021 sec
     gradient                   ...        0 min,  0.082 sec
 * total energy  :   -82.9632019 Eh     change       -0.4036493E-03 Eh
   gradient norm :     0.0087991 Eh/α   predicted    -0.2991029E-03 ( -25.90%)
   displ. norm   :     0.4731296 α      lambda       -0.5321537E-03
   maximum displ.:     0.2600297 α      in ANC's #5, #1, #10, ...

........................................................................
.............................. CYCLE   16 ..............................
........................................................................
   1    -83.7284299 -0.837284E+02  0.978E-03    2.34       0.0  T
   2    -83.7284327 -0.275803E-05  0.513E-03    2.34       3.0  T
   3    -83.7284330 -0.273915E-06  0.259E-03    2.34       6.0  T
   4    -83.7284330 -0.660179E-08  0.788E-04    2.34      19.6  T
   5    -83.7284330 -0.265483E-08  0.922E-05    2.34     167.4  T
   6    -83.7284330 -0.128495E-09  0.256E-05    2.34     602.0  T
     SCC iter.                  ...        0 min,  0.021 sec
     gradient                   ...        0 min,  0.083 sec
 * total energy  :   -82.9636140 Eh     change       -0.4121170E-03 Eh
   gradient norm :     0.0083243 Eh/α   predicted    -0.3256399E-03 ( -20.98%)
   displ. norm   :     0.5101680 α      lambda       -0.4393880E-03
   maximum displ.:     0.2680537 α      in ANC's #5, #1, #10, ...

........................................................................
.............................. CYCLE   17 ..............................
........................................................................
   1    -83.7272688 -0.837273E+02  0.117E-02    2.35       0.0  T
   2    -83.7272750 -0.621900E-05  0.450E-03    2.35       3.4  T
   3    -83.7272756 -0.625855E-06  0.194E-03    2.35       8.0  T
   4    -83.7272757 -0.194523E-07  0.802E-04    2.35      19.2  T
   5    -83.7272757 -0.193609E-09  0.216E-04    2.35      71.4  T
   6    -83.7272757 -0.708141E-09  0.442E-05    2.35     349.4  T
   7    -83.7272757 -0.474500E-10  0.165E-05    2.35     937.2  T
     SCC iter.                  ...        0 min,  0.024 sec
     gradient                   ...        0 min,  0.083 sec
 * total energy  :   -82.9639719 Eh     change       -0.3578672E-03 Eh
   gradient norm :     0.0085175 Eh/α   predicted    -0.2768768E-03 ( -22.63%)
   displ. norm   :     0.5385010 α      lambda       -0.4746549E-03
   maximum displ.:     0.2647330 α      in ANC's #1, #5, #10, ...

........................................................................
.............................. CYCLE   18 ..............................
........................................................................
   1    -83.7284689 -0.837285E+02  0.158E-02    2.35       0.0  T
   2    -83.7284808 -0.118571E-04  0.661E-03    2.36       2.3  T
   3    -83.7284819 -0.117760E-05  0.331E-03    2.36       4.7  T
   4    -83.7284820 -0.297492E-07  0.133E-03    2.36      11.6  T
   5    -83.7284820 -0.749964E-09  0.267E-04    2.36      57.7  T
   6    -83.7284820 -0.155975E-08  0.596E-05    2.36     258.7  T
   7    -83.7284820 -0.758718E-10  0.196E-05    2.36     789.2  T
     SCC iter.                  ...        0 min,  0.024 sec
     gradient                   ...        0 min,  0.083 sec
 * total energy  :   -82.9643236 Eh     change       -0.3517054E-03 Eh
   gradient norm :     0.0088973 Eh/α   predicted    -0.3061493E-03 ( -12.95%)
   displ. norm   :     0.6474343 α      lambda       -0.4456237E-03
   maximum displ.:     0.3367650 α      in ANC's #5, #1, #3, ...

........................................................................
.............................. CYCLE   19 ..............................
........................................................................
   1    -83.7230316 -0.837230E+02  0.220E-02    2.35       0.0  T
   2    -83.7230528 -0.211456E-04  0.935E-03    2.36       1.6  T
   3    -83.7230550 -0.223225E-05  0.443E-03    2.36       3.5  T
   4    -83.7230551 -0.848499E-07  0.151E-03    2.36      10.2  T
   5    -83.7230551 -0.353938E-08  0.365E-04    2.36      42.3  T
   6    -83.7230551 -0.241110E-08  0.109E-04    2.36     141.1  T
   7    -83.7230551 -0.280693E-09  0.382E-05    2.36     404.2  T
     SCC iter.                  ...        0 min,  0.024 sec
     gradient                   ...        0 min,  0.083 sec
 * total energy  :   -82.9646021 Eh     change       -0.2785181E-03 Eh
   gradient norm :     0.0127858 Eh/α   predicted    -0.3162155E-03 (  13.53%)
   displ. norm   :     0.3531705 α      lambda       -0.4387094E-03
   maximum displ.:     0.2096937 α      in ANC's #1, #5, #3, ...

........................................................................
.............................. CYCLE   20 ..............................
........................................................................
   1    -83.7260569 -0.837261E+02  0.172E-02    2.36       0.0  T
   2    -83.7260704 -0.134871E-04  0.790E-03    2.37       2.0  T
   3    -83.7260721 -0.170750E-05  0.332E-03    2.37       4.6  T
   4    -83.7260722 -0.193379E-07  0.119E-03    2.37      12.9  T
   5    -83.7260722 -0.349526E-08  0.269E-04    2.37      57.3  T
   6    -83.7260722 -0.171856E-08  0.604E-05    2.37     255.4  T
   7    -83.7260722 -0.818261E-10  0.266E-05    2.37     580.9  T
     SCC iter.                  ...        0 min,  0.024 sec
     gradient                   ...        0 min,  0.084 sec
 * total energy  :   -82.9649302 Eh     change       -0.3280939E-03 Eh
   gradient norm :     0.0102881 Eh/α   predicted    -0.2467193E-03 ( -24.80%)
   displ. norm   :     0.5245304 α      lambda       -0.4579276E-03
   maximum displ.:     0.3085697 α      in ANC's #1, #5, #3, ...
 * RMSD in coord.:     0.8155215 α      energy gain  -0.1052169E+00 Eh

generating ANC from model Hessian ...
Using Lindh-Hessian (1995)
 Shifting diagonal of input Hessian by   9.745711475226515E-003
 Lowest  eigenvalues of input Hessian
    0.000000    0.000000    0.000000    0.000000    0.000000    0.000000
    0.010000    0.010056    0.010732    0.011040    0.011403    0.011926
    0.013706    0.014141    0.014200    0.015112    0.015326    0.018156
 Highest eigenvalues
    2.053089    2.126030    2.153894    2.260987    2.414613    2.425105
 

........................................................................
.............................. CYCLE   21 ..............................
........................................................................
   1    -83.7275803 -0.837276E+02  0.151E-02    2.36       0.0  T
   2    -83.7275959 -0.155948E-04  0.758E-03    2.37       2.0  T
   3    -83.7275977 -0.182103E-05  0.289E-03    2.37       5.3  T
   4    -83.7275978 -0.238758E-07  0.138E-03    2.37      11.1  T
   5    -83.7275978 -0.289340E-08  0.251E-04    2.37      61.5  T
   6    -83.7275978 -0.136821E-08  0.800E-05    2.37     193.0  T
   7    -83.7275978 -0.917169E-10  0.262E-05    2.37     588.3  T
     SCC iter.                  ...        0 min,  0.029 sec
     gradient                   ...        0 min,  0.090 sec
 * total energy  :   -82.9653067 Eh     change       -0.3764882E-03 Eh
   gradient norm :     0.0101939 Eh/α   predicted     0.0000000E+00 (-100.00%)
   displ. norm   :     0.1061604 α      lambda       -0.2872979E-03
   maximum displ.:     0.0455018 α      in ANC's #5, #9, #2, ...

........................................................................
.............................. CYCLE   22 ..............................
........................................................................
   1    -83.7293291 -0.837293E+02  0.670E-03    2.38       0.0  T
   2    -83.7293304 -0.127490E-05  0.320E-03    2.38       4.8  T
   3    -83.7293305 -0.983683E-07  0.171E-03    2.38       9.0  T
   4    -83.7293305 -0.190138E-08  0.455E-04    2.38      33.9  T
   5    -83.7293305 -0.210794E-08  0.763E-05    2.38     202.4  T
   6    -83.7293305 -0.809877E-10  0.178E-05    2.38     865.5  T
     SCC iter.                  ...        0 min,  0.025 sec
     gradient                   ...        0 min,  0.091 sec
 * total energy  :   -82.9655488 Eh     change       -0.2421134E-03 Eh
   gradient norm :     0.0049250 Eh/α   predicted    -0.1452685E-03 ( -40.00%)
   displ. norm   :     0.3838366 α      lambda       -0.6766265E-03
   maximum displ.:     0.1874776 α      in ANC's #5, #9, #2, ...

........................................................................
.............................. CYCLE   23 ..............................
........................................................................
   1    -83.7309021 -0.837309E+02  0.151E-02    2.38       0.0  T
   2    -83.7309084 -0.622532E-05  0.636E-03    2.38       2.4  T
   3    -83.7309088 -0.444587E-06  0.323E-03    2.38       4.8  T
   4    -83.7309088 -0.142836E-07  0.106E-03    2.38      14.5  T
   5    -83.7309088 -0.838641E-08  0.208E-04    2.38      74.1  T
   6    -83.7309088 -0.428628E-09  0.399E-05    2.38     386.9  T
   7    -83.7309088 -0.347029E-10  0.164E-05    2.38     939.2  T
     SCC iter.                  ...        0 min,  0.030 sec
     gradient                   ...        0 min,  0.090 sec
 * total energy  :   -82.9660531 Eh     change       -0.5043404E-03 Eh
   gradient norm :     0.0085618 Eh/α   predicted    -0.3882036E-03 ( -23.03%)
   displ. norm   :     0.4899462 α      lambda       -0.5899891E-03
   maximum displ.:     0.2693793 α      in ANC's #5, #9, #2, ...

........................................................................
.............................. CYCLE   24 ..............................
........................................................................
   1    -83.7294240 -0.837294E+02  0.132E-02    2.38       0.0  T
   2    -83.7294278 -0.376562E-05  0.572E-03    2.38       2.7  T
   3    -83.7294280 -0.251929E-06  0.307E-03    2.38       5.0  T
   4    -83.7294280 -0.302526E-07  0.858E-04    2.38      18.0  T
   5    -83.7294280 -0.359498E-08  0.157E-04    2.38      98.2  T
   6    -83.7294280 -0.390344E-09  0.372E-05    2.38     414.3  T
     SCC iter.                  ...        0 min,  0.026 sec
     gradient                   ...        0 min,  0.090 sec
 * total energy  :   -82.9665216 Eh     change       -0.4685007E-03 Eh
   gradient norm :     0.0161491 Eh/α   predicted    -0.3659899E-03 ( -21.88%)
   displ. norm   :     0.4871957 α      lambda       -0.6874134E-03
   maximum displ.:     0.2859367 α      in ANC's #5, #2, #9, ...

........................................................................
.............................. CYCLE   25 ..............................
........................................................................
   1    -83.7275600 -0.837276E+02  0.127E-02    2.38       0.0  T
   2    -83.7275652 -0.514112E-05  0.582E-03    2.38       2.7  T
   3    -83.7275656 -0.459516E-06  0.315E-03    2.38       4.9  T
   4    -83.7275657 -0.409584E-07  0.839E-04    2.38      18.4  T
   5    -83.7275657 -0.120231E-08  0.155E-04    2.38      99.8  T
   6    -83.7275657 -0.478380E-09  0.572E-05    2.38     269.6  T
     SCC iter.                  ...        0 min,  0.026 sec
     gradient                   ...        0 min,  0.084 sec
 * total energy  :   -82.9670958 Eh     change       -0.5742142E-03 Eh
   gradient norm :     0.0186650 Eh/α   predicted    -0.4253096E-03 ( -25.93%)
   displ. norm   :     0.4941959 α      lambda       -0.1207185E-02
   maximum displ.:     0.3111695 α      in ANC's #5, #2, #6, ...

........................................................................
.............................. CYCLE   26 ..............................
........................................................................
   1    -83.7282267 -0.837282E+02  0.209E-02    2.36       0.0  T
   2    -83.7282499 -0.231570E-04  0.869E-03    2.37       1.8  T
   3    -83.7282521 -0.221738E-05  0.356E-03    2.37       4.3  T
   4    -83.7282521 -0.285774E-07  0.151E-03    2.37      10.2  T
   5    -83.7282522 -0.700111E-08  0.327E-04    2.37      47.2  T
   6    -83.7282522 -0.152687E-08  0.106E-04    2.37     145.4  T
   7    -83.7282522 -0.157286E-09  0.297E-05    2.37     520.3  T
     SCC iter.                  ...        0 min,  0.025 sec
     gradient                   ...        0 min,  0.084 sec
 * total energy  :   -82.9680289 Eh     change       -0.9330358E-03 Eh
   gradient norm :     0.0135874 Eh/α   predicted    -0.7510117E-03 ( -19.51%)
   displ. norm   :     0.5689242 α      lambda       -0.1049587E-02
   maximum displ.:     0.3772868 α      in ANC's #5, #2, #9, ...

........................................................................
.............................. CYCLE   27 ..............................
........................................................................
   1    -83.7277299 -0.837277E+02  0.227E-02    2.35       0.0  T
   2    -83.7277578 -0.279016E-04  0.965E-03    2.35       1.6  T
   3    -83.7277607 -0.290116E-05  0.375E-03    2.35       4.1  T
   4    -83.7277607 -0.229400E-07  0.166E-03    2.36       9.3  T
   5    -83.7277607 -0.792942E-08  0.362E-04    2.36      42.6  T
   6    -83.7277607 -0.228177E-08  0.999E-05    2.36     154.5  T
   7    -83.7277607 -0.177806E-09  0.272E-05    2.36     566.4  T
     SCC iter.                  ...        0 min,  0.025 sec
     gradient                   ...        0 min,  0.084 sec
 * total energy  :   -82.9688407 Eh     change       -0.8117985E-03 Eh
   gradient norm :     0.0155860 Eh/α   predicted    -0.6946600E-03 ( -14.43%)
   displ. norm   :     0.4259106 α      lambda       -0.1128363E-02
   maximum displ.:     0.2833142 α      in ANC's #5, #2, #1, ...

........................................................................
.............................. CYCLE   28 ..............................
........................................................................
   1    -83.7348666 -0.837349E+02  0.297E-02    2.33       0.0  T
   2    -83.7349041 -0.375159E-04  0.151E-02    2.34       1.0  T
   3    -83.7349073 -0.319635E-05  0.842E-03    2.34       1.8  T
   4    -83.7349074 -0.755380E-07  0.243E-03    2.34       6.3  T
   5    -83.7349074 -0.288060E-07  0.372E-04    2.34      41.5  T
   6    -83.7349074 -0.437663E-08  0.778E-05    2.34     198.4  T
   7    -83.7349074 -0.131308E-09  0.246E-05    2.34     628.2  T
     SCC iter.                  ...        0 min,  0.025 sec
     gradient                   ...        0 min,  0.086 sec
 * total energy  :   -82.9692714 Eh     change       -0.4307656E-03 Eh
   gradient norm :     0.0179691 Eh/α   predicted    -0.6665315E-03 (  54.73%)
   displ. norm   :     0.5563092 α      lambda       -0.1079797E-02
   maximum displ.:     0.3598829 α      in ANC's #5, #2, #9, ...

........................................................................
.............................. CYCLE   29 ..............................
........................................................................
   1    -83.7287719 -0.837288E+02  0.223E-02    2.33       0.0  T
   2    -83.7287810 -0.908698E-05  0.115E-02    2.34       1.3  T
   3    -83.7287816 -0.627536E-06  0.638E-03    2.34       2.4  T
   4    -83.7287817 -0.145319E-06  0.127E-03    2.34      12.2  T
   5    -83.7287818 -0.264224E-07  0.246E-04    2.34      62.8  T
   6    -83.7287818 -0.173510E-08  0.734E-05    2.34     210.3  T
   7    -83.7287818 -0.144027E-09  0.276E-05    2.34     559.6  T
     SCC iter.                  ...        0 min,  0.028 sec
     gradient                   ...        0 min,  0.089 sec
 * total energy  :   -82.9697736 Eh     change       -0.5021833E-03 Eh
   gradient norm :     0.0169136 Eh/α   predicted    -0.7069897E-03 (  40.78%)
   displ. norm   :     0.0806116 α      lambda       -0.3599391E-03
   maximum displ.:     0.0407018 α      in ANC's #4, #6, #5, ...

........................................................................
.............................. CYCLE   30 ..............................
........................................................................
   1    -83.7323057 -0.837323E+02  0.131E-02    2.35       0.0  T
   2    -83.7323106 -0.492952E-05  0.589E-03    2.34       2.6  T
   3    -83.7323111 -0.513147E-06  0.313E-03    2.34       4.9  T
   4    -83.7323112 -0.131746E-07  0.843E-04    2.34      18.3  T
   5    -83.7323112 -0.715069E-08  0.148E-04    2.34     104.0  T
   6    -83.7323112 -0.474884E-09  0.375E-05    2.34     412.0  T
     SCC iter.                  ...        0 min,  0.026 sec
     gradient                   ...        0 min,  0.088 sec
 * total energy  :   -82.9700254 Eh     change       -0.2518276E-03 Eh
   gradient norm :     0.0079431 Eh/α   predicted    -0.1811668E-03 ( -28.06%)
   displ. norm   :     0.2814965 α      lambda       -0.3209902E-03
   maximum displ.:     0.1591861 α      in ANC's #2, #5, #1, ...

........................................................................
.............................. CYCLE   31 ..............................
........................................................................
   1    -83.7345153 -0.837345E+02  0.116E-02    2.34       0.0  T
   2    -83.7345183 -0.298530E-05  0.500E-03    2.34       3.1  T
   3    -83.7345184 -0.957738E-07  0.270E-03    2.34       5.7  T
   4    -83.7345184 -0.894997E-08  0.681E-04    2.34      22.7  T
   5    -83.7345184 -0.546942E-08  0.112E-04    2.34     137.9  T
   6    -83.7345184 -0.300034E-09  0.385E-05    2.34     401.2  T
     SCC iter.                  ...        0 min,  0.022 sec
     gradient                   ...        0 min,  0.084 sec
 * total energy  :   -82.9702243 Eh     change       -0.1988487E-03 Eh
   gradient norm :     0.0031473 Eh/α   predicted    -0.1732148E-03 ( -12.89%)
   displ. norm   :     0.1539122 α      lambda       -0.8458574E-04
   maximum displ.:     0.0780402 α      in ANC's #2, #1, #5, ...

........................................................................
.............................. CYCLE   32 ..............................
........................................................................
   1    -83.7351827 -0.837352E+02  0.457E-03    2.34       0.0  T
   2    -83.7351833 -0.595741E-06  0.171E-03    2.34       9.0  T
   3    -83.7351834 -0.224716E-07  0.956E-04    2.34      16.1  T
   4    -83.7351834 -0.291955E-08  0.317E-04    2.34      48.7  T
   5    -83.7351834 -0.512401E-09  0.437E-05    2.34     353.3  T
   6    -83.7351834 -0.291607E-10  0.178E-05    2.34     868.2  T
     SCC iter.                  ...        0 min,  0.021 sec
     gradient                   ...        0 min,  0.084 sec
 * total energy  :   -82.9702844 Eh     change       -0.6006624E-04 Eh
   gradient norm :     0.0034637 Eh/α   predicted    -0.4329621E-04 ( -27.92%)
   displ. norm   :     0.1488660 α      lambda       -0.7770048E-04
   maximum displ.:     0.0870926 α      in ANC's #1, #2, #4, ...

........................................................................
.............................. CYCLE   33 ..............................
........................................................................
   1    -83.7349220 -0.837349E+02  0.317E-03    2.34       0.0  T
   2    -83.7349224 -0.391292E-06  0.179E-03    2.34       8.6  T
   3    -83.7349224 -0.318327E-07  0.943E-04    2.34      16.4  T
   4    -83.7349224 -0.149079E-08  0.271E-04    2.34      57.0  T
   5    -83.7349224 -0.390102E-09  0.577E-05    2.34     267.4  T
   6    -83.7349224 -0.111129E-09  0.157E-05    2.34     985.2  T
     SCC iter.                  ...        0 min,  0.021 sec
     gradient                   ...        0 min,  0.084 sec
 * total energy  :   -82.9703384 Eh     change       -0.5400847E-04 Eh
   gradient norm :     0.0031699 Eh/α   predicted    -0.3971161E-04 ( -26.47%)
   displ. norm   :     0.1317269 α      lambda       -0.6007073E-04
   maximum displ.:     0.0746483 α      in ANC's #1, #4, #7, ...

........................................................................
.............................. CYCLE   34 ..............................
........................................................................
   1    -83.7347794 -0.837348E+02  0.306E-03    2.34       0.0  T
   2    -83.7347798 -0.459130E-06  0.123E-03    2.33      12.6  T
   3    -83.7347798 -0.262168E-07  0.596E-04    2.34      25.9  T
   4    -83.7347798 -0.198085E-09  0.250E-04    2.34      61.8  T
   5    -83.7347798 -0.332150E-09  0.398E-05    2.34     388.1  T
   6    -83.7347798 -0.345182E-10  0.134E-05    2.34    1148.8  T
     SCC iter.                  ...        0 min,  0.021 sec
     gradient                   ...        0 min,  0.085 sec
 * total energy  :   -82.9703801 Eh     change       -0.4172454E-04 Eh
   gradient norm :     0.0032141 Eh/α   predicted    -0.3056280E-04 ( -26.75%)
   displ. norm   :     0.1164364 α      lambda       -0.4382510E-04
   maximum displ.:     0.0719948 α      in ANC's #1, #6, #4, ...

........................................................................
.............................. CYCLE   35 ..............................
........................................................................
   1    -83.7342013 -0.837342E+02  0.428E-03    2.33       0.0  T
   2    -83.7342018 -0.482803E-06  0.146E-03    2.33      10.6  T
   3    -83.7342018 -0.401372E-07  0.814E-04    2.33      19.0  T
   4    -83.7342018 -0.307615E-08  0.282E-04    2.33      54.7  T
   5    -83.7342018 -0.459977E-09  0.466E-05    2.33     330.9  T
   6    -83.7342018 -0.324150E-10  0.140E-05    2.33    1098.5  T
     SCC iter.                  ...        0 min,  0.021 sec
     gradient                   ...        0 min,  0.084 sec
 * total energy  :   -82.9704108 Eh     change       -0.3069679E-04 Eh
   gradient norm :     0.0025566 Eh/α   predicted    -0.2221329E-04 ( -27.64%)
   displ. norm   :     0.0847088 α      lambda       -0.3027129E-04
   maximum displ.:     0.0525144 α      in ANC's #1, #6, #7, ...

........................................................................
.............................. CYCLE   36 ..............................
........................................................................
   1    -83.7341847 -0.837342E+02  0.338E-03    2.34       0.0  T
   2    -83.7341849 -0.241251E-06  0.130E-03    2.34      11.9  T
   3    -83.7341849 -0.200330E-07  0.753E-04    2.34      20.5  T
   4    -83.7341849 -0.157698E-08  0.183E-04    2.34      84.5  T
   5    -83.7341849 -0.490274E-09  0.446E-05    2.34     345.6  T
     SCC iter.                  ...        0 min,  0.019 sec
     gradient                   ...        0 min,  0.084 sec
 * total energy  :   -82.9704342 Eh     change       -0.2339459E-04 Eh
   gradient norm :     0.0019143 Eh/α   predicted    -0.1524460E-04 ( -34.84%)
   displ. norm   :     0.1622056 α      lambda       -0.3656963E-04
   maximum displ.:     0.1087953 α      in ANC's #1, #6, #14, ...

........................................................................
.............................. CYCLE   37 ..............................
........................................................................
   1    -83.7340747 -0.837341E+02  0.522E-03    2.34       0.0  T
   2    -83.7340753 -0.598142E-06  0.185E-03    2.34       8.4  T
   3    -83.7340753 -0.322530E-07  0.110E-03    2.34      14.1  T
   4    -83.7340753 -0.437683E-08  0.315E-04    2.34      49.1  T
   5    -83.7340753 -0.128746E-08  0.694E-05    2.34     222.3  T
   6    -83.7340753 -0.610925E-10  0.250E-05    2.34     618.1  T
     SCC iter.                  ...        0 min,  0.022 sec
     gradient                   ...        0 min,  0.084 sec
 * total energy  :   -82.9704700 Eh     change       -0.3585082E-04 Eh
   gradient norm :     0.0027535 Eh/α   predicted    -0.1849951E-04 ( -48.40%)
   displ. norm   :     0.0909480 α      lambda       -0.2966404E-04
   maximum displ.:     0.0678728 α      in ANC's #1, #6, #14, ...

........................................................................
.............................. CYCLE   38 ..............................
........................................................................
   1    -83.7343515 -0.837344E+02  0.142E-03    2.34       0.0  T
   2    -83.7343516 -0.886810E-07  0.549E-04    2.34      28.1  T
   3    -83.7343516 -0.305057E-08  0.313E-04    2.34      49.2  T
   4    -83.7343516 -0.170758E-09  0.129E-04    2.34     119.9  T
   5    -83.7343516 -0.109338E-09  0.268E-05    2.34     575.9  T
     SCC iter.                  ...        0 min,  0.018 sec
     gradient                   ...        0 min,  0.084 sec
 * total energy  :   -82.9704963 Eh     change       -0.2625692E-04 Eh
   gradient norm :     0.0026724 Eh/α   predicted    -0.1495709E-04 ( -43.04%)
   displ. norm   :     0.2220884 α      lambda       -0.7325500E-04
   maximum displ.:     0.1604010 α      in ANC's #1, #6, #14, ...

........................................................................
.............................. CYCLE   39 ..............................
........................................................................
   1    -83.7342217 -0.837342E+02  0.375E-03    2.34       0.0  T
   2    -83.7342220 -0.353730E-06  0.161E-03    2.34       9.6  T
   3    -83.7342220 -0.272390E-07  0.872E-04    2.34      17.7  T
   4    -83.7342220 -0.347534E-08  0.272E-04    2.34      56.7  T
   5    -83.7342220 -0.475140E-09  0.716E-05    2.34     215.4  T
   6    -83.7342220 -0.539728E-10  0.214E-05    2.34     721.2  T
     SCC iter.                  ...        0 min,  0.026 sec
     gradient                   ...        0 min,  0.093 sec
 * total energy  :   -82.9705537 Eh     change       -0.5738242E-04 Eh
   gradient norm :     0.0028733 Eh/α   predicted    -0.3843541E-04 ( -33.02%)
   displ. norm   :     0.2639137 α      lambda       -0.6679470E-04
   maximum displ.:     0.1964121 α      in ANC's #1, #6, #14, ...

........................................................................
.............................. CYCLE   40 ..............................
........................................................................
   1    -83.7338416 -0.837338E+02  0.401E-03    2.35       0.0  T
   2    -83.7338419 -0.395489E-06  0.176E-03    2.35       8.7  T
   3    -83.7338420 -0.377026E-07  0.976E-04    2.35      15.8  T
   4    -83.7338420 -0.334595E-08  0.243E-04    2.35      63.5  T
   5    -83.7338420 -0.560433E-09  0.779E-05    2.35     198.1  T
   6    -83.7338420 -0.542855E-10  0.218E-05    2.35     708.4  T
     SCC iter.                  ...        0 min,  0.027 sec
     gradient                   ...        0 min,  0.092 sec
 * total energy  :   -82.9706050 Eh     change       -0.5135125E-04 Eh
   gradient norm :     0.0034226 Eh/α   predicted    -0.3572462E-04 ( -30.43%)
   displ. norm   :     0.2079282 α      lambda       -0.5267633E-04
   maximum displ.:     0.1579737 α      in ANC's #1, #6, #9, ...

........................................................................
.............................. CYCLE   41 ..............................
........................................................................
   1    -83.7337949 -0.837338E+02  0.282E-03    2.35       0.0  T
   2    -83.7337951 -0.225606E-06  0.131E-03    2.35      11.7  T
   3    -83.7337951 -0.210036E-07  0.707E-04    2.35      21.8  T
   4    -83.7337951 -0.171114E-08  0.180E-04    2.35      85.9  T
   5    -83.7337951 -0.269608E-09  0.662E-05    2.35     233.0  T
     SCC iter.                  ...        0 min,  0.023 sec
     gradient                   ...        0 min,  0.092 sec
 * total energy  :   -82.9706497 Eh     change       -0.4469726E-04 Eh
   gradient norm :     0.0029982 Eh/α   predicted    -0.2747857E-04 ( -38.52%)
   displ. norm   :     0.2292581 α      lambda       -0.6636560E-04
   maximum displ.:     0.1743558 α      in ANC's #1, #6, #9, ...

........................................................................
.............................. CYCLE   42 ..............................
........................................................................
   1    -83.7342844 -0.837343E+02  0.270E-03    2.34       0.0  T
   2    -83.7342847 -0.285429E-06  0.137E-03    2.34      11.2  T
   3    -83.7342847 -0.193601E-07  0.745E-04    2.34      20.7  T
   4    -83.7342847 -0.145529E-08  0.215E-04    2.34      71.8  T
   5    -83.7342847 -0.295671E-09  0.607E-05    2.34     254.0  T
   6    -83.7342847 -0.269722E-10  0.176E-05    2.34     878.2  T
     SCC iter.                  ...        0 min,  0.027 sec
     gradient                   ...        0 min,  0.093 sec
 * total energy  :   -82.9707045 Eh     change       -0.5480925E-04 Eh
   gradient norm :     0.0022081 Eh/α   predicted    -0.3492833E-04 ( -36.27%)
   displ. norm   :     0.2851102 α      lambda       -0.7074614E-04
   maximum displ.:     0.2176782 α      in ANC's #1, #6, #9, ...
 * RMSD in coord.:     0.7060034 α      energy gain  -0.5774355E-02 Eh

generating ANC from model Hessian ...
Using Lindh-Hessian (1995)
 Shifting diagonal of input Hessian by   9.808802385198786E-003
 Lowest  eigenvalues of input Hessian
    0.000000    0.000000    0.000000    0.000000    0.000000    0.000000
    0.010000    0.010339    0.010815    0.010953    0.011563    0.011973
    0.013789    0.014187    0.014760    0.015382    0.015771    0.018308
 Highest eigenvalues
    2.055609    2.130839    2.153886    2.266319    2.405320    2.433571
 

........................................................................
.............................. CYCLE   43 ..............................
........................................................................
   1    -83.7337688 -0.837338E+02  0.346E-03    2.34       0.0  T
   2    -83.7337691 -0.347670E-06  0.154E-03    2.34      10.0  T
   3    -83.7337692 -0.231599E-07  0.793E-04    2.34      19.5  T
   4    -83.7337692 -0.339078E-08  0.252E-04    2.34      61.2  T
   5    -83.7337692 -0.241513E-09  0.757E-05    2.34     203.9  T
   6    -83.7337692 -0.318323E-10  0.187E-05    2.34     825.5  T
     SCC iter.                  ...        0 min,  0.026 sec
     gradient                   ...        0 min,  0.089 sec
 * total energy  :   -82.9707614 Eh     change       -0.5683886E-04 Eh
   gradient norm :     0.0030836 Eh/α   predicted     0.0000000E+00 (-100.00%)
   displ. norm   :     0.0342848 α      lambda       -0.2886855E-04
   maximum displ.:     0.0204541 α      in ANC's #1, #5, #9, ...

........................................................................
.............................. CYCLE   44 ..............................
........................................................................
   1    -83.7349782 -0.837350E+02  0.222E-03    2.34       0.0  T
   2    -83.7349784 -0.128804E-06  0.116E-03    2.34      13.4  T
   3    -83.7349784 -0.967519E-08  0.631E-04    2.34      24.5  T
   4    -83.7349784 -0.661188E-09  0.132E-04    2.34     117.2  T
   5    -83.7349784 -0.154287E-09  0.293E-05    2.34     526.8  T
     SCC iter.                  ...        0 min,  0.022 sec
     gradient                   ...        0 min,  0.091 sec
 * total energy  :   -82.9707849 Eh     change       -0.2353630E-04 Eh
   gradient norm :     0.0013772 Eh/α   predicted    -0.1457017E-04 ( -38.09%)
   displ. norm   :     0.1351581 α      lambda       -0.4412499E-04
   maximum displ.:     0.0824239 α      in ANC's #1, #5, #9, ...

........................................................................
.............................. CYCLE   45 ..............................
........................................................................
   1    -83.7366806 -0.837367E+02  0.528E-03    2.35       0.0  T
   2    -83.7366814 -0.804688E-06  0.261E-03    2.34       5.9  T
   3    -83.7366814 -0.543905E-07  0.141E-03    2.35      11.0  T
   4    -83.7366814 -0.370564E-08  0.371E-04    2.35      41.6  T
   5    -83.7366814 -0.106439E-08  0.721E-05    2.35     214.0  T
   6    -83.7366814 -0.689653E-10  0.260E-05    2.35     592.5  T
     SCC iter.                  ...        0 min,  0.026 sec
     gradient                   ...        0 min,  0.088 sec
 * total energy  :   -82.9708214 Eh     change       -0.3650742E-04 Eh
   gradient norm :     0.0027968 Eh/α   predicted    -0.2224226E-04 ( -39.07%)
   displ. norm   :     0.0557086 α      lambda       -0.1889316E-04
   maximum displ.:     0.0377324 α      in ANC's #1, #3, #9, ...

........................................................................
.............................. CYCLE   46 ..............................
........................................................................
   1    -83.7362521 -0.837363E+02  0.113E-03    2.34       0.0  T
   2    -83.7362522 -0.274207E-07  0.526E-04    2.34      29.4  T
   3    -83.7362522 -0.150098E-08  0.268E-04    2.34      57.6  T
   4    -83.7362522 -0.195655E-09  0.847E-05    2.34     182.2  T
   5    -83.7362522 -0.584208E-10  0.159E-05    2.34     969.3  T
     SCC iter.                  ...        0 min,  0.018 sec
     gradient                   ...        0 min,  0.084 sec
 * total energy  :   -82.9708391 Eh     change       -0.1769228E-04 Eh
   gradient norm :     0.0023980 Eh/α   predicted    -0.9476436E-05 ( -46.44%)
   displ. norm   :     0.1662644 α      lambda       -0.5836331E-04
   maximum displ.:     0.1072215 α      in ANC's #1, #3, #9, ...

........................................................................
.............................. CYCLE   47 ..............................
........................................................................
   1    -83.7346436 -0.837346E+02  0.319E-03    2.34       0.0  T
   2    -83.7346438 -0.161525E-06  0.145E-03    2.34      10.7  T
   3    -83.7346438 -0.988216E-08  0.748E-04    2.34      20.6  T
   4    -83.7346438 -0.218994E-08  0.219E-04    2.34      70.5  T
   5    -83.7346438 -0.316163E-09  0.488E-05    2.34     316.4  T
   6    -83.7346438 -0.270575E-10  0.149E-05    2.34    1033.8  T
     SCC iter.                  ...        0 min,  0.021 sec
     gradient                   ...        0 min,  0.084 sec
 * total energy  :   -82.9708865 Eh     change       -0.4735059E-04 Eh
   gradient norm :     0.0016712 Eh/α   predicted    -0.2999133E-04 ( -36.66%)
   displ. norm   :     0.3116282 α      lambda       -0.5097549E-04
   maximum displ.:     0.2044253 α      in ANC's #1, #3, #9, ...

........................................................................
.............................. CYCLE   48 ..............................
........................................................................
   1    -83.7320279 -0.837320E+02  0.543E-03    2.34       0.0  T
   2    -83.7320285 -0.516668E-06  0.239E-03    2.34       6.5  T
   3    -83.7320285 -0.413665E-07  0.132E-03    2.34      11.7  T
   4    -83.7320285 -0.101719E-07  0.386E-04    2.34      40.0  T
   5    -83.7320285 -0.652534E-09  0.941E-05    2.34     164.0  T
   6    -83.7320285 -0.975433E-10  0.277E-05    2.34     557.7  T
     SCC iter.                  ...        0 min,  0.021 sec
     gradient                   ...        0 min,  0.085 sec
 * total energy  :   -82.9709263 Eh     change       -0.3980715E-04 Eh
   gradient norm :     0.0044885 Eh/α   predicted    -0.2658840E-04 ( -33.21%)
   displ. norm   :     0.0399978 α      lambda       -0.2328249E-04
   maximum displ.:     0.0296533 α      in ANC's #1, #3, #5, ...

........................................................................
.............................. CYCLE   49 ..............................
........................................................................
   1    -83.7331132 -0.837331E+02  0.218E-03    2.34       0.0  T
   2    -83.7331133 -0.113547E-06  0.963E-04    2.34      16.0  T
   3    -83.7331133 -0.134977E-07  0.555E-04    2.34      27.8  T
   4    -83.7331133 -0.736620E-09  0.902E-05    2.34     171.0  T
   5    -83.7331133 -0.921148E-10  0.196E-05    2.34     788.4  T
     SCC iter.                  ...        0 min,  0.018 sec
     gradient                   ...        0 min,  0.085 sec
 * total energy  :   -82.9709471 Eh     change       -0.2081884E-04 Eh
   gradient norm :     0.0031573 Eh/α   predicted    -0.1166592E-04 ( -43.96%)
   displ. norm   :     0.1431410 α      lambda       -0.6901318E-04
   maximum displ.:     0.1026220 α      in ANC's #1, #3, #5, ...

........................................................................
.............................. CYCLE   50 ..............................
........................................................................
   1    -83.7360383 -0.837360E+02  0.570E-03    2.34       0.0  T
   2    -83.7360392 -0.935035E-06  0.260E-03    2.34       5.9  T
   3    -83.7360393 -0.112424E-06  0.142E-03    2.34      10.9  T
   4    -83.7360393 -0.394091E-08  0.294E-04    2.34      52.5  T
   5    -83.7360393 -0.634671E-09  0.638E-05    2.34     241.9  T
   6    -83.7360393 -0.955112E-10  0.178E-05    2.34     868.9  T
     SCC iter.                  ...        0 min,  0.026 sec
     gradient                   ...        0 min,  0.091 sec
 * total energy  :   -82.9709956 Eh     change       -0.4852744E-04 Eh
   gradient norm :     0.0015068 Eh/α   predicted    -0.3521556E-04 ( -27.43%)
   displ. norm   :     0.2654339 α      lambda       -0.3891338E-04
   maximum displ.:     0.1921268 α      in ANC's #1, #3, #9, ...

........................................................................
.............................. CYCLE   51 ..............................
........................................................................
   1    -83.7372972 -0.837373E+02  0.457E-03    2.34       0.0  T
   2    -83.7372982 -0.952085E-06  0.207E-03    2.34       7.4  T
   3    -83.7372983 -0.116109E-06  0.943E-04    2.34      16.4  T
   4    -83.7372983 -0.297723E-08  0.348E-04    2.34      44.3  T
   5    -83.7372983 -0.234763E-09  0.100E-04    2.34     154.4  T
   6    -83.7372983 -0.114014E-09  0.265E-05    2.34     582.9  T
     SCC iter.                  ...        0 min,  0.026 sec
     gradient                   ...        0 min,  0.091 sec
 * total energy  :   -82.9710415 Eh     change       -0.4587777E-04 Eh
   gradient norm :     0.0031821 Eh/α   predicted    -0.2007472E-04 ( -56.24%)
   displ. norm   :     0.1711164 α      lambda       -0.3611442E-04
   maximum displ.:     0.1226681 α      in ANC's #1, #3, #9, ...

........................................................................
.............................. CYCLE   52 ..............................
........................................................................
   1    -83.7365426 -0.837365E+02  0.242E-03    2.34       0.0  T
   2    -83.7365427 -0.131017E-06  0.106E-03    2.34      14.6  T
   3    -83.7365427 -0.117764E-07  0.580E-04    2.34      26.6  T
   4    -83.7365427 -0.279607E-08  0.192E-04    2.34      80.4  T
   5    -83.7365427 -0.309655E-10  0.474E-05    2.34     325.4  T
     SCC iter.                  ...        0 min,  0.022 sec
     gradient                   ...        0 min,  0.090 sec
 * total energy  :   -82.9710744 Eh     change       -0.3294424E-04 Eh
   gradient norm :     0.0023928 Eh/α   predicted    -0.1858849E-04 ( -43.58%)
   displ. norm   :     0.1593911 α      lambda       -0.3646189E-04
   maximum displ.:     0.1151540 α      in ANC's #1, #3, #9, ...

........................................................................
.............................. CYCLE   53 ..............................
........................................................................
   1    -83.7355425 -0.837355E+02  0.254E-03    2.34       0.0  T
   2    -83.7355426 -0.123510E-06  0.119E-03    2.34      13.0  T
   3    -83.7355426 -0.104522E-07  0.649E-04    2.34      23.8  T
   4    -83.7355426 -0.182115E-08  0.186E-04    2.34      82.9  T
   5    -83.7355426 -0.120352E-09  0.373E-05    2.34     413.6  T
     SCC iter.                  ...        0 min,  0.018 sec
     gradient                   ...        0 min,  0.084 sec
 * total energy  :   -82.9711072 Eh     change       -0.3275154E-04 Eh
   gradient norm :     0.0013716 Eh/α   predicted    -0.1869579E-04 ( -42.92%)
   displ. norm   :     0.2468313 α      lambda       -0.3637122E-04
   maximum displ.:     0.1806294 α      in ANC's #1, #3, #9, ...

........................................................................
.............................. CYCLE   54 ..............................
........................................................................
   1    -83.7342361 -0.837342E+02  0.361E-03    2.34       0.0  T
   2    -83.7342365 -0.401091E-06  0.181E-03    2.34       8.5  T
   3    -83.7342365 -0.349462E-07  0.980E-04    2.34      15.7  T
   4    -83.7342366 -0.277961E-08  0.309E-04    2.34      49.9  T
   5    -83.7342366 -0.486310E-09  0.667E-05    2.34     231.3  T
   6    -83.7342366 -0.599130E-10  0.253E-05    2.34     609.9  T
     SCC iter.                  ...        0 min,  0.021 sec
     gradient                   ...        0 min,  0.085 sec
 * total energy  :   -82.9711524 Eh     change       -0.4525484E-04 Eh
   gradient norm :     0.0021051 Eh/α   predicted    -0.1867932E-04 ( -58.72%)
   displ. norm   :     0.1326278 α      lambda       -0.2754143E-04
   maximum displ.:     0.1002045 α      in ANC's #1, #3, #9, ...

........................................................................
.............................. CYCLE   55 ..............................
........................................................................
   1    -83.7341623 -0.837342E+02  0.140E-03    2.34       0.0  T
   2    -83.7341624 -0.889454E-07  0.702E-04    2.34      22.0  T
   3    -83.7341624 -0.851045E-08  0.392E-04    2.34      39.4  T
   4    -83.7341624 -0.517687E-09  0.140E-04    2.34     110.0  T
   5    -83.7341624 -0.597851E-10  0.324E-05    2.34     475.7  T
     SCC iter.                  ...        0 min,  0.018 sec
     gradient                   ...        0 min,  0.085 sec
 * total energy  :   -82.9711779 Eh     change       -0.2544619E-04 Eh
   gradient norm :     0.0022758 Eh/α   predicted    -0.1401360E-04 ( -44.93%)
   displ. norm   :     0.1503349 α      lambda       -0.3354983E-04
   maximum displ.:     0.1158116 α      in ANC's #1, #3, #9, ...

........................................................................
.............................. CYCLE   56 ..............................
........................................................................
   1    -83.7345474 -0.837345E+02  0.173E-03    2.34       0.0  T
   2    -83.7345475 -0.121498E-06  0.789E-04    2.34      19.5  T
   3    -83.7345475 -0.127035E-07  0.457E-04    2.34      33.8  T
   4    -83.7345475 -0.902574E-09  0.150E-04    2.34     103.0  T
   5    -83.7345475 -0.248690E-10  0.324E-05    2.34     476.0  T
     SCC iter.                  ...        0 min,  0.018 sec
     gradient                   ...        0 min,  0.084 sec
 * total energy  :   -82.9712081 Eh     change       -0.3019834E-04 Eh
   gradient norm :     0.0019588 Eh/α   predicted    -0.1715549E-04 ( -43.19%)
   displ. norm   :     0.2496606 α      lambda       -0.3421670E-04
   maximum displ.:     0.1967743 α      in ANC's #1, #3, #9, ...

........................................................................
.............................. CYCLE   57 ..............................
........................................................................
   1    -83.7350858 -0.837351E+02  0.267E-03    2.34       0.0  T
   2    -83.7350860 -0.245047E-06  0.120E-03    2.34      12.8  T
   3    -83.7350860 -0.252688E-07  0.699E-04    2.34      22.1  T
   4    -83.7350860 -0.237721E-08  0.215E-04    2.34      71.7  T
   5    -83.7350860 -0.640199E-10  0.495E-05    2.34     312.0  T
   6    -83.7350860 -0.337081E-10  0.176E-05    2.34     876.2  T
     SCC iter.                  ...        0 min,  0.021 sec
     gradient                   ...        0 min,  0.084 sec
 * total energy  :   -82.9712504 Eh     change       -0.4236905E-04 Eh
   gradient norm :     0.0013680 Eh/α   predicted    -0.1758333E-04 ( -58.50%)
   displ. norm   :     0.1721056 α      lambda       -0.1961864E-04
   maximum displ.:     0.1410655 α      in ANC's #1, #3, #9, ...

........................................................................
.............................. CYCLE   58 ..............................
........................................................................
   1    -83.7352529 -0.837353E+02  0.134E-03    2.34       0.0  T
   2    -83.7352530 -0.522391E-07  0.741E-04    2.34      20.8  T
   3    -83.7352530 -0.477563E-08  0.414E-04    2.34      37.3  T
   4    -83.7352530 -0.342609E-09  0.988E-05    2.34     156.2  T
   5    -83.7352530 -0.757012E-10  0.293E-05    2.34     525.9  T
     SCC iter.                  ...        0 min,  0.018 sec
     gradient                   ...        0 min,  0.084 sec
 * total energy  :   -82.9712769 Eh     change       -0.2643330E-04 Eh
   gradient norm :     0.0009952 Eh/α   predicted    -0.9941907E-05 ( -62.39%)
   displ. norm   :     0.1237934 α      lambda       -0.1532613E-04
   maximum displ.:     0.1051907 α      in ANC's #1, #3, #9, ...

........................................................................
.............................. CYCLE   59 ..............................
........................................................................
   1    -83.7355248 -0.837355E+02  0.127E-03    2.35       0.0  T
   2    -83.7355248 -0.697307E-07  0.623E-04    2.35      24.8  T
   3    -83.7355248 -0.598165E-08  0.328E-04    2.35      47.0  T
   4    -83.7355248 -0.146599E-09  0.101E-04    2.35     153.5  T
   5    -83.7355248 -0.524807E-10  0.226E-05    2.35     682.5  T
     SCC iter.                  ...        0 min,  0.018 sec
     gradient                   ...        0 min,  0.084 sec
 * total energy  :   -82.9712985 Eh     change       -0.2165248E-04 Eh
   gradient norm :     0.0006535 Eh/α   predicted    -0.7719584E-05 ( -64.35%)
   displ. norm   :     0.1183067 α      lambda       -0.1625904E-04
   maximum displ.:     0.1015242 α      in ANC's #1, #3, #9, ...

........................................................................
.............................. CYCLE   60 ..............................
........................................................................
   1    -83.7357282 -0.837357E+02  0.134E-03    2.35       0.0  T
   2    -83.7357283 -0.964913E-07  0.633E-04    2.35      24.4  T
   3    -83.7357283 -0.101945E-07  0.299E-04    2.35      51.6  T
   4    -83.7357283 -0.255824E-09  0.116E-04    2.35     133.6  T
   5    -83.7357283 -0.195399E-10  0.267E-05    2.35     577.4  T
     SCC iter.                  ...        0 min,  0.018 sec
     gradient                   ...        0 min,  0.084 sec
 * total energy  :   -82.9713213 Eh     change       -0.2275618E-04 Eh
   gradient norm :     0.0007256 Eh/α   predicted    -0.8185010E-05 ( -64.03%)
   displ. norm   :     0.1267212 α      lambda       -0.1785895E-04
   maximum displ.:     0.1082532 α      in ANC's #1, #3, #2, ...

........................................................................
.............................. CYCLE   61 ..............................
........................................................................
   1    -83.7358553 -0.837359E+02  0.165E-03    2.35       0.0  T
   2    -83.7358554 -0.132785E-06  0.699E-04    2.35      22.1  T
   3    -83.7358555 -0.146881E-07  0.315E-04    2.35      49.0  T
   4    -83.7358555 -0.357346E-09  0.119E-04    2.35     129.7  T
   5    -83.7358555 -0.299991E-10  0.334E-05    2.35     462.2  T
     SCC iter.                  ...        0 min,  0.018 sec
     gradient                   ...        0 min,  0.084 sec
 * total energy  :   -82.9713459 Eh     change       -0.2463524E-04 Eh
   gradient norm :     0.0008457 Eh/α   predicted    -0.8993738E-05 ( -63.49%)
   displ. norm   :     0.1355971 α      lambda       -0.1837943E-04
   maximum displ.:     0.1153506 α      in ANC's #1, #2, #3, ...

........................................................................
.............................. CYCLE   62 ..............................
........................................................................
   1    -83.7358522 -0.837359E+02  0.126E-03    2.35       0.0  T
   2    -83.7358522 -0.650671E-07  0.592E-04    2.35      26.1  T
   3    -83.7358522 -0.590045E-08  0.309E-04    2.35      50.0  T
   4    -83.7358522 -0.523812E-09  0.111E-04    2.35     139.2  T
   5    -83.7358522 -0.170530E-10  0.245E-05    2.35     630.6  T
     SCC iter.                  ...        0 min,  0.017 sec
     gradient                   ...        0 min,  0.084 sec
 * total energy  :   -82.9713710 Eh     change       -0.2511619E-04 Eh
[...]
H32-C10-C9=109.41              H33-C10-C9=110.15              H33-C10-H32=108.82             H34-C10-C9=110.00              
H34-C10-H32=109.21             H34-C10-H33=109.22             
 
 selected dihedral angles (degree)
 ---------------------------------
C3-O2-C1-H26=166.00           C3-O2-C1-H27=284.97           C3-O2-C1-H28= 46.56           C4-C3-O2-C1=215.73            
O5-C3-O2-C1=  0.43            C6-C3-O2-C1= 67.44            H29-C4-C3-O2=178.45           H29-C4-C3-O5= 33.97           
H29-C4-C3-C6=326.04           H30-C4-C3-O2= 58.77           H30-C4-C3-O5=274.29           H30-C4-C3-C6=206.36           
H31-C4-C3-O2=300.58           H31-C4-C3-O5=156.11           H31-C4-C3-C6= 88.18           C6-O5-C3-O2=108.04            
C6-O5-C3-C4=249.88            O5-C6-C3-O2=252.48            O5-C6-C3-C4=107.33            N7-C6-C3-O2=356.07            
N7-C6-C3-C4=210.91            N7-C6-C3-O5=103.59            C24-C6-C3-O2=148.32           C24-C6-C3-C4=  3.17           
C24-C6-C3-O5=255.84           N7-C6-O5-C3=255.38            C24-C6-O5-C3=108.08           C8-N7-C6-C3=136.60            
C8-N7-C6-O5=197.87            C8-N7-C6-C24=344.38           C9-C8-N7-C6=181.83            N21-C8-N7-C6=  2.21           
C10-C9-C8-N7=240.98           C10-C9-C8-N21= 60.63          C11-C9-C8-N7=118.02           C11-C9-C8-N21=297.66          
N12-C9-C8-N7=359.46           N12-C9-C8-N21=179.11          H32-C10-C9-C8=178.49          H32-C10-C9-C11=300.62         
H32-C10-C9-N12= 61.97         H33-C10-C9-C8=298.07          H33-C10-C9-C11= 60.21         H33-C10-C9-N12=181.56         
H34-C10-C9-C8= 58.51          H34-C10-C9-C11=180.65         H34-C10-C9-N12=302.00         
           -------------------------------------------------
          |                Final Singlepoint                |
           -------------------------------------------------

          ...................................................
          :                      SETUP                      :
          :.................................................:
          :  # basis functions                 134          :
          :  # atomic orbitals                 134          :
          :  # shells                           84          :
          :  # electrons                       134          :
          :  # halogen bonds                     0          :
          :  max. iterations                   250          :
          :  Hamiltonian                  GFN1-xTB          :
          :  restarted?                      false          :
          :  GBSA solvation                   true          :
          :  PC potential                    false          :
          :  electronic temp.          300.0000000     K    :
          :  accuracy                    1.0000000          :
          :  -> integral cutoff          0.2500000E+02      :
          :  -> integral neglect         0.1000000E-07      :
          :  -> SCF convergence          0.1000000E-05 Eh   :
          :  -> wf. convergence          0.2000000E-04 e    :
          :  Broyden damping             0.4000000          :
          ...................................................

 iter      E             dE          RMSdq      gap      omega  full diag
   1    -83.7369209 -0.837369E+02  0.102E-05    2.37       0.0  T
   2    -83.7369209 -0.153477E-11  0.465E-06    2.37    3317.1  T
   3    -83.7369209 -0.341061E-12  0.232E-06    2.37    6652.3  T

   *** convergence criteria satisfied after 3 iterations ***

         #    Occupation            Energy/Eh            Energy/eV
      -------------------------------------------------------------
         1        2.0000           -0.8653957             -23.5486
       ...           ...                  ...                  ...
        61        2.0000           -0.4741436             -12.9021
        62        2.0000           -0.4659329             -12.6787
        63        2.0000           -0.4626687             -12.5899
        64        2.0000           -0.4541576             -12.3583
        65        2.0000           -0.4525259             -12.3139
        66        2.0000           -0.4485558             -12.2058
        67        2.0000           -0.4389876             -11.9455 (HOMO)
        68                         -0.3518383              -9.5740 (LUMO)
        69                         -0.3117262              -8.4825
        70                         -0.2924401              -7.9577
        71                         -0.2585994              -7.0368
        72                         -0.2352639              -6.4019
       ...                                ...                  ...
       134                          0.7525007              20.4766
      -------------------------------------------------------------
                  HL-Gap            0.0871493 Eh            2.3715 eV
             Fermi-level           -0.3954130 Eh          -10.7597 eV

 SCC (total)                   0 d,  0 h,  0 min,  0.173 sec
 SCC setup                      ...        0 min,  0.002 sec (  1.008%)
 Dispersion                     ...        0 min,  0.000 sec (  0.191%)
 classical contributions        ...        0 min,  0.000 sec (  0.062%)
 integral evaluation            ...        0 min,  0.063 sec ( 36.135%)
 iterations                     ...        0 min,  0.024 sec ( 13.567%)
 molecular gradient             ...        0 min,  0.084 sec ( 48.488%)
 printout                       ...        0 min,  0.001 sec (  0.520%)

         :::::::::::::::::::::::::::::::::::::::::::::::::::::
         ::                     SUMMARY                     ::
         :::::::::::::::::::::::::::::::::::::::::::::::::::::
         :: total energy             -82.972235411576 Eh    ::
         :: total w/o Gsasa/hb       -82.953538590304 Eh    ::
         :: gradient norm              0.000397717775 Eh/a0 ::
         :: HOMO-LUMO gap              2.371454132496 eV    ::
         ::.................................................::
         :: SCC energy               -83.736920897304 Eh    ::
         :: -> electrostatic           0.349651077390 Eh    ::
         :: -> Gsolv                  -0.048803814787 Eh    ::
         ::    -> Gelec               -0.030106993516 Eh    ::
         ::    -> Gsasa               -0.022703600833 Eh    ::
         ::    -> Ghb                 -0.003617499444 Eh    ::
         ::    -> Gshift               0.007624279005 Eh    ::
         :: repulsion energy           0.791529104785 Eh    ::
         :: dispersion energy         -0.026843619056 Eh    ::
         :: halogen bond corr.         0.000000000000 Eh    ::
         :: add. restraining           0.000000000000 Eh    ::
         :: total charge              -0.000000000000 e     ::
         :::::::::::::::::::::::::::::::::::::::::::::::::::::

           -------------------------------------------------
          |                Property Printout                |
           -------------------------------------------------

    * Orbital Energies and Occupations

         #    Occupation            Energy/Eh            Energy/eV
      -------------------------------------------------------------
         1        2.0000           -0.8653957             -23.5486
       ...           ...                  ...                  ...
        55        2.0000           -0.5115225             -13.9192
        56        2.0000           -0.5079208             -13.8212
        57        2.0000           -0.5070040             -13.7963
        58        2.0000           -0.5040650             -13.7163
        59        2.0000           -0.4868988             -13.2492
        60        2.0000           -0.4830515             -13.1445
        61        2.0000           -0.4741436             -12.9021
        62        2.0000           -0.4659329             -12.6787
        63        2.0000           -0.4626687             -12.5899
        64        2.0000           -0.4541576             -12.3583
        65        2.0000           -0.4525259             -12.3139
        66        2.0000           -0.4485558             -12.2058
        67        2.0000           -0.4389876             -11.9455 (HOMO)
        68                         -0.3518383              -9.5740 (LUMO)
        69                         -0.3117262              -8.4825
        70                         -0.2924401              -7.9577
        71                         -0.2585994              -7.0368
        72                         -0.2352639              -6.4019
        73                         -0.1997982              -5.4368
        74                         -0.1439071              -3.9159
        75                         -0.1429391              -3.8896
        76                         -0.1419490              -3.8626
        77                         -0.1299851              -3.5371
        78                         -0.1276619              -3.4739
       ...                                ...                  ...
       134                          0.7525007              20.4766
      -------------------------------------------------------------
                  HL-Gap            0.0871493 Eh            2.3715 eV
             Fermi-level           -0.3954130 Eh          -10.7597 eV

  Mulliken/CM5 charges         n(s)   n(p)   n(d)
     1C     0.17045  0.05124   0.979  2.850  0.000
     2O    -0.44493 -0.53315   1.676  4.769  0.000
     3C     0.47382  0.51531   0.975  2.551  0.000
     4C    -0.12122 -0.26132   1.021  3.101  0.000
     5O    -0.45264 -0.50956   1.733  4.719  0.000
     6C     0.28412  0.37301   0.999  2.716  0.000
     7N    -0.38589 -0.57969   1.524  3.862  0.000
     8C     0.28534  0.43733   1.020  2.695  0.000
     9C     0.15426  0.19546   1.064  2.782  0.000
    10C    -0.10929 -0.24885   1.022  3.087  0.000
    11C    -0.10984 -0.24950   1.022  3.088  0.000
    12N    -0.33978 -0.69168   1.428  3.912  0.000
    13C     0.47003  0.57947   0.973  2.557  0.000
    14O    -0.57081 -0.61647   1.725  4.846  0.000
    15C     0.33432  0.45988   1.008  2.658  0.000
    16N    -0.24161 -0.35698   1.567  3.674  0.000
    17N    -0.26318 -0.37113   1.564  3.699  0.000
    18C     0.38895  0.49735   1.008  2.603  0.000
    19C    -0.11127 -0.24868   1.012  3.099  0.000
    20O    -0.33713 -0.38875   1.691  4.646  0.000
    21N    -0.31179 -0.65867   1.435  3.877  0.000
    22C     0.45929  0.56439   1.000  2.540  0.000
    23O    -0.52527 -0.56444   1.723  4.802  0.000
    24C     0.34051  0.38838   1.062  2.598  0.000
    25O    -0.48824 -0.53633   1.729  4.760  0.000
    26H     0.04999  0.11100   0.950  0.000  0.000
    27H     0.02874  0.10006   0.971  0.000  0.000
    28H     0.04535  0.10861   0.955  0.000  0.000
    29H     0.07637  0.13946   0.924  0.000  0.000
    30H     0.07724  0.13339   0.923  0.000  0.000
    31H     0.06604  0.12172   0.934  0.000  0.000
    32H     0.07083  0.13079   0.929  0.000  0.000
    33H     0.04923  0.10576   0.951  0.000  0.000
    34H     0.05159  0.10835   0.948  0.000  0.000
    35H     0.04889  0.10543   0.951  0.000  0.000
    36H     0.07217  0.13272   0.928  0.000  0.000
    37H     0.05146  0.10838   0.949  0.000  0.000
    38H     0.24878  0.46690   0.751  0.000  0.000
    39H     0.06993  0.12575   0.930  0.000  0.000
    40H     0.07965  0.13408   0.920  0.000  0.000
    41H     0.07945  0.13402   0.921  0.000  0.000
    42H     0.28606  0.48698   0.714  0.000  0.000

Wiberg/Mayer (AO) data.
largest (>0.10) Wiberg bond orders for each atom

 ---------------------------------------------------------------------------
     #   Z sym  total        # sym  WBO       # sym  WBO       # sym  WBO
 ---------------------------------------------------------------------------
     1   6 C    3.874 --    26 H    0.983    28 H    0.981    27 H    0.970
                             2 O    0.898
     2   8 O    2.096 --     3 C    1.027     1 C    0.898
     3   6 C    3.829 --     2 O    1.027     4 C    0.989     5 O    0.941
                             6 C    0.730
     4   6 C    3.982 --     3 C    0.989    31 H    0.979    29 H    0.977
                            30 H    0.969
     5   8 O    1.985 --     3 C    0.941     6 C    0.859
     6   6 C    3.846 --    24 C    1.036     7 N    1.034     5 O    0.859
                             3 C    0.730
     7   7 N    3.058 --     8 C    1.700     6 C    1.034
     8   6 C    3.926 --     7 N    1.700    21 N    1.093     9 C    0.981
     9   6 C    3.939 --     8 C    0.981    11 C    0.977    10 C    0.977
                            12 N    0.937
    10   6 C    3.986 --    34 H    0.985    33 H    0.983    32 H    0.978
                             9 C    0.977
    11   6 C    3.986 --    37 H    0.985    35 H    0.983     9 C    0.977
                            36 H    0.977
    12   7 N    3.353 --    13 C    1.260     9 C    0.937    38 H    0.876
                            14 O    0.180
    13   6 C    3.918 --    14 O    1.590    12 N    1.260    15 C    0.986
    14   8 O    1.910 --    13 C    1.590    12 N    0.180
    15   6 C    3.875 --    16 N    1.608    20 O    1.067    13 C    0.986
    16   7 N    3.031 --    15 C    1.608    17 N    1.199
    17   7 N    2.980 --    18 C    1.605    16 N    1.199
    18   6 C    3.870 --    17 N    1.605    20 O    1.082    19 C    1.032
    19   6 C    3.986 --    18 C    1.032    39 H    0.982    41 H    0.964
                            40 H    0.962
    20   8 O    2.332 --    18 C    1.082    15 C    1.067
    21   7 N    3.429 --    22 C    1.166     8 C    1.093    42 H    0.880
                            23 O    0.144
    22   6 C    3.891 --    23 O    1.671    21 N    1.166    24 C    0.921
    23   8 O    1.952 --    22 C    1.671    21 N    0.144
    24   6 C    3.888 --    25 O    1.738     6 C    1.036    22 C    0.921
    25   8 O    1.998 --    24 C    1.738
    26   1 H    1.011 --     1 C    0.983
    27   1 H    1.041 --     1 C    0.970
    28   1 H    1.007 --     1 C    0.981
    29   1 H    1.008 --     4 C    0.977
    30   1 H    0.997 --     4 C    0.969
    31   1 H    0.999 --     4 C    0.979
    32   1 H    1.006 --    10 C    0.978
    33   1 H    0.999 --    10 C    0.983
    34   1 H    1.001 --    10 C    0.985
    35   1 H    0.998 --    11 C    0.983
    36   1 H    1.007 --    11 C    0.977
    37   1 H    1.000 --    11 C    0.985
    38   1 H    0.968 --    12 N    0.876
    39   1 H    0.998 --    19 C    0.982
    40   1 H    0.996 --    19 C    0.962
    41   1 H    0.996 --    19 C    0.964
    42   1 H    0.927 --    21 N    0.880
 ---------------------------------------------------------------------------

Topologies differ in total number of bonds
Writing topology from bond orders to xtbtopo.mol

 dipole moment from electron density (au)
     X       Y       Z   
   2.6645   0.9346   1.2055  total (Debye):    7.804

           -------------------------------------------------
          |                Geometry Summary                 |
           -------------------------------------------------

      molecular mass/u    :      351.3152409
   center of mass at/Å    :       -0.2029658      -0.0795239      -0.1016218
  moments of inertia/u·Å² :        0.1337664E+04   0.3700014E+04   0.4754670E+04
rotational constants/cm⁻¹ :        0.1260229E-01   0.4556099E-02   0.3545489E-02

 * 39 selected distances

     #   Z          #   Z                                           value/Å
     1   6 C        2   8 O                                       1.4280823
     2   8 O        3   6 C                                       1.3596638
     3   6 C        4   6 C                                       1.5092490
     3   6 C        5   8 O                                       1.3742338
     5   8 O        6   6 C                                       1.4197948
     6   6 C        7   7 N                                       1.4090766
     7   7 N        8   6 C                                       1.2734700
     9   6 C       10   6 C                                       1.5354949
     9   6 C       11   6 C                                       1.5355498 (max)
     9   6 C       12   7 N                                       1.4571259
    12   7 N       13   6 C                                       1.3455976
    13   6 C       14   8 O                                       1.2184867
    15   6 C       16   7 N                                       1.2999805
    17   7 N       18   6 C                                       1.2988851
    18   6 C       19   6 C                                       1.4793137
    15   6 C       20   8 O                                       1.3441744
    18   6 C       20   8 O                                       1.3414713
     8   6 C       21   7 N                                       1.3821679
    21   7 N       22   6 C                                       1.3684465
    22   6 C       23   8 O                                       1.2103725
     6   6 C       24   6 C                                       1.4782700
    24   6 C       25   8 O                                       1.2115124
     1   6 C       26   1 H                                       1.0895971
     1   6 C       27   1 H                                       1.0930913
     1   6 C       28   1 H                                       1.0932839
     4   6 C       29   1 H                                       1.0859960
     4   6 C       30   1 H                                       1.0889584
     4   6 C       31   1 H                                       1.0877296
    10   6 C       32   1 H                                       1.0887304
    10   6 C       33   1 H                                       1.0876695
    10   6 C       34   1 H                                       1.0889595
    11   6 C       35   1 H                                       1.0876418
    11   6 C       36   1 H                                       1.0884955
    11   6 C       37   1 H                                       1.0887866
    12   7 N       38   1 H                                       1.0128093
    19   6 C       39   1 H                                       1.0871067
    19   6 C       40   1 H                                       1.0900105
    19   6 C       41   1 H                                       1.0897672
    21   7 N       42   1 H                                       1.0087924 (min)

 * 5 distinct bonds (by element types)

   Z      Z             #   av. dist./Å        max./Å        min./Å
   1 H    6 C          15     1.0890549     1.0932839     1.0859960
   6 C    6 C           5     1.5075755     1.5355498     1.4782700
   1 H    7 N           2     1.0108008     1.0128093     1.0087924
   6 C    7 N           8     1.3543438     1.4571259     1.2734700
   6 C    8 O           9     1.3230880     1.4280823     1.2103725


optimized geometry written to: xtbopt.xyz


           -------------------------------------------------
          | TOTAL ENERGY              -82.972235411576 Eh   |
          | GRADIENT NORM               0.000397717775 Eh/α |
          | HOMO-LUMO GAP               2.371454132496 eV   |
           -------------------------------------------------

------------------------------------------------------------------------
 * finished run on 2023/06/21 at 17:40:55.020     
------------------------------------------------------------------------
 total:
 * wall-time:     0 d,  0 h,  0 min, 16.133 sec
 *  cpu-time:     0 d,  0 h,  0 min, 15.884 sec
 * ratio c/w:     0.985 speedup
 SCF:
 * wall-time:     0 d,  0 h,  0 min,  0.280 sec
 *  cpu-time:     0 d,  0 h,  0 min,  0.193 sec
 * ratio c/w:     0.687 speedup
 ANC optimizer:
 * wall-time:     0 d,  0 h,  0 min, 15.767 sec
 *  cpu-time:     0 d,  0 h,  0 min, 15.638 sec
 * ratio c/w:     0.992 speedup

