42
 energy: -82.972235411576 gnorm: 0.000397717775 xtb: 6.5.1 (579679a)
C           -1.30857456430672        2.36829063716767        0.71838836323654
O           -2.33365040751658        1.55834060171920        1.29511974418851
C           -3.20402442753250        0.90824435452344        0.47749563497906
C           -4.58797970304962        0.85819294251435        1.07749130479689
O           -3.06319839223154        1.04502747994348       -0.88264278768809
C           -2.68088184464692       -0.24109657319187       -0.41838431808196
N           -1.29022452453156       -0.46221504198417       -0.36666008211623
C           -0.82691019550026       -1.64655906194597       -0.30036768104181
C            0.66724572053887       -1.88809771543215       -0.20296185877150
C            1.15033178455222       -2.70316642373878       -1.41128095724229
C            0.99677019978675       -2.59929155053150        1.11746596543895
N            1.29592547746388       -0.57369841917722       -0.22117258848287
C            2.61745039537012       -0.35356888215430       -0.09568365282751
O            3.47772301151804       -1.21019468876209        0.00839733858176
C            2.90020414750435        1.10684147791525       -0.09160082240555
N            2.01664146190534        2.05786346014312       -0.16104986524508
N            2.69985746990006        3.23504994538879       -0.10398516095346
C            3.95763289359585        2.92739931813487       -0.00173955351349
C            5.10991861057297        3.84973101589046        0.09781255418697
O            4.14665685791109        1.59937552848078        0.01121173698046
N           -1.63024848338666       -2.77113111751740       -0.31968119622233
C           -2.98051318906694       -2.75827395858150       -0.54163900746395
O           -3.63121300063824       -3.77758247671667       -0.59264132614024
C           -3.58075294356404       -1.36801039518271       -0.74331361556737
O           -4.73452117521108       -1.23712274356325       -1.08892784875739
H           -0.90907179044470        2.97435066800302        1.53098320498353
H           -0.51058177984158        1.75216213171215        0.29596486467491
H           -1.72144620907468        3.01133919745362       -0.06346516929858
H           -5.28811597530404        0.36264617573951        0.41143603007561
H           -4.91742904017633        1.88270239084073        1.24384572955489
H           -4.55071520216753        0.34350948088514        2.03502337281307
H            2.22742788429374       -2.84677272050161       -1.34364360225025
H            0.66651121473958       -3.67722327997564       -1.42375176914304
H            0.91648518660529       -2.17494410739087       -2.33438959920740
H            0.48955657066819       -3.56040275989961        1.16178368625380
H            2.07013822016896       -2.76761602135876        1.18357265118822
H            0.67782778910697       -1.98696324181929        1.95936014034576
H            0.67493908191499        0.22076282195016       -0.31598630900848
H            4.75646859887644        4.87774710530364        0.10534411407407
H            5.78113221648209        3.70059094626655       -0.74797238350425
H            5.66883477677522        3.64781319336539        1.01128627645803
H           -1.21563072206343       -3.68405269394530       -0.20864855788161
