      -----------------------------------------------------------      
     |                   =====================                   |     
     |                           x T B                           |     
     |                   =====================                   |     
     |                         S. Grimme                         |     
     |          Mulliken Center for Theoretical Chemistry        |     
     |                    University of Bonn                     |     
      -----------------------------------------------------------      

   * xtb version 6.5.1 (579679a) compiled by 'ehlert@majestix' on 2022-07-11

   xtb is free software: you can redistribute it and/or modify it under
   the terms of the GNU Lesser General Public License as published by
   the Free Software Foundation, either version 3 of the License, or
   (at your option) any later version.
   
   xtb is distributed in the hope that it will be useful,
   but WITHOUT ANY WARRANTY; without even the implied warranty of
   MERCHANTABILITY or FITNESS FOR A PARTICULAR PURPOSE.  See the
   GNU Lesser General Public License for more details.
   
   Cite this work as:
   * C. Bannwarth, E. Caldeweyher, S. Ehlert, A. Hansen, P. Pracht,
     J. Seibert, S. Spicher, S. Grimme, WIREs Comput. Mol. Sci., 2020, 11,
     e01493. DOI: 10.1002/wcms.1493
   
   for GFN2-xTB:
   * C. Bannwarth, S. Ehlert and S. Grimme., J. Chem. Theory Comput., 2019,
     15, 1652-1671. DOI: 10.1021/acs.jctc.8b01176
   for GFN1-xTB:
   * S. Grimme, C. Bannwarth, P. Shushkov, J. Chem. Theory Comput., 2017,
     13, 1989-2009. DOI: 10.1021/acs.jctc.7b00118
   for GFN0-xTB:
   * P. Pracht, E. Caldeweyher, S. Ehlert, S. Grimme, ChemRxiv, 2019, preprint.
     DOI: 10.26434/chemrxiv.8326202.v1
   for GFN-FF:
   * S. Spicher and S. Grimme, Angew. Chem. Int. Ed., 2020, 59, 15665-15673.
     DOI: 10.1002/anie.202004239
   
   for ALPB and GBSA implicit solvation:
   * S. Ehlert, M. Stahn, S. Spicher, S. Grimme, J. Chem. Theory Comput.,
     2021, 17, 4250-4261. DOI: 10.1021/acs.jctc.1c00471
   
   for DFT-D4:
   * E. Caldeweyher, C. Bannwarth and S. Grimme, J. Chem. Phys., 2017,
     147, 034112. DOI: 10.1063/1.4993215
   * E. Caldeweyher, S. Ehlert, A. Hansen, H. Neugebauer, S. Spicher,
     C. Bannwarth and S. Grimme, J. Chem. Phys., 2019, 150, 154122.
     DOI: 10.1063/1.5090222
   * E. Caldeweyher, J.-M. Mewes, S. Ehlert and S. Grimme, Phys. Chem. Chem. Phys.
     2020, 22, 8499-8512. DOI: 10.1039/D0CP00502A
   
   for sTDA-xTB:
   * S. Grimme and C. Bannwarth, J. Chem. Phys., 2016, 145, 054103.
     DOI: 10.1063/1.4959605
   
   in the mass-spec context:
   * V. Asgeirsson, C. Bauer and S. Grimme, Chem. Sci., 2017, 8, 4879.
     DOI: 10.1039/c7sc00601b
   * J. Koopman and S. Grimme, ACS Omega 2019, 4, 12, 15120-15133.
     DOI: 10.1021/acsomega.9b02011
   
   for metadynamics refer to:
   * S. Grimme, J. Chem. Theory Comput., 2019, 155, 2847-2862
     DOI: 10.1021/acs.jctc.9b00143
   
   for SPH calculations refer to:
   * S. Spicher and S. Grimme, J. Chem. Theory Comput., 2021, 17, 1701-1714
     DOI: 10.1021/acs.jctc.0c01306
   
   with help from (in alphabetical order)
   P. Atkinson, C. Bannwarth, F. Bohle, G. Brandenburg, E. Caldeweyher
   M. Checinski, S. Dohm, S. Ehlert, S. Ehrlich, I. Gerasimov, C. Hölzer
   A. Katbashev, J. Koopman, C. Lavigne, S. Lehtola, F. März, M. Müller,
   F. Musil, H. Neugebauer, J. Pisarek, C. Plett, P. Pracht, F. Pultar,
   J. Seibert, P. Shushkov, S. Spicher, M. Stahn, M. Steiner, T. Strunk,
   J. Stückrath, T. Rose, and J. Unsleber
   
 * started run on 2023/06/20 at 15:03:41.568     

           -------------------------------------------------
          |                Calculation Setup                |
           -------------------------------------------------

          program call               : /lustre/hpc/kemi/ree/PhD/git/ReactivityQM/dep/xtb-6.5.1/bin/xtb --gfn 1 /lustre/hpc/kemi/ree/PhD/git/ReactivityQM/calculations/R01/reac02prodN02/conf03/R01_reac02prodN02_conf03_gfn1.xyz --opt --vfukui --chrg 1 --uhf 0 --alpb DMSO
          hostname                   : node312
          coordinate file            : /lustre/hpc/kemi/ree/PhD/git/ReactivityQM/calculations/R01/reac02prodN02/conf03/R01_reac02prodN02_conf03_gfn1.xyz
          omp threads                :                     1

   ID    Z sym.   atoms
    1    6 C      1, 3-6, 8, 9, 12, 13, 15
    2    7 N      2, 7, 17
    3    8 O      10, 11, 14, 16
    4    1 H      18-33

           -------------------------------------------------
          |                 G F N 1 - x T B                 |
           -------------------------------------------------

        Reference                      10.1021/acs.jctc.7b00118
      * Hamiltonian:
        H0-scaling (s, p, d)           1.850000    2.250000    2.000000
        zeta-weighting                 0.000000
      * Dispersion:
        s8                             2.400000
        a1                             0.630000
        a2                             5.000000
        s9                             0.000000
      * Repulsion:
        kExp                           1.500000
        rExp                           1.000000
      * Coulomb:
        alpha                          2.000000
        third order                    atomic
        anisotropic                    false
      * Halogen bond correction:
        rad-scale                      1.300000
        damping                        0.440000

      * Solvation model:               ALPB
        Solvent                        DMSO
        Parameter file                 internal GFN1-xTB/ALPB
        Dielectric constant                4.6680E+01
        Reference state                gsolv [1 M gas/solution]
        Free energy shift                  7.6243E-03 Eh       4.7843E+00 kcal/mol
        Temperature                        2.9815E+02 K
        Density                            1.1000E+00 kg/L
        Solvent mass                       7.8130E+01 g/mol
        Interaction kernel             P16
        Born radius scaling (c1)           1.7672E+00
        Born radii integrator          GBOBC
        Born offset                        0.0000E+00 a0       0.0000E+00 AA
        H-bond correction              true
        Ion screening                  false
        Surface tension                    1.0000E-05 Eh       1.5569E+01 dyn/cm
        Grid points                               230 per atom

          ...................................................
          :                      SETUP                      :
          :.................................................:
          :  # basis functions                 100          :
          :  # atomic orbitals                 100          :
          :  # shells                           66          :
          :  # electrons                        94          :
          :  # halogen bonds                     0          :
          :  max. iterations                   250          :
          :  Hamiltonian                  GFN1-xTB          :
          :  restarted?                      false          :
          :  GBSA solvation                   true          :
          :  PC potential                    false          :
          :  electronic temp.          300.0000000     K    :
          :  accuracy                    1.0000000          :
          :  -> integral cutoff          0.2500000E+02      :
          :  -> integral neglect         0.1000000E-07      :
          :  -> SCF convergence          0.1000000E-05 Eh   :
          :  -> wf. convergence          0.2000000E-04 e    :
          :  Broyden damping             0.4000000          :
          ...................................................

 iter      E             dE          RMSdq      gap      omega  full diag
   1    -58.1465829 -0.581466E+02  0.813E+00    3.07       0.0  T
   2    -58.4146180 -0.268035E+00  0.482E+00    2.73       1.0  T
   3    -58.4048869  0.973106E-02  0.154E+00    2.87       1.0  T
   4    -58.4227669 -0.178800E-01  0.287E-01    2.81       1.0  T
   5    -58.4253953 -0.262843E-02  0.582E-02    2.80       1.0  T
   6    -58.4254878 -0.925004E-04  0.155E-02    2.80       1.1  T
   7    -58.4254913 -0.350138E-05  0.484E-03    2.80       3.6  T
   8    -58.4254915 -0.113323E-06  0.105E-03    2.80      16.5  T
   9    -58.4254915 -0.910610E-08  0.315E-04    2.80      55.2  T
  10    -58.4254915 -0.166835E-08  0.691E-05    2.80     251.8  T
  11    -58.4254915 -0.461142E-10  0.269E-05    2.80     648.1  T

   *** convergence criteria satisfied after 11 iterations ***

         #    Occupation            Energy/Eh            Energy/eV
      -------------------------------------------------------------
         1        2.0000           -0.8863413             -24.1186
       ...           ...                  ...                  ...
        41        2.0000           -0.5172170             -14.0742
        42        2.0000           -0.5116882             -13.9237
        43        2.0000           -0.5039401             -13.7129
        44        2.0000           -0.4978344             -13.5468
        45        2.0000           -0.4853533             -13.2071
        46        2.0000           -0.4672694             -12.7150
        47        2.0000           -0.4515931             -12.2885 (HOMO)
        48                         -0.3488092              -9.4916 (LUMO)
        49                         -0.3157582              -8.5922
        50                         -0.2582732              -7.0280
        51                         -0.1850548              -5.0356
        52                         -0.1792914              -4.8788
       ...                                ...                  ...
       100                          0.6922806              18.8379
      -------------------------------------------------------------
                  HL-Gap            0.1027839 Eh            2.7969 eV
             Fermi-level           -0.4002011 Eh          -10.8900 eV

 SCC (total)                   0 d,  0 h,  0 min,  0.103 sec
 SCC setup                      ...        0 min,  0.002 sec (  1.582%)
 Dispersion                     ...        0 min,  0.000 sec (  0.279%)
 classical contributions        ...        0 min,  0.000 sec (  0.092%)
 integral evaluation            ...        0 min,  0.025 sec ( 23.949%)
 iterations                     ...        0 min,  0.021 sec ( 20.368%)
 molecular gradient             ...        0 min,  0.054 sec ( 53.117%)
 printout                       ...        0 min,  0.001 sec (  0.574%)

         :::::::::::::::::::::::::::::::::::::::::::::::::::::
         ::                     SUMMARY                     ::
         :::::::::::::::::::::::::::::::::::::::::::::::::::::
         :: total energy             -57.859974817110 Eh    ::
         :: total w/o Gsasa/hb       -57.839525873047 Eh    ::
         :: gradient norm              0.095696530494 Eh/a0 ::
         :: HOMO-LUMO gap              2.796892545019 eV    ::
         ::.................................................::
         :: SCC energy               -58.425491461319 Eh    ::
         :: -> electrostatic           0.340866270092 Eh    ::
         :: -> Gsolv                  -0.123346453921 Eh    ::
         ::    -> Gelec               -0.102897509858 Eh    ::
         ::    -> Gsasa               -0.018621765473 Eh    ::
         ::    -> Ghb                 -0.009451457595 Eh    ::
         ::    -> Gshift               0.007624279005 Eh    ::
         :: repulsion energy           0.584309748825 Eh    ::
         :: dispersion energy         -0.018793104616 Eh    ::
         :: halogen bond corr.         0.000000000000 Eh    ::
         :: add. restraining           0.000000000000 Eh    ::
         :: total charge               1.000000000000 e     ::
         :::::::::::::::::::::::::::::::::::::::::::::::::::::

      ----------------------------------------------------------- 
     |                   =====================                   |
     |                        A N C O P T                        |
     |                   =====================                   |
     |               Approximate Normal Coordinate               |
     |                Rational Function Optimizer                |
      ----------------------------------------------------------- 

          ...................................................
          :                      SETUP                      :
          :.................................................:
          :   optimization level            normal          :
          :   max. optcycles                   200          :
          :   ANC micro-cycles                  20          :
          :   degrees of freedom                93          :
          :.................................................:
          :   RF solver                   davidson          :
          :   write xtbopt.log                true          :
          :   linear?                        false          :
          :   energy convergence         0.5000000E-05 Eh   :
          :   grad. convergence          0.1000000E-02 Eh/α :
          :   maximium RF displ.         1.0000000          :
          :   Hlow (freq-cutoff)         0.1000000E-01      :
          :   Hmax (freq-cutoff)         5.0000000          :
          :   S6 in model hess.         20.0000000          :
          ...................................................

generating ANC from model Hessian ...
Using Lindh-Hessian (1995)
 Shifting diagonal of input Hessian by   9.559998252211946E-003
 Lowest  eigenvalues of input Hessian
    0.000000    0.000000    0.000000    0.000000    0.000000    0.000000
    0.010000    0.010757    0.011219    0.012333    0.013414    0.014103
    0.015217    0.016399    0.017480    0.018399    0.019305    0.019599
 Highest eigenvalues
    1.826569    1.994591    2.003156    2.185885    2.345416    2.442674
 

........................................................................
.............................. CYCLE    1 ..............................
........................................................................
   1    -58.4254915 -0.584255E+02  0.808E-06    2.80       0.0  T
   2    -58.4254915 -0.341061E-12  0.398E-06    2.80    4370.4  T
   3    -58.4254915  0.568434E-13  0.183E-06    2.80    9527.3  T
     SCC iter.                  ...        0 min,  0.006 sec
     gradient                   ...        0 min,  0.055 sec
 * total energy  :   -57.8599748 Eh     change       -0.4348522E-11 Eh
   gradient norm :     0.0956964 Eh/α   predicted     0.0000000E+00 (-100.00%)
   displ. norm   :     0.3333192 α      lambda       -0.1330615E-01
   maximum displ.:     0.1706882 α      in ANC's #14, #17, #24, ...

........................................................................
.............................. CYCLE    2 ..............................
........................................................................
   1    -58.4411041 -0.584411E+02  0.872E-02    2.87       0.0  T
   2    -58.4413577 -0.253576E-03  0.380E-02    2.86       1.0  T
   3    -58.4413982 -0.404799E-04  0.134E-02    2.87       1.3  T
   4    -58.4413987 -0.484499E-06  0.636E-03    2.87       2.7  T
   5    -58.4413988 -0.112653E-06  0.116E-03    2.87      15.0  T
   6    -58.4413988 -0.268298E-07  0.250E-04    2.87      69.7  T
   7    -58.4413988 -0.517758E-09  0.101E-04    2.87     173.2  T
   8    -58.4413988 -0.504059E-10  0.210E-05    2.87     829.3  T
     SCC iter.                  ...        0 min,  0.015 sec
     gradient                   ...        0 min,  0.054 sec
 * total energy  :   -57.8693255 Eh     change       -0.9350636E-02 Eh
   gradient norm :     0.0417568 Eh/α   predicted    -0.7398825E-02 ( -20.87%)
   displ. norm   :     0.2960854 α      lambda       -0.4438659E-02
   maximum displ.:     0.1683608 α      in ANC's #14, #17, #24, ...

........................................................................
.............................. CYCLE    3 ..............................
........................................................................
   1    -58.4494674 -0.584495E+02  0.672E-02    2.91       0.0  T
   2    -58.4496280 -0.160595E-03  0.275E-02    2.91       1.0  T
   3    -58.4496474 -0.193598E-04  0.107E-02    2.91       1.6  T
   4    -58.4496476 -0.282841E-06  0.520E-03    2.91       3.3  T
   5    -58.4496477 -0.843147E-07  0.871E-04    2.91      20.0  T
   6    -58.4496477 -0.150089E-07  0.221E-04    2.91      78.9  T
   7    -58.4496477 -0.317065E-09  0.798E-05    2.91     218.0  T
   8    -58.4496477 -0.304041E-10  0.178E-05    2.91     977.7  T
     SCC iter.                  ...        0 min,  0.015 sec
     gradient                   ...        0 min,  0.054 sec
 * total energy  :   -57.8718793 Eh     change       -0.2553890E-02 Eh
   gradient norm :     0.0103536 Eh/α   predicted    -0.2414650E-02 (  -5.45%)
   displ. norm   :     0.1425919 α      lambda       -0.4773490E-03
   maximum displ.:     0.0688810 α      in ANC's #14, #17, #1, ...

........................................................................
.............................. CYCLE    4 ..............................
........................................................................
   1    -58.4497881 -0.584498E+02  0.124E-02    2.91       0.0  T
   2    -58.4497939 -0.578083E-05  0.486E-03    2.91       3.6  T
   3    -58.4497941 -0.213787E-06  0.249E-03    2.91       7.0  T
   4    -58.4497941 -0.285000E-08  0.103E-03    2.91      16.9  T
   5    -58.4497941 -0.854268E-08  0.213E-04    2.91      81.9  T
   6    -58.4497941 -0.109359E-08  0.602E-05    2.91     289.1  T
   7    -58.4497941 -0.376090E-10  0.250E-05    2.91     695.4  T
     SCC iter.                  ...        0 min,  0.013 sec
     gradient                   ...        0 min,  0.055 sec
 * total energy  :   -57.8722233 Eh     change       -0.3439962E-03 Eh
   gradient norm :     0.0067922 Eh/α   predicted    -0.2435287E-03 ( -29.21%)
   displ. norm   :     0.1741332 α      lambda       -0.3026846E-03
   maximum displ.:     0.0810907 α      in ANC's #1, #3, #14, ...

........................................................................
.............................. CYCLE    5 ..............................
........................................................................
   1    -58.4494901 -0.584495E+02  0.125E-02    2.91       0.0  T
   2    -58.4494954 -0.538584E-05  0.601E-03    2.91       2.9  T
   3    -58.4494963 -0.844293E-06  0.252E-03    2.91       6.9  T
   4    -58.4494963 -0.132275E-07  0.111E-03    2.91      15.7  T
   5    -58.4494963 -0.318457E-08  0.197E-04    2.91      88.2  T
   6    -58.4494963 -0.997822E-09  0.453E-05    2.91     384.2  T
     SCC iter.                  ...        0 min,  0.011 sec
     gradient                   ...        0 min,  0.055 sec
 * total energy  :   -57.8724271 Eh     change       -0.2038073E-03 Eh
   gradient norm :     0.0043770 Eh/α   predicted    -0.1559793E-03 ( -23.47%)
   displ. norm   :     0.1680783 α      lambda       -0.1467336E-03
   maximum displ.:     0.0918832 α      in ANC's #1, #3, #2, ...

........................................................................
.............................. CYCLE    6 ..............................
........................................................................
   1    -58.4495661 -0.584496E+02  0.798E-03    2.91       0.0  T
   2    -58.4495681 -0.194486E-05  0.381E-03    2.91       4.6  T
   3    -58.4495685 -0.417140E-06  0.160E-03    2.91      10.9  T
   4    -58.4495685 -0.612756E-08  0.586E-04    2.91      29.7  T
   5    -58.4495685 -0.387956E-09  0.104E-04    2.91     166.8  T
   6    -58.4495685 -0.331269E-09  0.284E-05    2.91     613.3  T
     SCC iter.                  ...        0 min,  0.011 sec
     gradient                   ...        0 min,  0.055 sec
 * total energy  :   -57.8725422 Eh     change       -0.1150639E-03 Eh
   gradient norm :     0.0039758 Eh/α   predicted    -0.7544577E-04 ( -34.43%)
   displ. norm   :     0.2484968 α      lambda       -0.1754012E-03
   maximum displ.:     0.1415211 α      in ANC's #1, #3, #2, ...

........................................................................
.............................. CYCLE    7 ..............................
........................................................................
   1    -58.4499575 -0.584500E+02  0.786E-03    2.91       0.0  T
   2    -58.4499590 -0.151346E-05  0.347E-03    2.91       5.0  T
   3    -58.4499593 -0.315487E-06  0.179E-03    2.91       9.7  T
   4    -58.4499593 -0.132390E-07  0.537E-04    2.91      32.4  T
   5    -58.4499593 -0.388880E-09  0.113E-04    2.91     154.7  T
   6    -58.4499593 -0.223366E-09  0.341E-05    2.91     509.8  T
     SCC iter.                  ...        0 min,  0.011 sec
     gradient                   ...        0 min,  0.055 sec
 * total energy  :   -57.8726826 Eh     change       -0.1404355E-03 Eh
   gradient norm :     0.0039084 Eh/α   predicted    -0.9312081E-04 ( -33.69%)
   displ. norm   :     0.2956119 α      lambda       -0.1743624E-03
   maximum displ.:     0.1765822 α      in ANC's #1, #3, #2, ...

........................................................................
.............................. CYCLE    8 ..............................
........................................................................
   1    -58.4504361 -0.584504E+02  0.632E-03    2.91       0.0  T
   2    -58.4504368 -0.745256E-06  0.236E-03    2.91       7.4  T
   3    -58.4504369 -0.691413E-07  0.152E-03    2.91      11.4  T
   4    -58.4504369 -0.131201E-07  0.445E-04    2.91      39.1  T
   5    -58.4504369 -0.972577E-09  0.116E-04    2.91     149.5  T
   6    -58.4504369 -0.120025E-09  0.397E-05    2.91     438.2  T
     SCC iter.                  ...        0 min,  0.011 sec
     gradient                   ...        0 min,  0.055 sec
 * total energy  :   -57.8728239 Eh     change       -0.1412742E-03 Eh
   gradient norm :     0.0039291 Eh/α   predicted    -0.9480166E-04 ( -32.90%)
   displ. norm   :     0.3085280 α      lambda       -0.1573696E-03
   maximum displ.:     0.1940105 α      in ANC's #1, #3, #4, ...

........................................................................
.............................. CYCLE    9 ..............................
........................................................................
   1    -58.4509452 -0.584509E+02  0.616E-03    2.92       0.0  T
   2    -58.4509462 -0.932872E-06  0.214E-03    2.92       8.1  T
   3    -58.4509462 -0.605092E-07  0.126E-03    2.92      13.8  T
   4    -58.4509462 -0.748337E-08  0.485E-04    2.92      35.9  T
   5    -58.4509462 -0.648448E-09  0.104E-04    2.92     167.3  T
   6    -58.4509462 -0.135458E-09  0.456E-05    2.92     381.4  T
     SCC iter.                  ...        0 min,  0.011 sec
     gradient                   ...        0 min,  0.055 sec
 * total energy  :   -57.8729510 Eh     change       -0.1271104E-03 Eh
   gradient norm :     0.0038069 Eh/α   predicted    -0.8618368E-04 ( -32.20%)
   displ. norm   :     0.2669696 α      lambda       -0.1277158E-03
   maximum displ.:     0.1778133 α      in ANC's #1, #4, #3, ...

........................................................................
.............................. CYCLE   10 ..............................
........................................................................
   1    -58.4514834 -0.584515E+02  0.650E-03    2.92       0.0  T
   2    -58.4514847 -0.131103E-05  0.243E-03    2.92       7.2  T
   3    -58.4514848 -0.147023E-06  0.120E-03    2.92      14.5  T
   4    -58.4514848 -0.912063E-08  0.600E-04    2.92      29.0  T
   5    -58.4514848 -0.355591E-09  0.119E-04    2.92     146.3  T
   6    -58.4514848 -0.379160E-09  0.475E-05    2.92     366.4  T
     SCC iter.                  ...        0 min,  0.011 sec
     gradient                   ...        0 min,  0.055 sec
 * total energy  :   -57.8730579 Eh     change       -0.1068516E-03 Eh
   gradient norm :     0.0034953 Eh/α   predicted    -0.6842371E-04 ( -35.96%)
   displ. norm   :     0.2416092 α      lambda       -0.1193555E-03
   maximum displ.:     0.1712911 α      in ANC's #1, #4, #2, ...

........................................................................
.............................. CYCLE   11 ..............................
........................................................................
   1    -58.4519959 -0.584520E+02  0.691E-03    2.92       0.0  T
   2    -58.4519973 -0.147074E-05  0.267E-03    2.92       6.5  T
   3    -58.4519975 -0.180264E-06  0.130E-03    2.92      13.4  T
   4    -58.4519975 -0.913274E-08  0.650E-04    2.92      26.8  T
   5    -58.4519975 -0.261551E-09  0.119E-04    2.92     145.7  T
   6    -58.4519975 -0.464034E-09  0.432E-05    2.92     402.7  T
     SCC iter.                  ...        0 min,  0.012 sec
     gradient                   ...        0 min,  0.055 sec
 * total energy  :   -57.8731577 Eh     change       -0.9985879E-04 Eh
   gradient norm :     0.0031176 Eh/α   predicted    -0.6316401E-04 ( -36.75%)
   displ. norm   :     0.2208925 α      lambda       -0.1091676E-03
   maximum displ.:     0.1634898 α      in ANC's #1, #4, #2, ...

........................................................................
.............................. CYCLE   12 ..............................
........................................................................
   1    -58.4522775 -0.584523E+02  0.616E-03    2.92       0.0  T
   2    -58.4522786 -0.109575E-05  0.243E-03    2.92       7.2  T
   3    -58.4522787 -0.115126E-06  0.125E-03    2.92      13.9  T
   4    -58.4522787 -0.656188E-08  0.587E-04    2.92      29.6  T
   5    -58.4522787 -0.496073E-09  0.965E-05    2.92     180.5  T
   6    -58.4522787 -0.326715E-09  0.347E-05    2.92     501.7  T
     SCC iter.                  ...        0 min,  0.011 sec
     gradient                   ...        0 min,  0.056 sec
 * total energy  :   -57.8732499 Eh     change       -0.9217274E-04 Eh
   gradient norm :     0.0027870 Eh/α   predicted    -0.5725435E-04 ( -37.88%)
   displ. norm   :     0.2195843 α      lambda       -0.1084715E-03
   maximum displ.:     0.1644740 α      in ANC's #1, #4, #5, ...

........................................................................
.............................. CYCLE   13 ..............................
........................................................................
   1    -58.4524180 -0.584524E+02  0.511E-03    2.92       0.0  T
   2    -58.4524186 -0.652364E-06  0.202E-03    2.92       8.6  T
   3    -58.4524187 -0.490786E-07  0.112E-03    2.92      15.5  T
   4    -58.4524187 -0.377064E-08  0.455E-04    2.92      38.3  T
   5    -58.4524187 -0.779771E-09  0.695E-05    2.92     250.3  T
   6    -58.4524187 -0.158494E-09  0.246E-05    2.92     708.7  T
     SCC iter.                  ...        0 min,  0.012 sec
     gradient                   ...        0 min,  0.055 sec
 * total energy  :   -57.8733440 Eh     change       -0.9411071E-04 Eh
   gradient norm :     0.0026411 Eh/α   predicted    -0.5685124E-04 ( -39.59%)
   displ. norm   :     0.2584585 α      lambda       -0.1260184E-03
   maximum displ.:     0.1880656 α      in ANC's #1, #4, #5, ...

........................................................................
.............................. CYCLE   14 ..............................
........................................................................
   1    -58.4521186 -0.584521E+02  0.398E-03    2.92       0.0  T
   2    -58.4521189 -0.295158E-06  0.165E-03    2.92      10.6  T
   3    -58.4521189 -0.108940E-07  0.944E-04    2.92      18.4  T
   4    -58.4521189 -0.113742E-08  0.238E-04    2.92      73.1  T
   5    -58.4521189 -0.563631E-09  0.427E-05    2.92     407.6  T
   6    -58.4521189 -0.314770E-10  0.960E-06    2.92    1813.9  T
     SCC iter.                  ...        0 min,  0.012 sec
     gradient                   ...        0 min,  0.055 sec
 * total energy  :   -57.8734542 Eh     change       -0.1101307E-03 Eh
   gradient norm :     0.0029291 Eh/α   predicted    -0.6723932E-04 ( -38.95%)
   displ. norm   :     0.3082059 α      lambda       -0.1438160E-03
   maximum displ.:     0.2213753 α      in ANC's #1, #4, #5, ...

........................................................................
.............................. CYCLE   15 ..............................
........................................................................
   1    -58.4516205 -0.584516E+02  0.311E-03    2.92       0.0  T
   2    -58.4516206 -0.198065E-06  0.133E-03    2.92      13.1  T
   3    -58.4516207 -0.104159E-07  0.783E-04    2.92      22.2  T
   4    -58.4516207 -0.190068E-08  0.253E-04    2.92      68.8  T
   5    -58.4516207 -0.447130E-09  0.525E-05    2.92     331.9  T
   6    -58.4516207 -0.717506E-10  0.134E-05    2.92    1299.3  T
     SCC iter.                  ...        0 min,  0.012 sec
     gradient                   ...        0 min,  0.055 sec
 * total energy  :   -57.8735799 Eh     change       -0.1256987E-03 Eh
   gradient norm :     0.0035860 Eh/α   predicted    -0.7874611E-04 ( -37.35%)
   displ. norm   :     0.3551529 α      lambda       -0.1601558E-03
   maximum displ.:     0.2570358 α      in ANC's #1, #4, #5, ...

........................................................................
.............................. CYCLE   16 ..............................
........................................................................
   1    -58.4509168 -0.584509E+02  0.310E-03    2.92       0.0  T
   2    -58.4509170 -0.280497E-06  0.149E-03    2.92      11.7  T
   3    -58.4509171 -0.299415E-07  0.833E-04    2.92      20.9  T
   4    -58.4509171 -0.330522E-08  0.343E-04    2.92      50.7  T
   5    -58.4509171 -0.210797E-09  0.526E-05    2.92     331.2  T
   6    -58.4509171 -0.539018E-10  0.172E-05    2.92    1015.0  T
     SCC iter.                  ...        0 min,  0.012 sec
     gradient                   ...        0 min,  0.055 sec
 * total energy  :   -57.8737188 Eh     change       -0.1389181E-03 Eh
   gradient norm :     0.0039412 Eh/α   predicted    -0.9018032E-04 ( -35.08%)
   displ. norm   :     0.3594588 α      lambda       -0.1576646E-03
   maximum displ.:     0.2675663 α      in ANC's #1, #4, #5, ...

........................................................................
.............................. CYCLE   17 ..............................
........................................................................
   1    -58.4508187 -0.584508E+02  0.327E-03    2.92       0.0  T
   2    -58.4508190 -0.349888E-06  0.159E-03    2.92      11.0  T
   3    -58.4508190 -0.215642E-07  0.873E-04    2.92      19.9  T
   4    -58.4508190 -0.218959E-08  0.427E-04    2.92      40.8  T
   5    -58.4508190 -0.891824E-09  0.578E-05    2.92     301.4  T
   6    -58.4508190 -0.733564E-10  0.177E-05    2.92     982.3  T
     SCC iter.                  ...        0 min,  0.012 sec
     gradient                   ...        0 min,  0.055 sec
 * total energy  :   -57.8738539 Eh     change       -0.1351426E-03 Eh
   gradient norm :     0.0036741 Eh/α   predicted    -0.8902160E-04 ( -34.13%)
   displ. norm   :     0.3307480 α      lambda       -0.1393548E-03
   maximum displ.:     0.2560264 α      in ANC's #1, #4, #5, ...

........................................................................
.............................. CYCLE   18 ..............................
........................................................................
   1    -58.4509396 -0.584509E+02  0.350E-03    2.91       0.0  T
   2    -58.4509400 -0.356777E-06  0.172E-03    2.91      10.1  T
   3    -58.4509400 -0.180789E-07  0.907E-04    2.91      19.2  T
   4    -58.4509400 -0.298493E-08  0.460E-04    2.91      37.8  T
   5    -58.4509400 -0.164683E-08  0.549E-05    2.91     316.8  T
   6    -58.4509400 -0.486224E-10  0.141E-05    2.91    1238.5  T
     SCC iter.                  ...        0 min,  0.012 sec
     gradient                   ...        0 min,  0.055 sec
 * total energy  :   -57.8739721 Eh     change       -0.1181664E-03 Eh
   gradient norm :     0.0028375 Eh/α   predicted    -0.7730044E-04 ( -34.58%)
   displ. norm   :     0.2599863 α      lambda       -0.1063234E-03
   maximum displ.:     0.2122137 α      in ANC's #1, #4, #2, ...

........................................................................
.............................. CYCLE   19 ..............................
........................................................................
   1    -58.4519622 -0.584520E+02  0.311E-03    2.91       0.0  T
   2    -58.4519623 -0.125691E-06  0.150E-03    2.92      11.6  T
   3    -58.4519623 -0.455982E-08  0.830E-04    2.91      21.0  T
   4    -58.4519623 -0.148012E-08  0.168E-04    2.91     103.5  T
   5    -58.4519623 -0.670809E-09  0.373E-05    2.91     467.1  T
     SCC iter.                  ...        0 min,  0.011 sec
     gradient                   ...        0 min,  0.055 sec
 * total energy  :   -57.8740591 Eh     change       -0.8702074E-04 Eh
   gradient norm :     0.0021017 Eh/α   predicted    -0.5675609E-04 ( -34.78%)
   displ. norm   :     0.1812370 α      lambda       -0.7147446E-04
   maximum displ.:     0.1535804 α      in ANC's #1, #4, #2, ...

........................................................................
.............................. CYCLE   20 ..............................
........................................................................
   1    -58.4521747 -0.584522E+02  0.250E-03    2.91       0.0  T
   2    -58.4521749 -0.229621E-06  0.111E-03    2.92      15.7  T
   3    -58.4521749 -0.931956E-08  0.604E-04    2.91      28.8  T
   4    -58.4521749 -0.340009E-09  0.231E-04    2.92      75.4  T
   5    -58.4521749 -0.334460E-09  0.360E-05    2.92     483.7  T
   6    -58.4521749 -0.288907E-10  0.126E-05    2.92    1384.1  T
     SCC iter.                  ...        0 min,  0.012 sec
     gradient                   ...        0 min,  0.055 sec
 * total energy  :   -57.8741218 Eh     change       -0.6270225E-04 Eh
   gradient norm :     0.0021890 Eh/α   predicted    -0.3691431E-04 ( -41.13%)
   displ. norm   :     0.1434624 α      lambda       -0.6626063E-04
   maximum displ.:     0.1239606 α      in ANC's #1, #2, #6, ...
 * RMSD in coord.:     0.6911955 α      energy gain  -0.1414699E-01 Eh

generating ANC from model Hessian ...
Using Lindh-Hessian (1995)
 Shifting diagonal of input Hessian by   9.504522264220631E-003
 Lowest  eigenvalues of input Hessian
    0.000000    0.000000    0.000000    0.000000    0.000000    0.000000
    0.010000    0.011022    0.011260    0.012345    0.013796    0.014100
    0.015090    0.017237    0.017537    0.018760    0.019870    0.019978
 Highest eigenvalues
    1.867518    2.000131    2.044117    2.208256    2.391152    2.446118
 

........................................................................
.............................. CYCLE   21 ..............................
........................................................................
   1    -58.4533255 -0.584533E+02  0.345E-03    2.92       0.0  T
   2    -58.4533258 -0.301947E-06  0.149E-03    2.92      11.7  T
   3    -58.4533259 -0.464253E-07  0.792E-04    2.92      22.0  T
   4    -58.4533259 -0.261934E-08  0.294E-04    2.92      59.2  T
   5    -58.4533259 -0.155794E-09  0.520E-05    2.92     334.7  T
   6    -58.4533259 -0.828280E-10  0.170E-05    2.92    1024.5  T
     SCC iter.                  ...        0 min,  0.011 sec
     gradient                   ...        0 min,  0.055 sec
 * total energy  :   -57.8741800 Eh     change       -0.5820997E-04 Eh
   gradient norm :     0.0024897 Eh/α   predicted     0.0000000E+00 (-100.00%)
   displ. norm   :     0.0505102 α      lambda       -0.6122832E-05
   maximum displ.:     0.0415349 α      in ANC's #1, #5, #7, ...

........................................................................
.............................. CYCLE   22 ..............................
........................................................................
   1    -58.4525721 -0.584526E+02  0.175E-03    2.92       0.0  T
   2    -58.4525721 -0.314473E-07  0.888E-04    2.92      19.6  T
   3    -58.4525721 -0.499185E-09  0.408E-04    2.92      42.6  T
   4    -58.4525721 -0.165869E-09  0.747E-05    2.92     233.0  T
   5    -58.4525721 -0.134037E-09  0.176E-05    2.92     989.6  T
     SCC iter.                  ...        0 min,  0.010 sec
     gradient                   ...        0 min,  0.055 sec
 * total energy  :   -57.8742162 Eh     change       -0.3619307E-04 Eh
   gradient norm :     0.0012991 Eh/α   predicted    -0.2039175E-04 ( -43.66%)
   displ. norm   :     0.1878629 α      lambda       -0.7859218E-04
   maximum displ.:     0.1413354 α      in ANC's #1, #5, #6, ...

........................................................................
.............................. CYCLE   23 ..............................
........................................................................
   1    -58.4509847 -0.584510E+02  0.512E-03    2.92       0.0  T
   2    -58.4509851 -0.378950E-06  0.233E-03    2.92       7.5  T
   3    -58.4509851 -0.545162E-08  0.115E-03    2.92      15.2  T
   4    -58.4509851 -0.220737E-09  0.243E-04    2.92      71.8  T
   5    -58.4509851 -0.996877E-09  0.604E-05    2.92     288.0  T
   6    -58.4509851 -0.728093E-10  0.150E-05    2.92    1159.8  T
     SCC iter.                  ...        0 min,  0.011 sec
     gradient                   ...        0 min,  0.055 sec
 * total energy  :   -57.8742983 Eh     change       -0.8204498E-04 Eh
   gradient norm :     0.0029128 Eh/α   predicted    -0.3991426E-04 ( -51.35%)
   displ. norm   :     0.0967223 α      lambda       -0.4199686E-04
   maximum displ.:     0.0759276 α      in ANC's #1, #5, #6, ...

........................................................................
.............................. CYCLE   24 ..............................
........................................................................
   1    -58.4511931 -0.584512E+02  0.146E-03    2.92       0.0  T
   2    -58.4511932 -0.548423E-07  0.584E-04    2.92      29.8  T
   3    -58.4511932 -0.243750E-08  0.306E-04    2.92      57.0  T
   4    -58.4511932 -0.295991E-09  0.145E-04    2.92     119.8  T
   5    -58.4511932 -0.139558E-09  0.225E-05    2.92     773.9  T
     SCC iter.                  ...        0 min,  0.010 sec
     gradient                   ...        0 min,  0.055 sec
 * total energy  :   -57.8743365 Eh     change       -0.3822830E-04 Eh
   gradient norm :     0.0029204 Eh/α   predicted    -0.2134075E-04 ( -44.18%)
   displ. norm   :     0.1261261 α      lambda       -0.5876815E-04
   maximum displ.:     0.0983728 α      in ANC's #1, #5, #6, ...

........................................................................
.............................. CYCLE   25 ..............................
........................................................................
   1    -58.4519718 -0.584520E+02  0.176E-03    2.92       0.0  T
   2    -58.4519719 -0.444158E-07  0.896E-04    2.92      19.4  T
   3    -58.4519719 -0.336310E-08  0.463E-04    2.92      37.6  T
   4    -58.4519719 -0.125932E-08  0.151E-04    2.92     115.6  T
   5    -58.4519719 -0.143324E-09  0.264E-05    2.92     658.7  T
     SCC iter.                  ...        0 min,  0.010 sec
     gradient                   ...        0 min,  0.055 sec
 * total energy  :   -57.8743877 Eh     change       -0.5122615E-04 Eh
   gradient norm :     0.0020108 Eh/α   predicted    -0.2985319E-04 ( -41.72%)
   displ. norm   :     0.1540893 α      lambda       -0.6126658E-04
   maximum displ.:     0.1226080 α      in ANC's #1, #5, #6, ...

........................................................................
.............................. CYCLE   26 ..............................
........................................................................
   1    -58.4527245 -0.584527E+02  0.177E-03    2.92       0.0  T
   2    -58.4527245 -0.384279E-07  0.881E-04    2.92      19.8  T
   3    -58.4527245 -0.225143E-08  0.443E-04    2.92      39.3  T
   4    -58.4527245 -0.150893E-08  0.134E-04    2.92     129.9  T
   5    -58.4527245 -0.112465E-09  0.264E-05    2.92     658.6  T
     SCC iter.                  ...        0 min,  0.010 sec
     gradient                   ...        0 min,  0.055 sec
 * total energy  :   -57.8744394 Eh     change       -0.5170302E-04 Eh
   gradient norm :     0.0011914 Eh/α   predicted    -0.3136141E-04 ( -39.34%)
   displ. norm   :     0.2100658 α      lambda       -0.4406899E-04
   maximum displ.:     0.1725195 α      in ANC's #1, #5, #6, ...

........................................................................
.............................. CYCLE   27 ..............................
........................................................................
   1    -58.4530788 -0.584531E+02  0.183E-03    2.92       0.0  T
   2    -58.4530788 -0.424173E-07  0.850E-04    2.92      20.5  T
   3    -58.4530788 -0.142153E-08  0.381E-04    2.92      45.7  T
   4    -58.4530788 -0.559254E-09  0.129E-04    2.92     134.7  T
   5    -58.4530788 -0.133078E-09  0.241E-05    2.92     723.7  T
     SCC iter.                  ...        0 min,  0.010 sec
     gradient                   ...        0 min,  0.055 sec
 * total energy  :   -57.8744913 Eh     change       -0.5188149E-04 Eh
   gradient norm :     0.0011424 Eh/α   predicted    -0.2246691E-04 ( -56.70%)
   displ. norm   :     0.1142445 α      lambda       -0.2058626E-04
   maximum displ.:     0.1022503 α      in ANC's #1, #5, #10, ...

........................................................................
.............................. CYCLE   28 ..............................
........................................................................
   1    -58.4533459 -0.584533E+02  0.130E-03    2.92       0.0  T
   2    -58.4533460 -0.348318E-07  0.619E-04    2.92      28.1  T
   3    -58.4533460 -0.205131E-08  0.321E-04    2.92      54.3  T
   4    -58.4533460 -0.626137E-09  0.142E-04    2.92     122.7  T
   5    -58.4533460 -0.114923E-09  0.164E-05    2.92    1058.3  T
     SCC iter.                  ...        0 min,  0.010 sec
     gradient                   ...        0 min,  0.053 sec
 * total energy  :   -57.8745175 Eh     change       -0.2616171E-04 Eh
   gradient norm :     0.0010287 Eh/α   predicted    -0.1036454E-04 ( -60.38%)
   displ. norm   :     0.0764934 α      lambda       -0.1471953E-04
   maximum displ.:     0.0707474 α      in ANC's #1, #3, #10, ...

........................................................................
.............................. CYCLE   29 ..............................
........................................................................
   1    -58.4533453 -0.584533E+02  0.114E-03    2.92       0.0  T
   2    -58.4533454 -0.621091E-07  0.459E-04    2.92      37.9  T
   3    -58.4533454 -0.307139E-08  0.219E-04    2.92      79.5  T
   4    -58.4533454 -0.125297E-09  0.135E-04    2.92     128.8  T
   5    -58.4533454 -0.126143E-09  0.190E-05    2.92     918.2  T
     SCC iter.                  ...        0 min,  0.010 sec
     gradient                   ...        0 min,  0.055 sec
 * total energy  :   -57.8745372 Eh     change       -0.1969887E-04 Eh
   gradient norm :     0.0007417 Eh/α   predicted    -0.7389759E-05 ( -62.49%)
   displ. norm   :     0.0744901 α      lambda       -0.1447250E-04
   maximum displ.:     0.0652710 α      in ANC's #1, #6, #3, ...

........................................................................
.............................. CYCLE   30 ..............................
........................................................................
   1    -58.4532322 -0.584532E+02  0.986E-04    2.92       0.0  T
   2    -58.4532322 -0.281970E-07  0.417E-04    2.92      41.7  T
   3    -58.4532323 -0.101204E-08  0.229E-04    2.92      76.0  T
   4    -58.4532323 -0.124714E-09  0.102E-04    2.92     171.5  T
   5    -58.4532323 -0.776552E-10  0.177E-05    2.92     983.3  T
     SCC iter.                  ...        0 min,  0.010 sec
     gradient                   ...        0 min,  0.055 sec
 * total energy  :   -57.8745572 Eh     change       -0.2007486E-04 Eh
   gradient norm :     0.0006204 Eh/α   predicted    -0.7254489E-05 ( -63.86%)
   displ. norm   :     0.0917901 α      lambda       -0.1668682E-04
   maximum displ.:     0.0733272 α      in ANC's #1, #6, #4, ...

........................................................................
.............................. CYCLE   31 ..............................
........................................................................
   1    -58.4531229 -0.584531E+02  0.129E-03    2.92       0.0  T
   2    -58.4531229 -0.319290E-07  0.463E-04    2.92      37.6  T
   3    -58.4531229 -0.591484E-09  0.279E-04    2.92      62.4  T
   4    -58.4531229 -0.615117E-10  0.712E-05    2.92     244.6  T
   5    -58.4531229 -0.939053E-10  0.157E-05    2.92    1106.9  T
     SCC iter.                  ...        0 min,  0.010 sec
     gradient                   ...        0 min,  0.046 sec
 * total energy  :   -57.8745802 Eh     change       -0.2298752E-04 Eh
   gradient norm :     0.0008212 Eh/α   predicted    -0.8378921E-05 ( -63.55%)
   displ. norm   :     0.1103119 α      lambda       -0.1847416E-04
   maximum displ.:     0.0858810 α      in ANC's #1, #6, #4, ...

........................................................................
.............................. CYCLE   32 ..............................
........................................................................
   1    -58.4528049 -0.584528E+02  0.147E-03    2.92       0.0  T
   2    -58.4528049 -0.335798E-07  0.570E-04    2.92      30.6  T
   3    -58.4528050 -0.257526E-08  0.367E-04    2.92      47.4  T
   4    -58.4528050 -0.989495E-09  0.107E-04    2.92     163.0  T
   5    -58.4528050 -0.409912E-10  0.148E-05    2.92    1179.9  T
     SCC iter.                  ...        0 min,  0.010 sec
     gradient                   ...        0 min,  0.055 sec
 * total energy  :   -57.8746055 Eh     change       -0.2527488E-04 Eh
   gradient norm :     0.0006424 Eh/α   predicted    -0.9288361E-05 ( -63.25%)
   displ. norm   :     0.1182738 α      lambda       -0.1815152E-04
   maximum displ.:     0.0892916 α      in ANC's #1, #4, #6, ...

........................................................................
.............................. CYCLE   33 ..............................
........................................................................
   1    -58.4527043 -0.584527E+02  0.124E-03    2.92       0.0  T
   2    -58.4527044 -0.281733E-07  0.497E-04    2.92      35.0  T
   3    -58.4527044 -0.342641E-08  0.314E-04    2.92      55.5  T
   4    -58.4527044 -0.653344E-09  0.919E-05    2.92     189.4  T
   5    -58.4527044 -0.222826E-10  0.161E-05    2.92    1080.6  T
     SCC iter.                  ...        0 min,  0.011 sec
     gradient                   ...        0 min,  0.054 sec
 * total energy  :   -57.8746308 Eh     change       -0.2527449E-04 Eh
   gradient norm :     0.0007293 Eh/α   predicted    -0.9134092E-05 ( -63.86%)
   displ. norm   :     0.1210203 α      lambda       -0.1862734E-04
   maximum displ.:     0.0930120 α      in ANC's #1, #4, #6, ...

........................................................................
.............................. CYCLE   34 ..............................
........................................................................
   1    -58.4525621 -0.584526E+02  0.104E-03    2.92       0.0  T
   2    -58.4525621 -0.187754E-07  0.440E-04    2.92      39.5  T
   3    -58.4525621 -0.250124E-08  0.261E-04    2.92      66.6  T
   4    -58.4525621 -0.467622E-09  0.729E-05    2.92     238.9  T
   5    -58.4525621 -0.167049E-10  0.157E-05    2.92    1109.2  T
     SCC iter.                  ...        0 min,  0.011 sec
     gradient                   ...        0 min,  0.055 sec
 * total energy  :   -57.8746573 Eh     change       -0.2653467E-04 Eh
   gradient norm :     0.0006285 Eh/α   predicted    -0.9375101E-05 ( -64.67%)
   displ. norm   :     0.1211023 α      lambda       -0.1932213E-04
   maximum displ.:     0.0939769 α      in ANC's #1, #4, #6, ...

........................................................................
.............................. CYCLE   35 ..............................
........................................................................
   1    -58.4525323 -0.584525E+02  0.759E-04    2.92       0.0  T
   2    -58.4525323 -0.139849E-07  0.318E-04    2.92      54.7  T
   3    -58.4525323 -0.104571E-08  0.179E-04    2.92      97.3  T
   4    -58.4525323 -0.155183E-09  0.656E-05    2.92     265.5  T
     SCC iter.                  ...        0 min,  0.009 sec
     gradient                   ...        0 min,  0.055 sec
 * total energy  :   -57.8746848 Eh     change       -0.2749196E-04 Eh
   gradient norm :     0.0005591 Eh/α   predicted    -0.9727933E-05 ( -64.62%)
   displ. norm   :     0.1223244 α      lambda       -0.2002284E-04
   maximum displ.:     0.0972220 α      in ANC's #1, #4, #10, ...

........................................................................
.............................. CYCLE   36 ..............................
........................................................................
   1    -58.4525823 -0.584526E+02  0.804E-04    2.92       0.0  T
   2    -58.4525823 -0.132548E-07  0.325E-04    2.92      53.5  T
   3    -58.4525823 -0.340854E-09  0.181E-04    2.92      96.2  T
   4    -58.4525823 -0.466898E-10  0.459E-05    2.92     379.6  T
     SCC iter.                  ...        0 min,  0.009 sec
     gradient                   ...        0 min,  0.054 sec
 * total energy  :   -57.8747132 Eh     change       -0.2839567E-04 Eh
   gradient norm :     0.0005222 Eh/α   predicted    -0.1008064E-04 ( -64.50%)
   displ. norm   :     0.1201743 α      lambda       -0.1951663E-04
   maximum displ.:     0.0988945 α      in ANC's #1, #4, #10, ...

........................................................................
.............................. CYCLE   37 ..............................
........................................................................
   1    -58.4526809 -0.584527E+02  0.991E-04    2.92       0.0  T
   2    -58.4526809 -0.219372E-07  0.324E-04    2.92      53.7  T
   3    -58.4526809 -0.804732E-09  0.210E-04    2.92      83.0  T
   4    -58.4526809 -0.149974E-09  0.662E-05    2.92     262.9  T
   5    -58.4526809 -0.268372E-10  0.146E-05    2.92    1192.7  T
     SCC iter.                  ...        0 min,  0.010 sec
     gradient                   ...        0 min,  0.073 sec
 * total energy  :   -57.8747404 Eh     change       -0.2723559E-04 Eh
   gradient norm :     0.0004597 Eh/α   predicted    -0.9821941E-05 ( -63.94%)
   displ. norm   :     0.1024715 α      lambda       -0.1594400E-04
   maximum displ.:     0.0880690 α      in ANC's #1, #4, #10, ...

........................................................................
.............................. CYCLE   38 ..............................
........................................................................
   1    -58.4528300 -0.584528E+02  0.932E-04    2.92       0.0  T
   2    -58.4528300 -0.151272E-07  0.317E-04    2.92      54.8  T
   3    -58.4528300 -0.929795E-09  0.205E-04    2.92      84.8  T
   4    -58.4528300 -0.203372E-09  0.587E-05    2.92     296.6  T
   5    -58.4528300 -0.195755E-10  0.171E-05    2.92    1020.0  T
     SCC iter.                  ...        0 min,  0.010 sec
     gradient                   ...        0 min,  0.055 sec
 * total energy  :   -57.8747624 Eh     change       -0.2196757E-04 Eh
   gradient norm :     0.0004243 Eh/α   predicted    -0.8009928E-05 ( -63.54%)
   displ. norm   :     0.0755497 α      lambda       -0.1141131E-04
   maximum displ.:     0.0686716 α      in ANC's #1, #4, #10, ...

........................................................................
.............................. CYCLE   39 ..............................
........................................................................
   1    -58.4529704 -0.584530E+02  0.845E-04    2.92       0.0  T
   2    -58.4529704 -0.152955E-07  0.263E-04    2.92      66.1  T
   3    -58.4529704 -0.115205E-08  0.169E-04    2.92     102.8  T
   4    -58.4529704 -0.156213E-09  0.559E-05    2.92     311.4  T
     SCC iter.                  ...        0 min,  0.008 sec
     gradient                   ...        0 min,  0.054 sec
 * total energy  :   -57.8747785 Eh     change       -0.1615008E-04 Eh
   gradient norm :     0.0004175 Eh/α   predicted    -0.5724255E-05 ( -64.56%)
   displ. norm   :     0.0577061 α      lambda       -0.9005929E-05
   maximum displ.:     0.0544839 α      in ANC's #1, #4, #3, ...

........................................................................
.............................. CYCLE   40 ..............................
........................................................................
   1    -58.4530612 -0.584531E+02  0.580E-04    2.92       0.0  T
   2    -58.4530612 -0.514093E-08  0.184E-04    2.92      94.8  T
   3    -58.4530612 -0.239858E-09  0.112E-04    2.92     155.1  T
     SCC iter.                  ...        0 min,  0.007 sec
     gradient                   ...        0 min,  0.054 sec
 * total energy  :   -57.8747915 Eh     change       -0.1300463E-04 Eh
   gradient norm :     0.0004083 Eh/α   predicted    -0.4514071E-05 ( -65.29%)
   displ. norm   :     0.0513347 α      lambda       -0.8360391E-05
   maximum displ.:     0.0487014 α      in ANC's #1, #3, #11, ...

........................................................................
.............................. CYCLE   41 ..............................
........................................................................
   1    -58.4531218 -0.584531E+02  0.527E-04    2.92       0.0  T
   2    -58.4531218 -0.567751E-08  0.173E-04    2.92     100.8  T
   3    -58.4531218 -0.417138E-09  0.103E-04    2.92     169.7  T
     SCC iter.                  ...        0 min,  0.007 sec
     gradient                   ...        0 min,  0.055 sec
 * total energy  :   -57.8748037 Eh     change       -0.1217610E-04 Eh
   gradient norm :     0.0003907 Eh/α   predicted    -0.4187064E-05 ( -65.61%)
   displ. norm   :     0.0538238 α      lambda       -0.8843839E-05
   maximum displ.:     0.0499026 α      in ANC's #1, #11, #5, ...

........................................................................
.............................. CYCLE   42 ..............................
........................................................................
   1    -58.4531246 -0.584531E+02  0.396E-04    2.92       0.0  T
   2    -58.4531246 -0.268423E-08  0.135E-04    2.92     128.7  T
   3    -58.4531246 -0.145413E-09  0.809E-05    2.92     215.3  T
     SCC iter.                  ...        0 min,  0.006 sec
     gradient                   ...        0 min,  0.055 sec
 * total energy  :   -57.8748165 Eh     change       -0.1278911E-04 Eh
   gradient norm :     0.0003674 Eh/α   predicted    -0.4430110E-05 ( -65.36%)
   displ. norm   :     0.0602583 α      lambda       -0.9576967E-05
   maximum displ.:     0.0552334 α      in ANC's #1, #11, #4, ...
 * RMSD in coord.:     0.3376290 α      energy gain  -0.6947047E-03 Eh

generating ANC from model Hessian ...
Using Lindh-Hessian (1995)
 Shifting diagonal of input Hessian by   9.507214661776358E-003
 Lowest  eigenvalues of input Hessian
    0.000000    0.000000    0.000000    0.000000    0.000000    0.000000
    0.010000    0.011072    0.011294    0.012337    0.013807    0.014123
    0.015116    0.017257    0.017551    0.018625    0.019777    0.019915
 Highest eigenvalues
    1.865639    1.999055    2.044750    2.210294    2.392166    2.444630
 

........................................................................
.............................. CYCLE   43 ..............................
........................................................................
   1    -58.4531494 -0.584531E+02  0.440E-04    2.92       0.0  T
   2    -58.4531495 -0.361401E-08  0.179E-04    2.92      97.4  T
   3    -58.4531495 -0.215188E-09  0.958E-05    2.92     181.8  T
     SCC iter.                  ...        0 min,  0.007 sec
     gradient                   ...        0 min,  0.054 sec
 * total energy  :   -57.8748301 Eh     change       -0.1356904E-04 Eh
   gradient norm :     0.0003185 Eh/α   predicted     0.0000000E+00 (-100.00%)
   displ. norm   :     0.0329694 α      lambda       -0.1408908E-06
   maximum displ.:     0.0323423 α      in ANC's #1, #7, #10, ...

........................................................................
.............................. CYCLE   44 ..............................
........................................................................
   1    -58.4531039 -0.584531E+02  0.343E-04    2.92       0.0  T
   2    -58.4531039 -0.285034E-08  0.141E-04    2.92     123.7  T
   3    -58.4531039 -0.686455E-10  0.813E-05    2.92     214.2  T
     SCC iter.                  ...        0 min,  0.007 sec
     gradient                   ...        0 min,  0.055 sec
 * total energy  :   -57.8748374 Eh     change       -0.7316978E-05 Eh
   gradient norm :     0.0002548 Eh/α   predicted    -0.2523706E-05 ( -65.51%)
   displ. norm   :     0.0368655 α      lambda       -0.5433361E-05
   maximum displ.:     0.0349613 α      in ANC's #1, #7, #8, ...

........................................................................
.............................. CYCLE   45 ..............................
........................................................................
   1    -58.4530687 -0.584531E+02  0.322E-04    2.92       0.0  T
   2    -58.4530687 -0.230430E-08  0.109E-04    2.92     159.5  T
   3    -58.4530687 -0.103661E-09  0.719E-05    2.92     242.3  T
     SCC iter.                  ...        0 min,  0.007 sec
     gradient                   ...        0 min,  0.054 sec
 * total energy  :   -57.8748452 Eh     change       -0.7763542E-05 Eh
   gradient norm :     0.0002726 Eh/α   predicted    -0.2718713E-05 ( -64.98%)
   displ. norm   :     0.0413673 α      lambda       -0.5753971E-05
   maximum displ.:     0.0385604 α      in ANC's #1, #7, #10, ...

........................................................................
.............................. CYCLE   46 ..............................
........................................................................
   1    -58.4530445 -0.584530E+02  0.375E-04    2.92       0.0  T
   2    -58.4530445 -0.180640E-08  0.149E-04    2.92     116.7  T
   3    -58.4530445 -0.173081E-09  0.102E-04    2.92     170.6  T
     SCC iter.                  ...        0 min,  0.007 sec
     gradient                   ...        0 min,  0.054 sec
 * total energy  :   -57.8748533 Eh     change       -0.8120775E-05 Eh
   gradient norm :     0.0002412 Eh/α   predicted    -0.2879923E-05 ( -64.54%)
   displ. norm   :     0.0425072 α      lambda       -0.5458337E-05
   maximum displ.:     0.0395789 α      in ANC's #1, #8, #18, ...

........................................................................
.............................. CYCLE   47 ..............................
........................................................................
   1    -58.4530093 -0.584530E+02  0.349E-04    2.92       0.0  T
   2    -58.4530093 -0.171058E-08  0.146E-04    2.92     119.2  T
   3    -58.4530093 -0.261124E-09  0.968E-05    2.92     179.8  T
     SCC iter.                  ...        0 min,  0.007 sec
     gradient                   ...        0 min,  0.054 sec
 * total energy  :   -57.8748611 Eh     change       -0.7822188E-05 Eh
   gradient norm :     0.0002110 Eh/α   predicted    -0.2732827E-05 ( -65.06%)
   displ. norm   :     0.0417822 α      lambda       -0.5063404E-05
   maximum displ.:     0.0390444 α      in ANC's #1, #2, #4, ...

........................................................................
.............................. CYCLE   48 ..............................
........................................................................
   1    -58.4529919 -0.584530E+02  0.269E-04    2.92       0.0  T
   2    -58.4529919 -0.103123E-08  0.104E-04    2.92     167.9  T
   3    -58.4529919 -0.111513E-09  0.682E-05    2.92     255.1  T
     SCC iter.                  ...        0 min,  0.006 sec
     gradient                   ...        0 min,  0.054 sec
 * total energy  :   -57.8748685 Eh     change       -0.7351973E-05 Eh
   gradient norm :     0.0002149 Eh/α   predicted    -0.2534200E-05 ( -65.53%)
   displ. norm   :     0.0396083 α      lambda       -0.4676876E-05
   maximum displ.:     0.0369293 α      in ANC's #1, #4, #2, ...

........................................................................
.............................. CYCLE   49 ..............................
........................................................................
   1    -58.4529852 -0.584530E+02  0.209E-04    2.92       0.0  T
   2    -58.4529852 -0.547558E-09  0.762E-05    2.92     228.6  T
   3    -58.4529852 -0.396909E-10  0.455E-05    2.92     382.9  T
     SCC iter.                  ...        0 min,  0.006 sec
     gradient                   ...        0 min,  0.054 sec
 * total energy  :   -57.8748753 Eh     change       -0.6840025E-05 Eh
   gradient norm :     0.0002159 Eh/α   predicted    -0.2342774E-05 ( -65.75%)
   displ. norm   :     0.0390451 α      lambda       -0.4555001E-05
   maximum displ.:     0.0359014 α      in ANC's #1, #4, #2, ...

........................................................................
.............................. CYCLE   50 ..............................
........................................................................
   1    -58.4529993 -0.584530E+02  0.194E-04    2.92       0.0  T
   2    -58.4529993 -0.398543E-09  0.729E-05    2.92     238.8  T
   3    -58.4529993 -0.178204E-10  0.334E-05    2.92     521.1  T
     SCC iter.                  ...        0 min,  0.006 sec
     gradient                   ...        0 min,  0.054 sec
 * total energy  :   -57.8748820 Eh     change       -0.6703640E-05 Eh
   gradient norm :     0.0002129 Eh/α   predicted    -0.2281592E-05 ( -65.96%)
   displ. norm   :     0.0410709 α      lambda       -0.4742873E-05
   maximum displ.:     0.0370148 α      in ANC's #1, #4, #2, ...

........................................................................
.............................. CYCLE   51 ..............................
........................................................................
   1    -58.4530161 -0.584530E+02  0.247E-04    2.92       0.0  T
   2    -58.4530161 -0.708866E-09  0.831E-05    2.92     209.6  T
   3    -58.4530161 -0.251745E-10  0.417E-05    2.92     417.7  T
     SCC iter.                  ...        0 min,  0.006 sec
     gradient                   ...        0 min,  0.054 sec
 * total energy  :   -57.8748890 Eh     change       -0.6971771E-05 Eh
   gradient norm :     0.0002039 Eh/α   predicted    -0.2374633E-05 ( -65.94%)
   displ. norm   :     0.0451767 α      lambda       -0.5122041E-05
   maximum displ.:     0.0400437 α      in ANC's #1, #4, #2, ...

........................................................................
.............................. CYCLE   52 ..............................
........................................................................
   1    -58.4530415 -0.584530E+02  0.297E-04    2.92       0.0  T
   2    -58.4530415 -0.114768E-08  0.101E-04    2.92     172.4  T
   3    -58.4530415 -0.436415E-10  0.530E-05    2.92     328.5  T
     SCC iter.                  ...        0 min,  0.006 sec
     gradient                   ...        0 min,  0.054 sec
 * total energy  :   -57.8748965 Eh     change       -0.7518979E-05 Eh
   gradient norm :     0.0001957 Eh/α   predicted    -0.2565993E-05 ( -65.87%)
   displ. norm   :     0.0495552 α      lambda       -0.5462018E-05
   maximum displ.:     0.0435668 α      in ANC's #1, #4, #2, ...

........................................................................
.............................. CYCLE   53 ..............................
........................................................................
   1    -58.4530712 -0.584531E+02  0.347E-04    2.92       0.0  T
   2    -58.4530712 -0.170380E-08  0.115E-04    2.92     151.8  T
   3    -58.4530712 -0.595861E-10  0.630E-05    2.92     276.3  T
     SCC iter.                  ...        0 min,  0.007 sec
     gradient                   ...        0 min,  0.055 sec
 * total energy  :   -57.8749045 Eh     change       -0.8003850E-05 Eh
   gradient norm :     0.0001856 Eh/α   predicted    -0.2737453E-05 ( -65.80%)
   displ. norm   :     0.0522820 α      lambda       -0.5587648E-05
   maximum displ.:     0.0459137 α      in ANC's #1, #4, #2, ...

........................................................................
.............................. CYCLE   54 ..............................
........................................................................
   1    -58.4530974 -0.584531E+02  0.340E-04    2.92       0.0  T
   2    -58.4530974 -0.159478E-08  0.118E-04    2.92     147.6  T
   3    -58.4530974 -0.613625E-10  0.632E-05    2.92     275.5  T
     SCC iter.                  ...        0 min,  0.007 sec
     gradient                   ...        0 min,  0.056 sec
 * total energy  :   -57.8749127 Eh     change       -0.8183681E-05 Eh
   gradient norm :     0.0001818 Eh/α   predicted    -0.2800553E-05 ( -65.78%)
   displ. norm   :     0.0525048 α      lambda       -0.5458292E-05
   maximum displ.:     0.0462791 α      in ANC's #1, #4, #2, ...

........................................................................
.............................. CYCLE   55 ..............................
........................................................................
   1    -58.4531249 -0.584531E+02  0.319E-04    2.92       0.0  T
   2    -58.4531249 -0.139987E-08  0.112E-04    2.92     155.5  T
   3    -58.4531249 -0.536247E-10  0.607E-05    2.92     286.9  T
     SCC iter.                  ...        0 min,  0.007 sec
     gradient                   ...        0 min,  0.057 sec
 * total energy  :   -57.8749206 Eh     change       -0.7940367E-05 Eh
   gradient norm :     0.0001816 Eh/α   predicted    -0.2734990E-05 ( -65.56%)
   displ. norm   :     0.0490453 α      lambda       -0.4926865E-05
   maximum displ.:     0.0437253 α      in ANC's #1, #4, #2, ...

........................................................................
.............................. CYCLE   56 ..............................
........................................................................
   1    -58.4531389 -0.584531E+02  0.271E-04    2.92       0.0  T
   2    -58.4531389 -0.933362E-09  0.102E-04    2.92     171.1  T
   3    -58.4531389 -0.452758E-10  0.534E-05    2.92     325.7  T
     SCC iter.                  ...        0 min,  0.007 sec
     gradient                   ...        0 min,  0.054 sec
 * total energy  :   -57.8749277 Eh     change       -0.7134442E-05 Eh
   gradient norm :     0.0001780 Eh/α   predicted    -0.2467187E-05 ( -65.42%)
   displ. norm   :     0.0432572 α      lambda       -0.4213300E-05
   maximum displ.:     0.0393020 α      in ANC's #1, #4, #2, ...

........................................................................
.............................. CYCLE   57 ..............................
........................................................................
   1    -58.4531552 -0.584532E+02  0.235E-04    2.92       0.0  T
   2    -58.4531552 -0.637961E-09  0.913E-05    2.92     190.7  T
   3    -58.4531552 -0.352642E-10  0.490E-05    2.92     355.2  T
     SCC iter.                  ...        0 min,  0.007 sec
     gradient                   ...        0 min,  0.054 sec
 * total energy  :   -57.8749339 Eh     change       -0.6162424E-05 Eh
   gradient norm :     0.0001755 Eh/α   predicted    -0.2111520E-05 ( -65.74%)
   displ. norm   :     0.0372862 α      lambda       -0.3594665E-05
   maximum displ.:     0.0344968 α      in ANC's #1, #4, #2, ...

........................................................................
.............................. CYCLE   58 ..............................
........................................................................
   1    -58.4531592 -0.584532E+02  0.187E-04    2.92       0.0  T
   2    -58.4531592 -0.478465E-09  0.739E-05    2.92     235.4  T
   3    -58.4531592 -0.313847E-10  0.408E-05    2.92     426.3  T
     SCC iter.                  ...        0 min,  0.006 sec
     gradient                   ...        0 min,  0.054 sec
 * total energy  :   -57.8749392 Eh     change       -0.5279024E-05 Eh
   gradient norm :     0.0001694 Eh/α   predicted    -0.1798798E-05 ( -65.93%)
   displ. norm   :     0.0331445 α      lambda       -0.3184437E-05
   maximum displ.:     0.0311240 α      in ANC's #1, #4, #6, ...

........................................................................
.............................. CYCLE   59 ..............................
........................................................................
   1    -58.4531595 -0.584532E+02  0.170E-04    2.92       0.0  T
   2    -58.4531595 -0.359570E-09  0.696E-05    2.92     250.0  T
   3    -58.4531595 -0.276401E-10  0.401E-05    2.92     434.6  T
     SCC iter.                  ...        0 min,  0.007 sec
     gradient                   ...        0 min,  0.055 sec
 * total energy  :   -57.8749439 Eh     change       -0.4709486E-05 Eh
   gradient norm :     0.0001634 Eh/α   predicted    -0.1596731E-05 ( -66.10%)
   displ. norm   :     0.0305488 α      lambda       -0.2936986E-05
   maximum displ.:     0.0288942 α      in ANC's #1, #4, #5, ...

   *** GEOMETRY OPTIMIZATION CONVERGED AFTER 59 ITERATIONS ***

------------------------------------------------------------------------
 total energy gain   :        -0.0149691 Eh       -9.3932 kcal/mol
 total RMSD          :         1.0579052 a0        0.5598 Å
 total power (kW/mol):        -0.6661241 (step)   -7.1846 (real)
------------------------------------------------------------------------

 ANCopt (total)                0 d,  0 h,  0 min,  5.470 sec
 optimizer setup                ...        0 min,  0.001 sec (  0.015%)
 model hessian                  ...        0 min,  0.088 sec (  1.603%)
 ANC generation                 ...        0 min,  0.004 sec (  0.079%)
 coordinate transformation      ...        0 min,  0.002 sec (  0.029%)
 single point calculation       ...        0 min,  5.349 sec ( 97.775%)
 optimization log               ...        0 min,  0.013 sec (  0.245%)
 hessian update                 ...        0 min,  0.001 sec (  0.027%)
 rational function              ...        0 min,  0.007 sec (  0.122%)

================
 final structure:
================
33
 xtb: 6.5.1 (579679a)
C           -2.15157335796654        1.74875695158891       -1.89084334692079
N           -1.39969907528481        1.25451448741155       -0.71595846788545
C           -1.78772770393021       -0.09162223567037       -0.15651024651364
C           -3.02744052527019        0.08077162826292        0.71398429539350
C           -2.01621431482737       -1.09275592177596       -1.29135841658420
C           -0.55739184456539       -0.52195348678212        0.61732798251258
N            0.58193457195308       -0.06724372149323        0.21938584950534
C            1.72530756864085       -0.47823303687862        0.86500376460452
C            3.01749588913540        0.03972448757993        0.35650872555945
O            4.08288818750993       -0.23526822754640        0.87673604286315
O            2.90169525260441        0.80641504358156       -0.71507121535819
C            4.11987064950405        1.31851985542015       -1.27607717534683
C            1.68185072534825       -1.34935696311949        1.92621681873987
O            2.75365765625069       -1.76625261805417        2.58874988424516
C            0.39151562659756       -1.88508912863794        2.38490418142274
O            0.21334788725427       -2.66208428009741        3.29857025145575
N           -0.68028205438185       -1.40689245365844        1.63716515164056
H           -1.92498681657233        1.12475840976736       -2.75014637547039
H           -3.21484528408041        1.72803958715596       -1.66882623862287
H           -1.82520706806636        2.76975530987954       -2.07305453740663
H           -0.39538153878011        1.18469830902499       -0.94297272453914
H           -1.48254908431653        1.93968044861217        0.03102291441910
H           -3.82529523546015        0.54472231672066        0.13733447111354
H           -3.37742000401182       -0.89227905859597        1.05423005564411
H           -2.80539108852130        0.70325826463439        1.57924392492229
H           -2.92283841109092       -0.85177569382231       -1.84208525439783
H           -2.12489348881879       -2.08709557094553       -0.85977959630746
H           -1.16415251533441       -1.09555203199068       -1.96950383906580
H            4.60608262705905        1.98448602170336       -0.55984465096276
H            3.83814302310023        1.86389183074835       -2.17395445831398
H            4.79083145476548        0.49251315213582       -1.52297027794605
H            3.57023226867426       -1.35801387876737        2.21334209457466
H           -1.59156297711956       -1.74303879638344        1.90922841302716
 
 Bond Distances (Angstroems)
 ---------------------------
C1-N2=1.4798         C1-H18=1.0859        C1-H19=1.0864        C1-H20=1.0873        N2-C1=1.4798         N2-C3=1.5085         
N2-H21=1.0320        N2-H22=1.0170        C3-N2=1.5085         C3-C4=1.5246         C3-C5=1.5305         C3-C6=1.5158         
C4-C3=1.5246         C4-H23=1.0883        C4-H24=1.0886        C4-H25=1.0888        C5-C3=1.5305         C5-H26=1.0878        
C5-H27=1.0894        C5-H28=1.0890        C6-C3=1.5158         C6-N7=1.2896         C6-N17=1.3558        N7-C6=1.2896         
N7-C8=1.3759         C8-N7=1.3759         C8-C9=1.4821         C8-C13=1.3737        C9-C8=1.4821         C9-O10=1.2171        
C9-O11=1.3227        O10-C9=1.2171        O11-C9=1.3227        O11-C12=1.4356       C12-O11=1.4356       C12-H29=1.0922       
C12-H30=1.0877       C12-H31=1.0924       C13-C8=1.3737        C13-O14=1.3272       C13-C15=1.4705       O14-C13=1.3272       
O14-H32=0.9871       C15-C13=1.4705       C15-O16=1.2125       C15-N17=1.3916       O16-C15=1.2125       N17-C6=1.3558        
N17-C15=1.3916       N17-H33=1.0087       H18-C1=1.0859        H19-C1=1.0864        H20-C1=1.0873        H21-N2=1.0320        
H22-N2=1.0170        H23-C4=1.0883        H24-C4=1.0886        H25-C4=1.0888        H26-C5=1.0878        H27-C5=1.0894        
H28-C5=1.0890        H29-C12=1.0922       H30-C12=1.0877       H31-C12=1.0924       H32-O14=0.9871       H33-N17=1.0087       
 C  H  Rav=1.0886 sigma=0.0019  Rmin=1.0859  Rmax=1.0924    12
 C  C  Rav=1.4829 sigma=0.0535  Rmin=1.3737  Rmax=1.5305     6
 N  H  Rav=1.0192 sigma=0.0097  Rmin=1.0087  Rmax=1.0320     3
 N  C  Rav=1.4002 sigma=0.0741  Rmin=1.2896  Rmax=1.5085     6
 O  H  Rav=0.9871 sigma=0.0000  Rmin=0.9871  Rmax=0.9871     1
 O  C  Rav=1.3030 sigma=0.0826  Rmin=1.2125  Rmax=1.4356     5
 
 selected bond angles (degree)
 --------------------
H18-C1-N2=109.29               H19-C1-N2=109.19               H19-C1-H18=110.79              H20-C1-N2=107.11               
H20-C1-H18=110.14              H20-C1-H19=110.24              C3-N2-C1=117.50                H21-N2-C1=110.02               
H21-N2-C3=105.76               H22-N2-C1=108.47               H22-N2-C3=107.93               H22-N2-H21=106.64              
C4-C3-N2=108.66                C5-C3-N2=110.31                C5-C3-C4=112.08                C6-C3-N2=103.53                
C6-C3-C4=113.62                C6-C3-C5=108.30                H23-C4-C3=109.99               H24-C4-C3=109.80               
H24-C4-H23=108.12              H25-C4-C3=110.64               H25-C4-H23=109.08              H25-C4-H24=109.16              
H26-C5-C3=110.79               H27-C5-C3=108.55               H27-C5-H26=108.64              H28-C5-C3=110.28               
H28-C5-H26=109.72              H28-C5-H27=108.81              N7-C6-C3=117.35                N17-C6-C3=119.72               
N17-C6-N7=122.84               C8-N7-C6=118.95                C9-C8-N7=117.33                C13-C8-N7=121.71               
C13-C8-C9=120.95               O10-C9-C8=122.52               O11-C9-C8=113.84               O11-C9-O10=123.63              
 
 selected dihedral angles (degree)
 ---------------------------------
C3-N2-C1-H18=292.34           C3-N2-C1-H19= 53.67           C3-N2-C1-H20=173.03           H21-N2-C1-H18= 53.37          
H21-N2-C1-H19=174.70          H21-N2-C1-H20=294.06          H22-N2-C1-H18=169.67          H22-N2-C1-H19=291.00          
H22-N2-C1-H20= 50.37          C4-C3-N2-C1=279.96            C4-C3-N2-H21=156.73           C4-C3-N2-H22= 42.90           
C5-C3-N2-C1= 43.20            C5-C3-N2-H21=279.97           C5-C3-N2-H22=166.14           C6-C3-N2-C1=158.89            
C6-C3-N2-H21= 35.66           C6-C3-N2-H22=281.83           H23-C4-C3-N2= 56.01           H23-C4-C3-C5=293.84           
H23-C4-C3-C6=170.66           H24-C4-C3-N2=174.87           H24-C4-C3-C5= 52.70           H24-C4-C3-C6=289.52           
H25-C4-C3-N2=295.43           H25-C4-C3-C5=173.26           H25-C4-C3-C6= 50.08           H26-C5-C3-N2=289.61           
H26-C5-C3-C4= 50.84           H26-C5-C3-C6=176.96           H27-C5-C3-N2=170.40           H27-C5-C3-C4=291.62           
H27-C5-C3-C6= 57.75           H28-C5-C3-N2= 51.28           H28-C5-C3-C4=172.51           H28-C5-C3-C6=298.63           
N7-C6-C3-N2=332.18            N7-C6-C3-C4=214.51            N7-C6-C3-C5= 89.28            N17-C6-C3-N2=155.56           
N17-C6-C3-C4= 37.89           N17-C6-C3-C5=272.67           C8-N7-C6-C3=182.53            C8-N7-C6-N17=359.03           
C9-C8-N7-C6=178.49            C13-C8-N7-C6=359.46           O10-C9-C8-N7=178.11           O10-C9-C8-C13=357.15          
O11-C9-C8-N7=357.29           O11-C9-C8-C13=176.33          
           -------------------------------------------------
          |                Final Singlepoint                |
           -------------------------------------------------

          ...................................................
          :                      SETUP                      :
          :.................................................:
          :  # basis functions                 100          :
          :  # atomic orbitals                 100          :
          :  # shells                           66          :
          :  # electrons                        94          :
          :  # halogen bonds                     0          :
          :  max. iterations                   250          :
          :  Hamiltonian                  GFN1-xTB          :
          :  restarted?                      false          :
          :  GBSA solvation                   true          :
          :  PC potential                    false          :
          :  electronic temp.          300.0000000     K    :
          :  accuracy                    1.0000000          :
          :  -> integral cutoff          0.2500000E+02      :
          :  -> integral neglect         0.1000000E-07      :
          :  -> SCF convergence          0.1000000E-05 Eh   :
          :  -> wf. convergence          0.2000000E-04 e    :
          :  Broyden damping             0.4000000          :
          ...................................................

 iter      E             dE          RMSdq      gap      omega  full diag
   1    -58.4531595 -0.584532E+02  0.116E-05    2.92       0.0  T
   2    -58.4531595 -0.369482E-12  0.680E-06    2.92    2560.6  T
   3    -58.4531595  0.213163E-13  0.293E-06    2.92    5933.1  T

   *** convergence criteria satisfied after 3 iterations ***

         #    Occupation            Energy/Eh            Energy/eV
      -------------------------------------------------------------
         1        2.0000           -0.8850928             -24.0846
       ...           ...                  ...                  ...
        41        2.0000           -0.5228600             -14.2277
        42        2.0000           -0.5103912             -13.8885
        43        2.0000           -0.5045045             -13.7283
        44        2.0000           -0.5040256             -13.7152
        45        2.0000           -0.4837545             -13.1636
        46        2.0000           -0.4666957             -12.6994
        47        2.0000           -0.4481764             -12.1955 (HOMO)
        48                         -0.3407382              -9.2720 (LUMO)
        49                         -0.3081736              -8.3858
        50                         -0.2563223              -6.9749
        51                         -0.1792138              -4.8767
        52                         -0.1761939              -4.7945
       ...                                ...                  ...
       100                          0.7187905              19.5593
      -------------------------------------------------------------
                  HL-Gap            0.1074382 Eh            2.9235 eV
             Fermi-level           -0.3944573 Eh          -10.7337 eV

 SCC (total)                   0 d,  0 h,  0 min,  0.088 sec
 SCC setup                      ...        0 min,  0.001 sec (  1.496%)
 Dispersion                     ...        0 min,  0.000 sec (  0.256%)
 classical contributions        ...        0 min,  0.000 sec (  0.094%)
 integral evaluation            ...        0 min,  0.024 sec ( 27.490%)
 iterations                     ...        0 min,  0.007 sec (  7.575%)
 molecular gradient             ...        0 min,  0.055 sec ( 62.253%)
 printout                       ...        0 min,  0.001 sec (  0.766%)

         :::::::::::::::::::::::::::::::::::::::::::::::::::::
         ::                     SUMMARY                     ::
         :::::::::::::::::::::::::::::::::::::::::::::::::::::
         :: total energy             -57.874943900838 Eh    ::
         :: total w/o Gsasa/hb       -57.855111840566 Eh    ::
         :: gradient norm              0.000164528218 Eh/a0 ::
         :: HOMO-LUMO gap              2.923542186205 eV    ::
         ::.................................................::
         :: SCC energy               -58.453159483859 Eh    ::
         :: -> electrostatic           0.334579927746 Eh    ::
         :: -> Gsolv                  -0.120451051481 Eh    ::
         ::    -> Gelec               -0.100618991209 Eh    ::
         ::    -> Gsasa               -0.018706145527 Eh    ::
         ::    -> Ghb                 -0.008750193750 Eh    ::
         ::    -> Gshift               0.007624279005 Eh    ::
         :: repulsion energy           0.597169124789 Eh    ::
         :: dispersion energy         -0.018953541769 Eh    ::
         :: halogen bond corr.         0.000000000000 Eh    ::
         :: add. restraining           0.000000000000 Eh    ::
         :: total charge               1.000000000000 e     ::
         :::::::::::::::::::::::::::::::::::::::::::::::::::::

           -------------------------------------------------
          |                Property Printout                |
           -------------------------------------------------

    * Orbital Energies and Occupations

         #    Occupation            Energy/Eh            Energy/eV
      -------------------------------------------------------------
         1        2.0000           -0.8850928             -24.0846
       ...           ...                  ...                  ...
        35        2.0000           -0.5634486             -15.3322
        36        2.0000           -0.5536859             -15.0666
        37        2.0000           -0.5472221             -14.8907
        38        2.0000           -0.5463248             -14.8663
        39        2.0000           -0.5325260             -14.4908
        40        2.0000           -0.5315911             -14.4653
        41        2.0000           -0.5228600             -14.2277
        42        2.0000           -0.5103912             -13.8885
        43        2.0000           -0.5045045             -13.7283
        44        2.0000           -0.5040256             -13.7152
        45        2.0000           -0.4837545             -13.1636
        46        2.0000           -0.4666957             -12.6994
        47        2.0000           -0.4481764             -12.1955 (HOMO)
        48                         -0.3407382              -9.2720 (LUMO)
        49                         -0.3081736              -8.3858
        50                         -0.2563223              -6.9749
        51                         -0.1792138              -4.8767
        52                         -0.1761939              -4.7945
        53                         -0.1710544              -4.6546
        54                         -0.1660291              -4.5179
        55                         -0.1492849              -4.0623
        56                         -0.1427430              -3.8842
        57                         -0.1362926              -3.7087
        58                         -0.1204699              -3.2782
       ...                                ...                  ...
       100                          0.7187905              19.5593
      -------------------------------------------------------------
                  HL-Gap            0.1074382 Eh            2.9235 eV
             Fermi-level           -0.3944573 Eh          -10.7337 eV

  Mulliken/CM5 charges         n(s)   n(p)   n(d)
     1C     0.02357 -0.07860   1.009  2.968  0.000
     2N    -0.19672 -0.71729   1.471  3.726  0.000
     3C     0.11199  0.13945   1.091  2.797  0.000
     4C    -0.12481 -0.26727   1.027  3.098  0.000
     5C    -0.11314 -0.25518   1.026  3.087  0.000
     6C     0.27656  0.42808   1.011  2.712  0.000
     7N    -0.37675 -0.57281   1.526  3.851  0.000
     8C     0.06840  0.14385   1.041  2.890  0.000
     9C     0.57811  0.64296   0.966  2.456  0.000
    10O    -0.56308 -0.62785   1.724  4.839  0.000
    11O    -0.40294 -0.48594   1.683  4.720  0.000
    12C     0.15962  0.03855   0.985  2.856  0.000
    13C     0.24750  0.28209   1.029  2.723  0.000
    14O    -0.49441 -0.68246   1.694  4.800  0.000
    15C     0.46620  0.56745   0.984  2.550  0.000
    16O    -0.54792 -0.58708   1.722  4.826  0.000
    17N    -0.28848 -0.63509   1.436  3.852  0.000
    18H     0.08675  0.14903   0.913  0.000  0.000
    19H     0.08627  0.14842   0.914  0.000  0.000
    20H     0.09555  0.15699   0.904  0.000  0.000
    21H     0.28370  0.48758   0.716  0.000  0.000
    22H     0.29433  0.48807   0.706  0.000  0.000
    23H     0.07563  0.13157   0.924  0.000  0.000
    24H     0.07824  0.13384   0.922  0.000  0.000
    25H     0.07059  0.12700   0.929  0.000  0.000
    26H     0.07208  0.12745   0.928  0.000  0.000
    27H     0.07532  0.13070   0.925  0.000  0.000
    28H     0.06901  0.12637   0.931  0.000  0.000
    29H     0.06076  0.12210   0.939  0.000  0.000
    30H     0.06000  0.12036   0.940  0.000  0.000
    31H     0.06122  0.12321   0.939  0.000  0.000
    32H     0.41573  0.60264   0.584  0.000  0.000
    33H     0.29114  0.49182   0.709  0.000  0.000

Wiberg/Mayer (AO) data.
largest (>0.10) Wiberg bond orders for each atom

 ---------------------------------------------------------------------------
     #   Z sym  total        # sym  WBO       # sym  WBO       # sym  WBO
 ---------------------------------------------------------------------------
     1   6 C    3.896 --    18 H    0.984    19 H    0.982    20 H    0.979
                             2 N    0.920
     2   7 N    3.599 --     1 C    0.920    22 H    0.893     3 C    0.887
                            21 H    0.860
     3   6 C    3.907 --     4 C    1.001     5 C    0.985     6 C    0.979
                             2 N    0.887
     4   6 C    3.983 --     3 C    1.001    25 H    0.981    23 H    0.977
                            24 H    0.975
     5   6 C    3.981 --     3 C    0.985    28 H    0.981    26 H    0.979
                            27 H    0.978
     6   6 C    3.942 --     7 N    1.582    17 N    1.193     3 C    0.979
     7   7 N    3.067 --     6 C    1.582     8 C    1.160
     8   6 C    3.957 --    13 C    1.488     7 N    1.160     9 C    1.016
     9   6 C    3.853 --    10 O    1.612    11 O    1.141     8 C    1.016
    10   8 O    1.952 --     9 C    1.612    11 O    0.132
    11   8 O    2.217 --     9 C    1.141    12 C    0.885    10 O    0.132
    12   6 C    3.859 --    30 H    0.986    31 H    0.979    29 H    0.979
                            11 O    0.885
    13   6 C    3.923 --     8 C    1.488    14 O    1.145    15 C    1.046
    14   8 O    2.110 --    13 C    1.145    32 H    0.769
    15   6 C    3.903 --    16 O    1.631    17 N    1.096    13 C    1.046
    16   8 O    1.928 --    15 C    1.631    17 N    0.132
    17   7 N    3.462 --     6 C    1.193    15 C    1.096    33 H    0.878
                            16 O    0.132
    18   1 H    0.994 --     1 C    0.984
    19   1 H    0.993 --     1 C    0.982
    20   1 H    0.989 --     1 C    0.979
    21   1 H    0.951 --     2 N    0.860
    22   1 H    0.921 --     2 N    0.893
    23   1 H    0.994 --     4 C    0.977
    24   1 H    0.993 --     4 C    0.975
    25   1 H    0.993 --     4 C    0.981
    26   1 H    0.994 --     5 C    0.979
    27   1 H    0.996 --     5 C    0.978
    28   1 H    0.995 --     5 C    0.981
    29   1 H    1.004 --    12 C    0.979
    30   1 H    1.009 --    12 C    0.986
    31   1 H    1.005 --    12 C    0.979
    32   1 H    0.845 --    14 O    0.769
    33   1 H    0.921 --    17 N    0.878
 ---------------------------------------------------------------------------

Topologies differ in total number of bonds
Writing topology from bond orders to xtbtopo.mol

 dipole moment from electron density (au)
     X       Y       Z   
  -3.5998   3.3500  -3.0727  total (Debye):   14.738

           -------------------------------------------------
          |                Geometry Summary                 |
           -------------------------------------------------

      molecular mass/u    :      242.2521403
   center of mass at/Å    :        0.5988499      -0.3518219       0.5376896
  moments of inertia/u·Å² :        0.8745381E+03   0.1359197E+04   0.2111168E+04
rotational constants/cm⁻¹ :        0.1927604E-01   0.1240264E-01   0.7984978E-02

 * 30 selected distances

     #   Z          #   Z                                           value/Å
     1   6 C        2   7 N                                       1.4798464
     2   7 N        3   6 C                                       1.5085201
     3   6 C        4   6 C                                       1.5245880
     3   6 C        5   6 C                                       1.5304756 (max)
     6   6 C        7   7 N                                       1.2896449
     7   7 N        8   6 C                                       1.3758768
     9   6 C       10   8 O                                       1.2170943
     9   6 C       11   8 O                                       1.3226897
    11   8 O       12   6 C                                       1.4355942
     8   6 C       13   6 C                                       1.3736517
    13   6 C       14   8 O                                       1.3272236
    15   6 C       16   8 O                                       1.2125391
     6   6 C       17   7 N                                       1.3558345
    15   6 C       17   7 N                                       1.3915949
     1   6 C       18   1 H                                       1.0858718
     1   6 C       19   1 H                                       1.0864015
     1   6 C       20   1 H                                       1.0872689
     2   7 N       21   1 H                                       1.0320192
     2   7 N       22   1 H                                       1.0170044
     4   6 C       23   1 H                                       1.0882774
     4   6 C       24   1 H                                       1.0886141
     4   6 C       25   1 H                                       1.0887929
     5   6 C       26   1 H                                       1.0878139
     5   6 C       27   1 H                                       1.0893957
     5   6 C       28   1 H                                       1.0889897
    12   6 C       29   1 H                                       1.0922007
    12   6 C       30   1 H                                       1.0876511
    12   6 C       31   1 H                                       1.0924431
    14   8 O       32   1 H                                       0.9871090 (min)
    17   7 N       33   1 H                                       1.0086852

 * 6 distinct bonds (by element types)

   Z      Z             #   av. dist./Å        max./Å        min./Å
   1 H    6 C          12     1.0886434     1.0924431     1.0858718
   6 C    6 C           3     1.4762384     1.5304756     1.3736517
   1 H    7 N           3     1.0192363     1.0320192     1.0086852
   6 C    7 N           6     1.4002196     1.5085201     1.2896449
   1 H    8 O           1     0.9871090     0.9871090     0.9871090
   6 C    8 O           5     1.3030282     1.4355942     1.2125391


optimized geometry written to: xtbopt.xyz


           -------------------------------------------------
          | TOTAL ENERGY              -57.874943900838 Eh   |
          | GRADIENT NORM               0.000164528218 Eh/α |
          | HOMO-LUMO GAP               2.923542186205 eV   |
           -------------------------------------------------

------------------------------------------------------------------------
 * finished run on 2023/06/20 at 15:03:47.347     
------------------------------------------------------------------------
 total:
 * wall-time:     0 d,  0 h,  0 min,  5.778 sec
 *  cpu-time:     0 d,  0 h,  0 min,  5.670 sec
 * ratio c/w:     0.981 speedup
 SCF:
 * wall-time:     0 d,  0 h,  0 min,  0.103 sec
 *  cpu-time:     0 d,  0 h,  0 min,  0.102 sec
 * ratio c/w:     0.993 speedup
 ANC optimizer:
 * wall-time:     0 d,  0 h,  0 min,  5.563 sec
 *  cpu-time:     0 d,  0 h,  0 min,  5.527 sec
 * ratio c/w:     0.993 speedup

