      -----------------------------------------------------------      
     |                   =====================                   |     
     |                           x T B                           |     
     |                   =====================                   |     
     |                         S. Grimme                         |     
     |          Mulliken Center for Theoretical Chemistry        |     
     |                    University of Bonn                     |     
      -----------------------------------------------------------      

   * xtb version 6.5.1 (579679a) compiled by 'ehlert@majestix' on 2022-07-11

   xtb is free software: you can redistribute it and/or modify it under
   the terms of the GNU Lesser General Public License as published by
   the Free Software Foundation, either version 3 of the License, or
   (at your option) any later version.
   
   xtb is distributed in the hope that it will be useful,
   but WITHOUT ANY WARRANTY; without even the implied warranty of
   MERCHANTABILITY or FITNESS FOR A PARTICULAR PURPOSE.  See the
   GNU Lesser General Public License for more details.
   
   Cite this work as:
   * C. Bannwarth, E. Caldeweyher, S. Ehlert, A. Hansen, P. Pracht,
     J. Seibert, S. Spicher, S. Grimme, WIREs Comput. Mol. Sci., 2020, 11,
     e01493. DOI: 10.1002/wcms.1493
   
   for GFN2-xTB:
   * C. Bannwarth, S. Ehlert and S. Grimme., J. Chem. Theory Comput., 2019,
     15, 1652-1671. DOI: 10.1021/acs.jctc.8b01176
   for GFN1-xTB:
   * S. Grimme, C. Bannwarth, P. Shushkov, J. Chem. Theory Comput., 2017,
     13, 1989-2009. DOI: 10.1021/acs.jctc.7b00118
   for GFN0-xTB:
   * P. Pracht, E. Caldeweyher, S. Ehlert, S. Grimme, ChemRxiv, 2019, preprint.
     DOI: 10.26434/chemrxiv.8326202.v1
   for GFN-FF:
   * S. Spicher and S. Grimme, Angew. Chem. Int. Ed., 2020, 59, 15665-15673.
     DOI: 10.1002/anie.202004239
   
   for ALPB and GBSA implicit solvation:
   * S. Ehlert, M. Stahn, S. Spicher, S. Grimme, J. Chem. Theory Comput.,
     2021, 17, 4250-4261. DOI: 10.1021/acs.jctc.1c00471
   
   for DFT-D4:
   * E. Caldeweyher, C. Bannwarth and S. Grimme, J. Chem. Phys., 2017,
     147, 034112. DOI: 10.1063/1.4993215
   * E. Caldeweyher, S. Ehlert, A. Hansen, H. Neugebauer, S. Spicher,
     C. Bannwarth and S. Grimme, J. Chem. Phys., 2019, 150, 154122.
     DOI: 10.1063/1.5090222
   * E. Caldeweyher, J.-M. Mewes, S. Ehlert and S. Grimme, Phys. Chem. Chem. Phys.
     2020, 22, 8499-8512. DOI: 10.1039/D0CP00502A
   
   for sTDA-xTB:
   * S. Grimme and C. Bannwarth, J. Chem. Phys., 2016, 145, 054103.
     DOI: 10.1063/1.4959605
   
   in the mass-spec context:
   * V. Asgeirsson, C. Bauer and S. Grimme, Chem. Sci., 2017, 8, 4879.
     DOI: 10.1039/c7sc00601b
   * J. Koopman and S. Grimme, ACS Omega 2019, 4, 12, 15120-15133.
     DOI: 10.1021/acsomega.9b02011
   
   for metadynamics refer to:
   * S. Grimme, J. Chem. Theory Comput., 2019, 155, 2847-2862
     DOI: 10.1021/acs.jctc.9b00143
   
   for SPH calculations refer to:
   * S. Spicher and S. Grimme, J. Chem. Theory Comput., 2021, 17, 1701-1714
     DOI: 10.1021/acs.jctc.0c01306
   
   with help from (in alphabetical order)
   P. Atkinson, C. Bannwarth, F. Bohle, G. Brandenburg, E. Caldeweyher
   M. Checinski, S. Dohm, S. Ehlert, S. Ehrlich, I. Gerasimov, C. Hölzer
   A. Katbashev, J. Koopman, C. Lavigne, S. Lehtola, F. März, M. Müller,
   F. Musil, H. Neugebauer, J. Pisarek, C. Plett, P. Pracht, F. Pultar,
   J. Seibert, P. Shushkov, S. Spicher, M. Stahn, M. Steiner, T. Strunk,
   J. Stückrath, T. Rose, and J. Unsleber
   
 * started run on 2023/06/20 at 14:51:55.244     

           -------------------------------------------------
          |                Calculation Setup                |
           -------------------------------------------------

          program call               : /lustre/hpc/kemi/ree/PhD/git/ReactivityQM/dep/xtb-6.5.1/bin/xtb --gfn 1 /lustre/hpc/kemi/ree/PhD/git/ReactivityQM/calculations/R01/reac01/conf08/R01_reac01_conf08_gfn1.xyz --opt --vfukui --chrg 0 --uhf 0 --alpb DMSO
          hostname                   : node312
          coordinate file            : /lustre/hpc/kemi/ree/PhD/git/ReactivityQM/calculations/R01/reac01/conf08/R01_reac01_conf08_gfn1.xyz
          omp threads                :                     1

   ID    Z sym.   atoms
    1    6 C      1, 3, 5, 8, 9
    2    8 O      2, 4, 10
    3    7 N      6, 7
    4    1 H      11-16

           -------------------------------------------------
          |                 G F N 1 - x T B                 |
           -------------------------------------------------

        Reference                      10.1021/acs.jctc.7b00118
      * Hamiltonian:
        H0-scaling (s, p, d)           1.850000    2.250000    2.000000
        zeta-weighting                 0.000000
      * Dispersion:
        s8                             2.400000
        a1                             0.630000
        a2                             5.000000
        s9                             0.000000
      * Repulsion:
        kExp                           1.500000
        rExp                           1.000000
      * Coulomb:
        alpha                          2.000000
        third order                    atomic
        anisotropic                    false
      * Halogen bond correction:
        rad-scale                      1.300000
        damping                        0.440000

      * Solvation model:               ALPB
        Solvent                        DMSO
        Parameter file                 internal GFN1-xTB/ALPB
        Dielectric constant                4.6680E+01
        Reference state                gsolv [1 M gas/solution]
        Free energy shift                  7.6243E-03 Eh       4.7843E+00 kcal/mol
        Temperature                        2.9815E+02 K
        Density                            1.1000E+00 kg/L
        Solvent mass                       7.8130E+01 g/mol
        Interaction kernel             P16
        Born radius scaling (c1)           1.7672E+00
        Born radii integrator          GBOBC
        Born offset                        0.0000E+00 a0       0.0000E+00 AA
        H-bond correction              true
        Ion screening                  false
        Surface tension                    1.0000E-05 Eh       1.5569E+01 dyn/cm
        Grid points                               230 per atom

          ...................................................
          :                      SETUP                      :
          :.................................................:
          :  # basis functions                  52          :
          :  # atomic orbitals                  52          :
          :  # shells                           32          :
          :  # electrons                        54          :
          :  # halogen bonds                     0          :
          :  max. iterations                   250          :
          :  Hamiltonian                  GFN1-xTB          :
          :  restarted?                      false          :
          :  GBSA solvation                   true          :
          :  PC potential                    false          :
          :  electronic temp.          300.0000000     K    :
          :  accuracy                    1.0000000          :
          :  -> integral cutoff          0.2500000E+02      :
          :  -> integral neglect         0.1000000E-07      :
          :  -> SCF convergence          0.1000000E-05 Eh   :
          :  -> wf. convergence          0.2000000E-04 e    :
          :  Broyden damping             0.4000000          :
          ...................................................

 iter      E             dE          RMSdq      gap      omega  full diag
   1    -34.4256256 -0.344256E+02  0.824E+00    3.49       0.0  T
   2    -34.5599274 -0.134302E+00  0.493E+00    3.03       1.0  T
   3    -34.5579314  0.199606E-02  0.189E+00    3.52       1.0  T
   4    -34.5691346 -0.112032E-01  0.156E-01    3.35       1.0  T
   5    -34.5693834 -0.248857E-03  0.331E-02    3.35       1.0  T
   6    -34.5693939 -0.105002E-04  0.810E-03    3.34       3.1  T
   7    -34.5693941 -0.236123E-06  0.199E-03    3.34      12.5  T
   8    -34.5693942 -0.441198E-07  0.427E-04    3.34      58.6  T
   9    -34.5693942 -0.159974E-08  0.150E-04    3.34     167.1  T
  10    -34.5693942 -0.919087E-10  0.347E-05    3.34     720.7  T

   *** convergence criteria satisfied after 10 iterations ***

         #    Occupation            Energy/Eh            Energy/eV
      -------------------------------------------------------------
         1        2.0000           -0.8703048             -23.6822
       ...           ...                  ...                  ...
        21        2.0000           -0.5196791             -14.1412
        22        2.0000           -0.5148443             -14.0096
        23        2.0000           -0.4973024             -13.5323
        24        2.0000           -0.4964801             -13.5099
        25        2.0000           -0.4889179             -13.3041
        26        2.0000           -0.4569878             -12.4353
        27        2.0000           -0.4536492             -12.3444 (HOMO)
        28                         -0.3308252              -9.0022 (LUMO)
        29                         -0.2658844              -7.2351
        30                         -0.2158983              -5.8749
        31                         -0.1478283              -4.0226
        32                         -0.1322343              -3.5983
       ...                                ...                  ...
        52                          0.6742894              18.3483
      -------------------------------------------------------------
                  HL-Gap            0.1228239 Eh            3.3422 eV
             Fermi-level           -0.3922372 Eh          -10.6733 eV

 SCC (total)                   0 d,  0 h,  0 min,  0.030 sec
 SCC setup                      ...        0 min,  0.001 sec (  2.323%)
 Dispersion                     ...        0 min,  0.000 sec (  0.363%)
 classical contributions        ...        0 min,  0.000 sec (  0.130%)
 integral evaluation            ...        0 min,  0.007 sec ( 24.648%)
 iterations                     ...        0 min,  0.007 sec ( 21.956%)
 molecular gradient             ...        0 min,  0.015 sec ( 49.847%)
 printout                       ...        0 min,  0.000 sec (  0.609%)

         :::::::::::::::::::::::::::::::::::::::::::::::::::::
         ::                     SUMMARY                     ::
         :::::::::::::::::::::::::::::::::::::::::::::::::::::
         :: total energy             -34.287719449902 Eh    ::
         :: total w/o Gsasa/hb       -34.280342389427 Eh    ::
         :: gradient norm              0.084735225642 Eh/a0 ::
         :: HOMO-LUMO gap              3.342209719095 eV    ::
         ::.................................................::
         :: SCC energy               -34.569394191917 Eh    ::
         :: -> electrostatic           0.140274978517 Eh    ::
         :: -> Gsolv                  -0.020461939450 Eh    ::
         ::    -> Gelec               -0.013084878974 Eh    ::
         ::    -> Gsasa               -0.013649958920 Eh    ::
         ::    -> Ghb                 -0.001351380560 Eh    ::
         ::    -> Gshift               0.007624279005 Eh    ::
         :: repulsion energy           0.287619427869 Eh    ::
         :: dispersion energy         -0.005944685855 Eh    ::
         :: halogen bond corr.         0.000000000000 Eh    ::
         :: add. restraining           0.000000000000 Eh    ::
         :: total charge               0.000000000000 e     ::
         :::::::::::::::::::::::::::::::::::::::::::::::::::::

      ----------------------------------------------------------- 
     |                   =====================                   |
     |                        A N C O P T                        |
     |                   =====================                   |
     |               Approximate Normal Coordinate               |
     |                Rational Function Optimizer                |
      ----------------------------------------------------------- 

          ...................................................
          :                      SETUP                      :
          :.................................................:
          :   optimization level            normal          :
          :   max. optcycles                   200          :
          :   ANC micro-cycles                  20          :
          :   degrees of freedom                42          :
          :.................................................:
          :   RF solver                   davidson          :
          :   write xtbopt.log                true          :
          :   linear?                        false          :
          :   energy convergence         0.5000000E-05 Eh   :
          :   grad. convergence          0.1000000E-02 Eh/α :
          :   maximium RF displ.         1.0000000          :
          :   Hlow (freq-cutoff)         0.1000000E-01      :
          :   Hmax (freq-cutoff)         5.0000000          :
          :   S6 in model hess.         20.0000000          :
          ...................................................

generating ANC from model Hessian ...
Using Lindh-Hessian (1995)
 Shifting diagonal of input Hessian by   7.348574223945409E-003
 Lowest  eigenvalues of input Hessian
    0.000000    0.000000    0.000000    0.000000    0.000000    0.000000
    0.010000    0.012445    0.013202    0.016464    0.023262    0.031003
    0.038143    0.043250    0.049235    0.070080    0.085899    0.095446
 Highest eigenvalues
    1.648880    1.729878    1.894985    1.968897    2.135710    2.333239
 

........................................................................
.............................. CYCLE    1 ..............................
........................................................................
   1    -34.5693942 -0.345694E+02  0.429E-06    3.34       0.0  T
   2    -34.5693942 -0.213163E-12  0.195E-06    3.34   12852.0  T
   3    -34.5693942 -0.213163E-13  0.101E-06    3.34   24788.8  T
     SCC iter.                  ...        0 min,  0.002 sec
     gradient                   ...        0 min,  0.015 sec
 * total energy  :   -34.2877194 Eh     change       -0.2195577E-11 Eh
   gradient norm :     0.0847351 Eh/α   predicted     0.0000000E+00 (-100.00%)
   displ. norm   :     0.2454936 α      lambda       -0.7607078E-02
   maximum displ.:     0.1662149 α      in ANC's #3, #6, #10, ...

........................................................................
.............................. CYCLE    2 ..............................
........................................................................
   1    -34.5806166 -0.345806E+02  0.980E-02    3.56       0.0  T
   2    -34.5808118 -0.195146E-03  0.554E-02    3.49       1.0  T
   3    -34.5808383 -0.265293E-04  0.225E-02    3.50       1.1  T
   4    -34.5808385 -0.255146E-06  0.369E-03    3.50       6.8  T
   5    -34.5808386 -0.642231E-07  0.903E-04    3.50      27.7  T
   6    -34.5808386 -0.746341E-08  0.321E-04    3.50      77.9  T
   7    -34.5808386 -0.480767E-09  0.826E-05    3.50     302.6  T
   8    -34.5808386 -0.205986E-10  0.220E-05    3.50    1138.3  T
     SCC iter.                  ...        0 min,  0.004 sec
     gradient                   ...        0 min,  0.013 sec
 * total energy  :   -34.2931328 Eh     change       -0.5413393E-02 Eh
   gradient norm :     0.0439051 Eh/α   predicted    -0.4032768E-02 ( -25.50%)
   displ. norm   :     0.3005309 α      lambda       -0.3368163E-02
   maximum displ.:     0.2708818 α      in ANC's #3, #6, #10, ...

........................................................................
.............................. CYCLE    3 ..............................
........................................................................
   1    -34.5868151 -0.345868E+02  0.926E-02    3.70       0.0  T
   2    -34.5869819 -0.166875E-03  0.513E-02    3.65       1.0  T
   3    -34.5870056 -0.236546E-04  0.201E-02    3.66       1.2  T
   4    -34.5870059 -0.292344E-06  0.260E-03    3.65       9.6  T
   5    -34.5870059 -0.447991E-07  0.941E-04    3.66      26.6  T
   6    -34.5870059 -0.628626E-08  0.330E-04    3.66      75.7  T
   7    -34.5870059 -0.422020E-09  0.904E-05    3.66     276.4  T
   8    -34.5870059 -0.200799E-10  0.259E-05    3.66     965.6  T
     SCC iter.                  ...        0 min,  0.003 sec
     gradient                   ...        0 min,  0.008 sec
 * total energy  :   -34.2951904 Eh     change       -0.2057533E-02 Eh
   gradient norm :     0.0150309 Eh/α   predicted    -0.1836190E-02 ( -10.76%)
   displ. norm   :     0.2202386 α      lambda       -0.7338258E-03
   maximum displ.:     0.2164138 α      in ANC's #3, #6, #2, ...

........................................................................
.............................. CYCLE    4 ..............................
........................................................................
   1    -34.5877999 -0.345878E+02  0.327E-02    3.72       0.0  T
   2    -34.5878160 -0.160969E-04  0.170E-02    3.71       1.5  T
   3    -34.5878184 -0.236367E-05  0.732E-03    3.71       3.4  T
   4    -34.5878184 -0.231103E-07  0.133E-03    3.71      18.9  T
   5    -34.5878184 -0.107624E-07  0.358E-04    3.71      69.8  T
   6    -34.5878184 -0.101762E-08  0.108E-04    3.71     232.0  T
   7    -34.5878184 -0.426468E-10  0.390E-05    3.71     640.9  T
     SCC iter.                  ...        0 min,  0.003 sec
     gradient                   ...        0 min,  0.008 sec
 * total energy  :   -34.2957447 Eh     change       -0.5542816E-03 Eh
   gradient norm :     0.0103779 Eh/α   predicted    -0.3847138E-03 ( -30.59%)
   displ. norm   :     0.2209989 α      lambda       -0.5295991E-03
   maximum displ.:     0.2169687 α      in ANC's #3, #26, #2, ...

........................................................................
.............................. CYCLE    5 ..............................
........................................................................
   1    -34.5880980 -0.345881E+02  0.233E-02    3.74       0.0  T
   2    -34.5881034 -0.543073E-05  0.933E-03    3.73       2.7  T
   3    -34.5881039 -0.527866E-06  0.509E-03    3.73       4.9  T
   4    -34.5881039 -0.287257E-07  0.163E-03    3.73      15.3  T
   5    -34.5881040 -0.696342E-08  0.197E-04    3.73     127.2  T
   6    -34.5881040 -0.457320E-09  0.491E-05    3.73     509.7  T
     SCC iter.                  ...        0 min,  0.002 sec
     gradient                   ...        0 min,  0.008 sec
 * total energy  :   -34.2961416 Eh     change       -0.3969482E-03 Eh
   gradient norm :     0.0080750 Eh/α   predicted    -0.2777335E-03 ( -30.03%)
   displ. norm   :     0.1776650 α      lambda       -0.2695756E-03
   maximum displ.:     0.1737187 α      in ANC's #3, #2, #6, ...

........................................................................
.............................. CYCLE    6 ..............................
........................................................................
   1    -34.5883067 -0.345883E+02  0.124E-02    3.74       0.0  T
   2    -34.5883085 -0.181039E-05  0.463E-03    3.74       5.4  T
   3    -34.5883087 -0.115441E-06  0.259E-03    3.74       9.7  T
   4    -34.5883087 -0.123285E-07  0.101E-03    3.74      24.7  T
   5    -34.5883087 -0.122143E-08  0.138E-04    3.74     180.9  T
   6    -34.5883087 -0.170054E-09  0.201E-05    3.74    1245.3  T
     SCC iter.                  ...        0 min,  0.002 sec
     gradient                   ...        0 min,  0.008 sec
 * total energy  :   -34.2963583 Eh     change       -0.2167430E-03 Eh
   gradient norm :     0.0066410 Eh/α   predicted    -0.1390443E-03 ( -35.85%)
   displ. norm   :     0.1496783 α      lambda       -0.1773367E-03
   maximum displ.:     0.1450204 α      in ANC's #3, #2, #5, ...

........................................................................
.............................. CYCLE    7 ..............................
........................................................................
   1    -34.5887420 -0.345887E+02  0.672E-03    3.74       0.0  T
   2    -34.5887425 -0.474025E-06  0.404E-03    3.74       6.2  T
   3    -34.5887425 -0.382605E-07  0.197E-03    3.74      12.7  T
   4    -34.5887425 -0.368612E-08  0.582E-04    3.74      42.9  T
   5    -34.5887425 -0.858158E-09  0.776E-05    3.74     322.0  T
   6    -34.5887425 -0.221334E-10  0.176E-05    3.74    1423.0  T
     SCC iter.                  ...        0 min,  0.002 sec
     gradient                   ...        0 min,  0.012 sec
 * total energy  :   -34.2965047 Eh     change       -0.1463942E-03 Eh
   gradient norm :     0.0049315 Eh/α   predicted    -0.9065437E-04 ( -38.08%)
   displ. norm   :     0.1337807 α      lambda       -0.1219010E-03
   maximum displ.:     0.1275357 α      in ANC's #3, #2, #5, ...

........................................................................
.............................. CYCLE    8 ..............................
........................................................................
   1    -34.5891854 -0.345892E+02  0.543E-03    3.73       0.0  T
   2    -34.5891856 -0.153069E-06  0.351E-03    3.73       7.1  T
   3    -34.5891856 -0.141176E-07  0.182E-03    3.73      13.8  T
   4    -34.5891856 -0.225903E-08  0.235E-04    3.73     106.2  T
   5    -34.5891856 -0.280288E-09  0.669E-05    3.73     373.4  T
   6    -34.5891856 -0.120437E-10  0.139E-05    3.73    1794.9  T
     SCC iter.                  ...        0 min,  0.003 sec
     gradient                   ...        0 min,  0.012 sec
 * total energy  :   -34.2966021 Eh     change       -0.9730815E-04 Eh
   gradient norm :     0.0032507 Eh/α   predicted    -0.6203984E-04 ( -36.24%)
   displ. norm   :     0.1086694 α      lambda       -0.6508849E-04
   maximum displ.:     0.1016356 α      in ANC's #3, #5, #4, ...

........................................................................
.............................. CYCLE    9 ..............................
........................................................................
   1    -34.5894887 -0.345895E+02  0.477E-03    3.73       0.0  T
   2    -34.5894889 -0.248194E-06  0.219E-03    3.73      11.4  T
   3    -34.5894890 -0.141928E-07  0.122E-03    3.73      20.4  T
   4    -34.5894890 -0.121128E-08  0.388E-04    3.73      64.4  T
   5    -34.5894890 -0.485144E-09  0.542E-05    3.73     461.6  T
   6    -34.5894890 -0.250324E-10  0.145E-05    3.73    1718.4  T
     SCC iter.                  ...        0 min,  0.003 sec
     gradient                   ...        0 min,  0.015 sec
 * total energy  :   -34.2966516 Eh     change       -0.4959130E-04 Eh
   gradient norm :     0.0019991 Eh/α   predicted    -0.3292836E-04 ( -33.60%)
   displ. norm   :     0.1182819 α      lambda       -0.2787486E-04
   maximum displ.:     0.1071606 α      in ANC's #3, #2, #1, ...

........................................................................
.............................. CYCLE   10 ..............................
........................................................................
   1    -34.5897044 -0.345897E+02  0.500E-03    3.72       0.0  T
   2    -34.5897049 -0.464609E-06  0.195E-03    3.72      12.8  T
   3    -34.5897049 -0.265452E-07  0.907E-04    3.73      27.6  T
   4    -34.5897049 -0.115164E-08  0.472E-04    3.73      52.9  T
   5    -34.5897049 -0.233946E-09  0.627E-05    3.73     398.5  T
   6    -34.5897049 -0.285993E-10  0.138E-05    3.73    1813.2  T
     SCC iter.                  ...        0 min,  0.003 sec
     gradient                   ...        0 min,  0.015 sec
 * total energy  :   -34.2966771 Eh     change       -0.2541013E-04 Eh
   gradient norm :     0.0014343 Eh/α   predicted    -0.1402459E-04 ( -44.81%)
   displ. norm   :     0.0587186 α      lambda       -0.7617358E-05
   maximum displ.:     0.0492136 α      in ANC's #3, #5, #4, ...

........................................................................
.............................. CYCLE   11 ..............................
........................................................................
   1    -34.5897851 -0.345898E+02  0.218E-03    3.73       0.0  T
   2    -34.5897852 -0.933811E-07  0.117E-03    3.73      21.4  T
   3    -34.5897852 -0.511020E-08  0.593E-04    3.73      42.1  T
   4    -34.5897852  0.635723E-10  0.240E-04    3.73     104.0  T
   5    -34.5897852 -0.137319E-09  0.219E-05    3.73    1140.3  T
   6    -34.5897852 -0.151346E-11  0.603E-06    3.73    4146.7  T
     SCC iter.                  ...        0 min,  0.003 sec
     gradient                   ...        0 min,  0.015 sec
 * total energy  :   -34.2966825 Eh     change       -0.5429310E-05 Eh
   gradient norm :     0.0011947 Eh/α   predicted    -0.3815714E-05 ( -29.72%)
   displ. norm   :     0.0355771 α      lambda       -0.4374700E-05
   maximum displ.:     0.0224078 α      in ANC's #3, #1, #2, ...

........................................................................
.............................. CYCLE   12 ..............................
........................................................................
   1    -34.5898267 -0.345898E+02  0.198E-03    3.73       0.0  T
   2    -34.5898268 -0.510586E-07  0.904E-04    3.73      27.6  T
   3    -34.5898268 -0.461294E-08  0.464E-04    3.73      53.8  T
   4    -34.5898268 -0.189388E-09  0.148E-04    3.73     168.5  T
   5    -34.5898268 -0.650431E-10  0.227E-05    3.73    1101.2  T
     SCC iter.                  ...        0 min,  0.003 sec
     gradient                   ...        0 min,  0.015 sec
 * total energy  :   -34.2966866 Eh     change       -0.4133804E-05 Eh
   gradient norm :     0.0006494 Eh/α   predicted    -0.2187820E-05 ( -47.07%)
   displ. norm   :     0.0295556 α      lambda       -0.3019393E-05
   maximum displ.:     0.0158985 α      in ANC's #1, #5, #2, ...

   *** GEOMETRY OPTIMIZATION CONVERGED AFTER 12 ITERATIONS ***

------------------------------------------------------------------------
 total energy gain   :        -0.0089672 Eh       -5.6270 kcal/mol
 total RMSD          :         0.4123461 a0        0.2182 Å
 total power (kW/mol):        -1.9619409 (step)  -89.4260 (real)
------------------------------------------------------------------------

 ANCopt (total)                0 d,  0 h,  0 min,  0.263 sec
 optimizer setup                ...        0 min,  0.001 sec (  0.243%)
 model hessian                  ...        0 min,  0.002 sec (  0.683%)
 ANC generation                 ...        0 min,  0.000 sec (  0.145%)
 coordinate transformation      ...        0 min,  0.000 sec (  0.047%)
 single point calculation       ...        0 min,  0.256 sec ( 97.239%)
 optimization log               ...        0 min,  0.002 sec (  0.637%)
 hessian update                 ...        0 min,  0.000 sec (  0.050%)
 rational function              ...        0 min,  0.002 sec (  0.589%)

================
 final structure:
================
16
 xtb: 6.5.1 (579679a)
C            3.23392973749886        0.70129064412909       -0.25596234956478
O            1.82939675217965        0.49092365043315       -0.06599292773787
C            1.45315634641656       -0.72042364791222        0.31819856528754
O            2.20358316727362       -1.64524166107682        0.51581692456260
C           -0.01714836203144       -0.81466381158233        0.48287968011942
N           -0.69320746667184       -1.85410824793909        0.87219611158632
N           -2.00084522157085       -1.48989773858826        0.88188862980745
C           -2.04652085354635       -0.24862918109596        0.49660826014573
C           -3.24290108687890        0.60413906644727        0.32994214224112
O           -0.82699899061659        0.23371614637036        0.23069446358451
H            3.60404560936824        0.04526198079916       -1.04631434230916
H            3.77040075185086        0.49384886864677        0.67222414569806
H            3.35159037758232        1.74431621367367       -0.53981505507598
H           -3.46755624338883        0.72264065214664       -0.73109376124088
H           -4.09507966408805        0.14492013526384        0.82530230026589
H           -3.05584585337723        1.59190593028470        0.74793321263005
 
 Bond Distances (Angstroems)
 ---------------------------
C1-O2=1.4328         C1-H11=1.0918        C1-H12=1.0920        C1-H13=1.0873        O2-C1=1.4328         O2-C3=1.3253         
C3-O2=1.3253         C3-O4=1.2073         C3-C5=1.4825         O4-C3=1.2073         C5-C3=1.4825         C5-N6=1.2996         
C5-O10=1.3485        N6-C5=1.2996         N6-N7=1.3574         N7-N6=1.3574         N7-C8=1.3005         C8-N7=1.3005         
C8-C9=1.4786         C8-O10=1.3381        C9-C8=1.4786         C9-H14=1.0910        C9-H15=1.0874        C9-H16=1.0888        
O10-C5=1.3485        O10-C8=1.3381        H11-C1=1.0918        H12-C1=1.0920        H13-C1=1.0873        H14-C9=1.0910        
H15-C9=1.0874        H16-C9=1.0888        
 C  H  Rav=1.0897 sigma=0.0020  Rmin=1.0873  Rmax=1.0920     6
 C  C  Rav=1.4806 sigma=0.0019  Rmin=1.4786  Rmax=1.4825     2
 N  C  Rav=1.3001 sigma=0.0004  Rmin=1.2996  Rmax=1.3005     2
 N  N  Rav=1.3574 sigma=0.0000  Rmin=1.3574  Rmax=1.3574     1
 O  C  Rav=1.3304 sigma=0.0722  Rmin=1.2073  Rmax=1.4328     5
 
 selected bond angles (degree)
 --------------------
H11-C1-O2=109.88               H12-C1-O2=109.94               H12-C1-H11=109.55              H13-C1-O2=106.35               
H13-C1-H11=110.53              H13-C1-H12=110.55              C3-O2-C1=116.80                O4-C3-O2=124.83                
C5-C3-O2=111.83                C5-C3-O4=123.34                N6-C5-C3=126.87                O10-C5-C3=121.70               
O10-C5-N6=111.43               N7-N6-C5=106.78                C8-N7-N6=106.73                C9-C8-N7=127.75                
O10-C8-N7=111.77               O10-C8-C9=120.47               H14-C9-C8=109.81               H15-C9-C8=109.83               
H15-C9-H14=109.12              H16-C9-C8=109.93               H16-C9-H14=108.07              H16-C9-H15=110.05              
C8-O10-C5=103.29               
 
 selected dihedral angles (degree)
 ---------------------------------
C3-O2-C1-H11= 61.82           C3-O2-C1-H12=301.17           C3-O2-C1-H13=181.47           O4-C3-O2-C1=  0.00            
C5-C3-O2-C1=179.91            N6-C5-C3-O2=181.40            N6-C5-C3-O4=  1.33            O10-C5-C3-O2=  1.24           
O10-C5-C3-O4=181.16           N7-N6-C5-C3=179.82            N7-N6-C5-O10=359.97           C8-N7-N6-C5=  0.05            
C9-C8-N7-N6=179.42            O10-C8-N7-N6=359.95           H14-C9-C8-N7=255.08           H14-C9-C8-O10= 74.51          
H15-C9-C8-N7= 15.07           H15-C9-C8-O10=194.50          H16-C9-C8-N7=136.30           H16-C9-C8-O10=315.73          
C8-O10-C5-C3=180.14           C8-O10-C5-N6=  0.00           C5-O10-C8-N7=  0.03           C5-O10-C8-C9=180.52           
           -------------------------------------------------
          |                Final Singlepoint                |
           -------------------------------------------------

          ...................................................
          :                      SETUP                      :
          :.................................................:
          :  # basis functions                  52          :
          :  # atomic orbitals                  52          :
          :  # shells                           32          :
          :  # electrons                        54          :
          :  # halogen bonds                     0          :
          :  max. iterations                   250          :
          :  Hamiltonian                  GFN1-xTB          :
          :  restarted?                      false          :
          :  GBSA solvation                   true          :
          :  PC potential                    false          :
          :  electronic temp.          300.0000000     K    :
          :  accuracy                    1.0000000          :
          :  -> integral cutoff          0.2500000E+02      :
          :  -> integral neglect         0.1000000E-07      :
          :  -> SCF convergence          0.1000000E-05 Eh   :
          :  -> wf. convergence          0.2000000E-04 e    :
          :  Broyden damping             0.4000000          :
          ...................................................

 iter      E             dE          RMSdq      gap      omega  full diag
   1    -34.5898268 -0.345898E+02  0.665E-06    3.73       0.0  T
   2    -34.5898268 -0.220268E-12  0.315E-06    3.73    7933.9  T
   3    -34.5898268  0.000000E+00  0.161E-06    3.73   15527.0  T

   *** convergence criteria satisfied after 3 iterations ***

         #    Occupation            Energy/Eh            Energy/eV
      -------------------------------------------------------------
         1        2.0000           -0.8708143             -23.6961
       ...           ...                  ...                  ...
        21        2.0000           -0.5203499             -14.1594
        22        2.0000           -0.5119799             -13.9317
        23        2.0000           -0.5037743             -13.7084
        24        2.0000           -0.4942751             -13.4499
        25        2.0000           -0.4836437             -13.1606
        26        2.0000           -0.4619390             -12.5700
        27        2.0000           -0.4603722             -12.5274 (HOMO)
        28                         -0.3232848              -8.7970 (LUMO)
        29                         -0.2624139              -7.1406
        30                         -0.2088351              -5.6827
        31                         -0.1450490              -3.9470
        32                         -0.1402831              -3.8173
       ...                                ...                  ...
        52                          0.7385182              20.0961
      -------------------------------------------------------------
                  HL-Gap            0.1370874 Eh            3.7303 eV
             Fermi-level           -0.3918285 Eh          -10.6622 eV

 SCC (total)                   0 d,  0 h,  0 min,  0.024 sec
 SCC setup                      ...        0 min,  0.001 sec (  2.537%)
 Dispersion                     ...        0 min,  0.000 sec (  0.271%)
 classical contributions        ...        0 min,  0.000 sec (  0.090%)
 integral evaluation            ...        0 min,  0.007 sec ( 29.875%)
 iterations                     ...        0 min,  0.002 sec (  7.377%)
 molecular gradient             ...        0 min,  0.014 sec ( 59.131%)
 printout                       ...        0 min,  0.000 sec (  0.587%)

         :::::::::::::::::::::::::::::::::::::::::::::::::::::
         ::                     SUMMARY                     ::
         :::::::::::::::::::::::::::::::::::::::::::::::::::::
         :: total energy             -34.296686615767 Eh    ::
         :: total w/o Gsasa/hb       -34.289127651588 Eh    ::
         :: gradient norm              0.000651336727 Eh/a0 ::
         :: HOMO-LUMO gap              3.730337656025 eV    ::
         ::.................................................::
         :: SCC energy               -34.589826784088 Eh    ::
         :: -> electrostatic           0.144058293944 Eh    ::
         :: -> Gsolv                  -0.021499874567 Eh    ::
         ::    -> Gelec               -0.013940910387 Eh    ::
         ::    -> Gsasa               -0.013789745570 Eh    ::
         ::    -> Ghb                 -0.001393497613 Eh    ::
         ::    -> Gshift               0.007624279005 Eh    ::
         :: repulsion energy           0.299101396600 Eh    ::
         :: dispersion energy         -0.005961228278 Eh    ::
         :: halogen bond corr.         0.000000000000 Eh    ::
         :: add. restraining           0.000000000000 Eh    ::
         :: total charge              -0.000000000000 e     ::
         :::::::::::::::::::::::::::::::::::::::::::::::::::::

           -------------------------------------------------
          |                Property Printout                |
           -------------------------------------------------

    * Orbital Energies and Occupations

         #    Occupation            Energy/Eh            Energy/eV
      -------------------------------------------------------------
         1        2.0000           -0.8708143             -23.6961
       ...           ...                  ...                  ...
        15        2.0000           -0.5965358             -16.2326
        16        2.0000           -0.5708290             -15.5330
        17        2.0000           -0.5648298             -15.3698
        18        2.0000           -0.5497322             -14.9590
        19        2.0000           -0.5483708             -14.9219
        20        2.0000           -0.5372454             -14.6192
        21        2.0000           -0.5203499             -14.1594
        22        2.0000           -0.5119799             -13.9317
        23        2.0000           -0.5037743             -13.7084
        24        2.0000           -0.4942751             -13.4499
        25        2.0000           -0.4836437             -13.1606
        26        2.0000           -0.4619390             -12.5700
        27        2.0000           -0.4603722             -12.5274 (HOMO)
        28                         -0.3232848              -8.7970 (LUMO)
        29                         -0.2624139              -7.1406
        30                         -0.2088351              -5.6827
        31                         -0.1450490              -3.9470
        32                         -0.1402831              -3.8173
        33                         -0.0773199              -2.1040
        34                         -0.0767754              -2.0892
        35                         -0.0762322              -2.0744
        36                         -0.0755944              -2.0570
        37                          0.0030302               0.0825
        38                          0.0388753               1.0579
       ...                                ...                  ...
        52                          0.7385182              20.0961
      -------------------------------------------------------------
                  HL-Gap            0.1370874 Eh            3.7303 eV
             Fermi-level           -0.3918285 Eh          -10.6622 eV

  Mulliken/CM5 charges         n(s)   n(p)   n(d)
     1C     0.16064  0.03950   0.983  2.856  0.000
     2O    -0.40240 -0.48612   1.683  4.720  0.000
     3C     0.57737  0.64559   0.958  2.464  0.000
     4O    -0.54936 -0.59344   1.722  4.828  0.000
     5C     0.33493  0.45823   0.998  2.667  0.000
     6N    -0.21449 -0.31784   1.566  3.648  0.000
     7N    -0.26290 -0.36977   1.563  3.700  0.000
     8C     0.39342  0.50169   1.009  2.597  0.000
     9C    -0.11165 -0.24902   1.012  3.099  0.000
    10O    -0.34021 -0.39193   1.692  4.648  0.000
    11H     0.05878  0.12025   0.941  0.000  0.000
    12H     0.05882  0.12053   0.941  0.000  0.000
    13H     0.06144  0.12189   0.939  0.000  0.000
    14H     0.08300  0.13716   0.917  0.000  0.000
    15H     0.07254  0.12819   0.927  0.000  0.000
    16H     0.08007  0.13510   0.920  0.000  0.000

Wiberg/Mayer (AO) data.
largest (>0.10) Wiberg bond orders for each atom

 ---------------------------------------------------------------------------
     #   Z sym  total        # sym  WBO       # sym  WBO       # sym  WBO
 ---------------------------------------------------------------------------
     1   6 C    3.861 --    13 H    0.985    12 H    0.979    11 H    0.979
                             2 O    0.887
     2   8 O    2.217 --     3 C    1.132     1 C    0.887     4 O    0.142
     3   6 C    3.866 --     4 O    1.661     2 O    1.132     5 C    0.991
     4   8 O    1.931 --     3 C    1.661     2 O    0.142
     5   6 C    3.880 --     6 N    1.607    10 O    1.055     3 C    0.991
     6   7 N    3.005 --     5 C    1.607     7 N    1.216
     7   7 N    2.981 --     8 C    1.590     6 N    1.216
     8   6 C    3.868 --     7 N    1.590    10 O    1.090     9 C    1.032
     9   6 C    3.985 --     8 C    1.032    15 H    0.981    16 H    0.969
                            14 H    0.957
    10   8 O    2.329 --     8 C    1.090     5 C    1.055
    11   1 H    1.004 --     1 C    0.979
    12   1 H    1.005 --     1 C    0.979
    13   1 H    1.009 --     1 C    0.985
    14   1 H    0.996 --     9 C    0.957
    15   1 H    0.998 --     9 C    0.981
    16   1 H    0.996 --     9 C    0.969
 ---------------------------------------------------------------------------

Topologies differ in total number of bonds
Writing topology from bond orders to xtbtopo.mol

 dipole moment from electron density (au)
     X       Y       Z   
  -0.4330   2.5667  -0.7605  total (Debye):    6.893

           -------------------------------------------------
          |                Geometry Summary                 |
           -------------------------------------------------

      molecular mass/u    :      142.1129452
   center of mass at/Å    :        0.0438168      -0.4400135       0.3649156
  moments of inertia/u·Å² :        0.1456815E+03   0.6189253E+03   0.7582272E+03
rotational constants/cm⁻¹ :        0.1157156E+00   0.2723694E-01   0.2223296E-01

 * 14 selected distances

     #   Z          #   Z                                           value/Å
     1   6 C        2   8 O                                       1.4328489
     2   8 O        3   6 C                                       1.3253387
     3   6 C        4   8 O                                       1.2072622
     5   6 C        6   7 N                                       1.2996416
     7   7 N        8   6 C                                       1.3004904
     8   6 C        9   6 C                                       1.4786201 (max)
     5   6 C       10   8 O                                       1.3485386
     8   6 C       10   8 O                                       1.3381334
     1   6 C       11   1 H                                       1.0917948
     1   6 C       12   1 H                                       1.0919540
     1   6 C       13   1 H                                       1.0873449 (min)
     9   6 C       14   1 H                                       1.0910133
     9   6 C       15   1 H                                       1.0874154
     9   6 C       16   1 H                                       1.0887561

 * 4 distinct bonds (by element types)

   Z      Z             #   av. dist./Å        max./Å        min./Å
   1 H    6 C           6     1.0897131     1.0919540     1.0873449
   6 C    6 C           1     1.4786201     1.4786201     1.4786201
   6 C    7 N           2     1.3000660     1.3004904     1.2996416
   6 C    8 O           5     1.3304244     1.4328489     1.2072622


optimized geometry written to: xtbopt.xyz


           -------------------------------------------------
          | TOTAL ENERGY              -34.296686615767 Eh   |
          | GRADIENT NORM               0.000651336727 Eh/α |
          | HOMO-LUMO GAP               3.730337656025 eV   |
           -------------------------------------------------

------------------------------------------------------------------------
 * finished run on 2023/06/20 at 14:51:55.628     
------------------------------------------------------------------------
 total:
 * wall-time:     0 d,  0 h,  0 min,  0.385 sec
 *  cpu-time:     0 d,  0 h,  0 min,  0.339 sec
 * ratio c/w:     0.882 speedup
 SCF:
 * wall-time:     0 d,  0 h,  0 min,  0.030 sec
 *  cpu-time:     0 d,  0 h,  0 min,  0.030 sec
 * ratio c/w:     0.999 speedup
 ANC optimizer:
 * wall-time:     0 d,  0 h,  0 min,  0.299 sec
 *  cpu-time:     0 d,  0 h,  0 min,  0.288 sec
 * ratio c/w:     0.961 speedup

