47
 energy: -79.450780026012 gnorm: 0.000462183584 xtb: 6.5.1 (579679a)
C            7.91373278794498       -0.65342972993940        1.24780017185838
F            6.95947581535688       -0.72286675549161        0.17135633859351
C            5.70894698047984        0.02791039235565        0.00361747341274
C            5.81584692556061        1.35797099620484       -0.31193036248180
C            4.61698968607916        2.02751455871696       -0.52403175046413
C            3.39561493140557        1.35949088690975       -0.41934270885143
C            2.12288306050589        2.12995833469541       -0.67754728137723
N            0.99188196060294        1.24983860573395       -0.88161798875216
C           -0.06313295163940        1.24875666484244       -0.03386256620233
O           -0.17570161997409        2.04281780781915        0.88669321032890
C           -1.09226698845795        0.19691287874617       -0.32767129183418
N           -2.36955554986804        0.50762144341053        0.03296038806757
C           -3.34630032265903       -0.32946572336138       -0.14012987078252
C           -4.72118624940793        0.15476439506129        0.30457728232668
C           -5.00048007571836       -0.36806696313395        1.72199288345504
C           -4.72999827056084        1.69337880121464        0.32195800554242
N           -5.75332411771211       -0.32997860550026       -0.60512615479117
N           -3.14046359695950       -1.58641249744531       -0.65082533205649
C           -4.20881796836476       -2.57419623644986       -0.83123045476679
C           -1.88339530555452       -1.99518770936811       -1.05770982633450
O           -1.66387735892130       -3.10519471082643       -1.53952168678558
C           -0.82544346133340       -1.02422401051370       -0.86983211682723
O            0.41042061164044       -1.42985665700026       -1.24469400340268
C            3.37050664636367        0.00630979234201       -0.08572038267174
C            4.55140358264804       -0.69316189481843        0.13707936079173
H            8.27899211265796        0.36900974876419        1.26398678423934
H            7.37296148845161       -0.92988445470875        2.14789989213709
H            8.67245051798348       -1.37574331066072        0.96124011488966
H            6.77178870884416        1.85406533540649       -0.39931138818545
H            4.64278930828915        3.07979854729606       -0.78024653577451
H            2.25610107288873        2.76942561042003       -1.55601412156153
H            1.89849135823055        2.77186746200892        0.18301298410122
H            1.05969273350137        0.57820305709161       -1.62632724570399
H           -5.02682122769014       -1.45598660303168        1.74219970803528
H           -5.96297133540788        0.00877750348864        2.06490489090868
H           -4.22364631178244       -0.02328741879080        2.40365036942991
H           -4.47724676491402        2.07933207331897       -0.66431715832530
H           -4.00607800989340        2.07163635704077        1.04252690658926
H           -5.72337219512064        2.04453339994873        0.59546189767114
H           -6.66263937376123       -0.12204786471222       -0.21579887876768
H           -5.67909603899549        0.15756413480135       -1.48845973725871
H           -3.74896575062100       -3.56000940164853       -0.89877824548338
H           -4.89458055236363       -2.54499599466580        0.00904571091005
H           -4.75370402574388       -2.35956181751518       -1.74930689352818
H            0.33744310806511       -2.33915168409837       -1.59360935628619
H            2.42640948323658       -0.52057330123152       -0.00981757406377
H            4.55824354272613       -1.74417444272671        0.38793354006988
