47
 energy: -79.518071735396 gnorm: 0.000565104988 xtb: 6.5.1 (579679a)
C           -2.89687777208424        0.82333188638291        2.38156024251598
N           -1.83840275479359        0.14117702122512        1.62379950074084
C           -1.65998584078542        0.25956133596918        0.27826469176443
C           -2.53192304580280        1.13911398740065       -0.60767520858315
C           -2.21744240543513        0.84753364888555       -2.08407651226498
C           -2.22363058698244        2.61242708392277       -0.30333598980113
N           -3.94237988499102        0.87434101734668       -0.34512846237254
N           -0.67279166458979       -0.35096017271811       -0.32907128561928
C            0.16549823112465       -1.11452818239975        0.38410782453612
C            0.62080756531512       -3.01254032016005       -1.01948412587792
C            0.79609482873578       -4.22979056791299       -0.20429919850943
O            0.09558182578304       -2.86849579203437       -2.06672253684115
N            1.24556159464072       -1.77977244722291       -0.35606938303225
C            1.87383519477939       -0.88316605259589       -1.38519495339095
C            2.56175729291963        0.26064585906544       -0.69180073830137
C            1.96312699257222        1.51734430269090       -0.64132694404200
C            2.59773950431365        2.57126336923984       -0.00121750634888
C            3.82917409851878        2.33823845176943        0.58643710217084
F            4.44537750105122        3.34985424216492        1.20504468975913
C            4.44675991413961        1.09959601201239        0.56068883636742
C            3.80125802866775        0.05680457839807       -0.08652832845252
C            0.05737344106850       -1.30937688773926        1.71903751445838
O            0.91748353489590       -2.10657152390693        2.38383434664894
C           -0.99959183612264       -0.62660004284732        2.43286127068678
O           -1.15453309463911       -0.70736345291789        3.64160173562424
H           -2.46696200544863        1.69060035558801        2.88263056438092
H           -3.27613839401209        0.12811513764959        3.13065594907465
H           -3.69816804804203        1.12162767701237        1.71230231317760
H           -1.18765550042363        1.11492903317989       -2.31596805040592
H           -2.88601066848939        1.43145129190997       -2.71434550068971
H           -2.36132585071137       -0.21038186578177       -2.29765687021993
H           -1.16309734402005        2.80670954797486       -0.45656176322251
H           -2.79812156421005        3.24782815767275       -0.97533628903208
H           -2.48346715358297        2.86404223620905        0.72253988471547
H           -4.17466941033206       -0.05820938565020       -0.65892779374885
H           -4.50173691810209        1.53051144767750       -0.87336193212172
H            0.11140393315733       -5.00367278294971       -0.54709523521152
H            1.82212974196561       -4.57765868403786       -0.33684143834350
H            0.65213349706133       -4.02088621712749        0.85383261759901
H            1.94502165295400       -2.08484004388277        0.32478091848651
H            1.06669886996945       -0.54906997282070       -2.03875958400805
H            2.57690034084120       -1.50343240550888       -1.94271188959832
H            0.99526987021828        1.67014418780532       -1.10337958777346
H            2.14616639145298        3.55366783939072        0.04440319468019
H            5.40826534951657        0.95413234605699        1.03494595010181
H            4.26355742581931       -0.92164617525661       -0.12350226044007
H            0.72993312211348       -2.08603207912523        3.33959222074850
