      -----------------------------------------------------------      
     |                   =====================                   |     
     |                           x T B                           |     
     |                   =====================                   |     
     |                         S. Grimme                         |     
     |          Mulliken Center for Theoretical Chemistry        |     
     |                    University of Bonn                     |     
      -----------------------------------------------------------      

   * xtb version 6.5.1 (579679a) compiled by 'ehlert@majestix' on 2022-07-11

   xtb is free software: you can redistribute it and/or modify it under
   the terms of the GNU Lesser General Public License as published by
   the Free Software Foundation, either version 3 of the License, or
   (at your option) any later version.
   
   xtb is distributed in the hope that it will be useful,
   but WITHOUT ANY WARRANTY; without even the implied warranty of
   MERCHANTABILITY or FITNESS FOR A PARTICULAR PURPOSE.  See the
   GNU Lesser General Public License for more details.
   
   Cite this work as:
   * C. Bannwarth, E. Caldeweyher, S. Ehlert, A. Hansen, P. Pracht,
     J. Seibert, S. Spicher, S. Grimme, WIREs Comput. Mol. Sci., 2020, 11,
     e01493. DOI: 10.1002/wcms.1493
   
   for GFN2-xTB:
   * C. Bannwarth, S. Ehlert and S. Grimme., J. Chem. Theory Comput., 2019,
     15, 1652-1671. DOI: 10.1021/acs.jctc.8b01176
   for GFN1-xTB:
   * S. Grimme, C. Bannwarth, P. Shushkov, J. Chem. Theory Comput., 2017,
     13, 1989-2009. DOI: 10.1021/acs.jctc.7b00118
   for GFN0-xTB:
   * P. Pracht, E. Caldeweyher, S. Ehlert, S. Grimme, ChemRxiv, 2019, preprint.
     DOI: 10.26434/chemrxiv.8326202.v1
   for GFN-FF:
   * S. Spicher and S. Grimme, Angew. Chem. Int. Ed., 2020, 59, 15665-15673.
     DOI: 10.1002/anie.202004239
   
   for ALPB and GBSA implicit solvation:
   * S. Ehlert, M. Stahn, S. Spicher, S. Grimme, J. Chem. Theory Comput.,
     2021, 17, 4250-4261. DOI: 10.1021/acs.jctc.1c00471
   
   for DFT-D4:
   * E. Caldeweyher, C. Bannwarth and S. Grimme, J. Chem. Phys., 2017,
     147, 034112. DOI: 10.1063/1.4993215
   * E. Caldeweyher, S. Ehlert, A. Hansen, H. Neugebauer, S. Spicher,
     C. Bannwarth and S. Grimme, J. Chem. Phys., 2019, 150, 154122.
     DOI: 10.1063/1.5090222
   * E. Caldeweyher, J.-M. Mewes, S. Ehlert and S. Grimme, Phys. Chem. Chem. Phys.
     2020, 22, 8499-8512. DOI: 10.1039/D0CP00502A
   
   for sTDA-xTB:
   * S. Grimme and C. Bannwarth, J. Chem. Phys., 2016, 145, 054103.
     DOI: 10.1063/1.4959605
   
   in the mass-spec context:
   * V. Asgeirsson, C. Bauer and S. Grimme, Chem. Sci., 2017, 8, 4879.
     DOI: 10.1039/c7sc00601b
   * J. Koopman and S. Grimme, ACS Omega 2019, 4, 12, 15120-15133.
     DOI: 10.1021/acsomega.9b02011
   
   for metadynamics refer to:
   * S. Grimme, J. Chem. Theory Comput., 2019, 155, 2847-2862
     DOI: 10.1021/acs.jctc.9b00143
   
   for SPH calculations refer to:
   * S. Spicher and S. Grimme, J. Chem. Theory Comput., 2021, 17, 1701-1714
     DOI: 10.1021/acs.jctc.0c01306
   
   with help from (in alphabetical order)
   P. Atkinson, C. Bannwarth, F. Bohle, G. Brandenburg, E. Caldeweyher
   M. Checinski, S. Dohm, S. Ehlert, S. Ehrlich, I. Gerasimov, C. Hölzer
   A. Katbashev, J. Koopman, C. Lavigne, S. Lehtola, F. März, M. Müller,
   F. Musil, H. Neugebauer, J. Pisarek, C. Plett, P. Pracht, F. Pultar,
   J. Seibert, P. Shushkov, S. Spicher, M. Stahn, M. Steiner, T. Strunk,
   J. Stückrath, T. Rose, and J. Unsleber
   
 * started run on 2023/06/20 at 18:20:58.246     

           -------------------------------------------------
          |                Calculation Setup                |
           -------------------------------------------------

          program call               : /lustre/hpc/kemi/ree/PhD/git/ReactivityQM/dep/xtb-6.5.1/bin/xtb --gfn 1 /lustre/hpc/kemi/ree/PhD/git/ReactivityQM/calculations/R02deprot/reac01prodN12/conf05/R02deprot_reac01prodN12_conf05_gfn1.xyz --opt --vfukui --chrg 0 --uhf 0 --alpb DMSO
          hostname                   : node308
          coordinate file            : /lustre/hpc/kemi/ree/PhD/git/ReactivityQM/calculations/R02deprot/reac01prodN12/conf05/R02deprot_reac01prodN12_conf05_gfn1.xyz
          omp threads                :                     1

   ID    Z sym.   atoms
    1    6 C      1, 3, 5, 7-10, 12, 13, 15, 18, 19, 22, 24
    2    8 O      2, 4, 14, 20, 23, 25
    3    7 N      6, 11, 16, 17, 21
    4    1 H      26-42

           -------------------------------------------------
          |                 G F N 1 - x T B                 |
           -------------------------------------------------

        Reference                      10.1021/acs.jctc.7b00118
      * Hamiltonian:
        H0-scaling (s, p, d)           1.850000    2.250000    2.000000
        zeta-weighting                 0.000000
      * Dispersion:
        s8                             2.400000
        a1                             0.630000
        a2                             5.000000
        s9                             0.000000
      * Repulsion:
        kExp                           1.500000
        rExp                           1.000000
      * Coulomb:
        alpha                          2.000000
        third order                    atomic
        anisotropic                    false
      * Halogen bond correction:
        rad-scale                      1.300000
        damping                        0.440000

      * Solvation model:               ALPB
        Solvent                        DMSO
        Parameter file                 internal GFN1-xTB/ALPB
        Dielectric constant                4.6680E+01
        Reference state                gsolv [1 M gas/solution]
        Free energy shift                  7.6243E-03 Eh       4.7843E+00 kcal/mol
        Temperature                        2.9815E+02 K
        Density                            1.1000E+00 kg/L
        Solvent mass                       7.8130E+01 g/mol
        Interaction kernel             P16
        Born radius scaling (c1)           1.7672E+00
        Born radii integrator          GBOBC
        Born offset                        0.0000E+00 a0       0.0000E+00 AA
        H-bond correction              true
        Ion screening                  false
        Surface tension                    1.0000E-05 Eh       1.5569E+01 dyn/cm
        Grid points                               230 per atom

          ...................................................
          :                      SETUP                      :
          :.................................................:
          :  # basis functions                 134          :
          :  # atomic orbitals                 134          :
          :  # shells                           84          :
          :  # electrons                       134          :
          :  # halogen bonds                     0          :
          :  max. iterations                   250          :
          :  Hamiltonian                  GFN1-xTB          :
          :  restarted?                      false          :
          :  GBSA solvation                   true          :
          :  PC potential                    false          :
          :  electronic temp.          300.0000000     K    :
          :  accuracy                    1.0000000          :
          :  -> integral cutoff          0.2500000E+02      :
          :  -> integral neglect         0.1000000E-07      :
          :  -> SCF convergence          0.1000000E-05 Eh   :
          :  -> wf. convergence          0.2000000E-04 e    :
          :  Broyden damping             0.4000000          :
          ...................................................

 iter      E             dE          RMSdq      gap      omega  full diag
   1    -83.1566186 -0.831566E+02  0.845E+00    0.13       0.0  T
   2    -83.3699648 -0.213346E+00  0.520E+00    0.21       1.0  T
   3    -81.5240236  0.184594E+01  0.513E+00    0.57       1.0  T
   4    -83.2848741 -0.176085E+01  0.262E+00    0.26       1.0  T
   5    -83.3873675 -0.102493E+00  0.145E+00    0.24       1.0  T
   6    -83.5307364 -0.143369E+00  0.747E-01    0.10       1.0  T
   7    -83.5529746 -0.222381E-01  0.576E-01    0.06       1.0  T
   8    -83.5069652  0.460094E-01  0.863E-01    0.24       1.0  T
   9    -83.5057263  0.123897E-02  0.784E-01    0.17       1.0  T
  10    -83.5435977 -0.378714E-01  0.548E-01    0.14       1.0  T
  11    -83.5768697 -0.332720E-01  0.140E-01    0.07       1.0  T
  12    -83.5748603  0.200937E-02  0.186E-01    0.07       1.0  T
  13    -83.5742507  0.609638E-03  0.210E-01    0.05       1.0  T
  14    -83.5735098  0.740876E-03  0.215E-01    0.07       1.0  T
  15    -83.5788672 -0.535741E-02  0.556E-02    0.05       1.0  T
  16    -83.5791806 -0.313435E-03  0.117E-02    0.06       1.3  T
  17    -83.5791806  0.816972E-07  0.126E-02    0.06       1.2  T
  18    -83.5791907 -0.101043E-04  0.816E-03    0.06       1.9  T
  19    -83.5791978 -0.716850E-05  0.276E-03    0.06       5.6  T
  20    -83.5791985 -0.682117E-06  0.129E-03    0.06      12.0  T
  21    -83.5791987 -0.170640E-06  0.354E-04    0.06      43.6  T
  22    -83.5791987 -0.128748E-07  0.499E-05    0.06     309.3  T
  23    -83.5791987  0.286661E-09  0.625E-05    0.06     246.8  T

   *** convergence criteria satisfied after 23 iterations ***

         #    Occupation            Energy/Eh            Energy/eV
      -------------------------------------------------------------
         1        2.0000           -0.8749923             -23.8098
       ...           ...                  ...                  ...
        61        2.0000           -0.4660173             -12.6810
        62        2.0000           -0.4637466             -12.6192
        63        2.0000           -0.4587975             -12.4845
        64        2.0000           -0.4523567             -12.3093
        65        1.9997           -0.4405495             -11.9880
        66        1.9913           -0.4374426             -11.9034
        67        1.4993           -0.4333255             -11.7914 (HOMO)
        68        0.5098           -0.4312644             -11.7353 (LUMO)
        69                         -0.3362836              -9.1507
        70                         -0.2899553              -7.8901
        71                         -0.2897304              -7.8840
        72                         -0.2605343              -7.0895
       ...                                ...                  ...
       134                          0.6888597              18.7448
      -------------------------------------------------------------
                  HL-Gap            0.0020611 Eh            0.0561 eV
             Fermi-level           -0.4322835 Eh          -11.7630 eV

 SCC (total)                   0 d,  0 h,  0 min,  0.204 sec
 SCC setup                      ...        0 min,  0.002 sec (  1.092%)
 Dispersion                     ...        0 min,  0.000 sec (  0.214%)
 classical contributions        ...        0 min,  0.000 sec (  0.064%)
 integral evaluation            ...        0 min,  0.036 sec ( 17.722%)
 iterations                     ...        0 min,  0.081 sec ( 39.724%)
 molecular gradient             ...        0 min,  0.083 sec ( 40.727%)
 printout                       ...        0 min,  0.001 sec (  0.427%)

         :::::::::::::::::::::::::::::::::::::::::::::::::::::
         ::                     SUMMARY                     ::
         :::::::::::::::::::::::::::::::::::::::::::::::::::::
         :: total energy             -82.841775582404 Eh    ::
         :: total w/o Gsasa/hb       -82.820126992073 Eh    ::
         :: gradient norm              0.137958534563 Eh/a0 ::
         :: HOMO-LUMO gap              0.056086500297 eV    ::
         ::.................................................::
         :: SCC energy               -83.579198695683 Eh    ::
         :: -> electrostatic           0.353206381579 Eh    ::
         :: -> Gsolv                  -0.055232345148 Eh    ::
         ::    -> Gelec               -0.033583754817 Eh    ::
         ::    -> Gsasa               -0.023962632913 Eh    ::
         ::    -> Ghb                 -0.005310236424 Eh    ::
         ::    -> Gshift               0.007624279005 Eh    ::
         :: repulsion energy           0.764055832176 Eh    ::
         :: dispersion energy         -0.026632718897 Eh    ::
         :: halogen bond corr.         0.000000000000 Eh    ::
         :: add. restraining           0.000000000000 Eh    ::
         :: total charge              -0.000000000000 e     ::
         :::::::::::::::::::::::::::::::::::::::::::::::::::::

      ----------------------------------------------------------- 
     |                   =====================                   |
     |                        A N C O P T                        |
     |                   =====================                   |
     |               Approximate Normal Coordinate               |
     |                Rational Function Optimizer                |
      ----------------------------------------------------------- 

          ...................................................
          :                      SETUP                      :
          :.................................................:
          :   optimization level            normal          :
          :   max. optcycles                   200          :
          :   ANC micro-cycles                  20          :
          :   degrees of freedom               120          :
          :.................................................:
          :   RF solver                   davidson          :
          :   write xtbopt.log                true          :
          :   linear?                        false          :
          :   energy convergence         0.5000000E-05 Eh   :
          :   grad. convergence          0.1000000E-02 Eh/α :
          :   maximium RF displ.         1.0000000          :
          :   Hlow (freq-cutoff)         0.1000000E-01      :
          :   Hmax (freq-cutoff)         5.0000000          :
          :   S6 in model hess.         20.0000000          :
          ...................................................

generating ANC from model Hessian ...
Using Lindh-Hessian (1995)
 Shifting diagonal of input Hessian by   9.814974464898140E-003
 Lowest  eigenvalues of input Hessian
    0.000000    0.000000    0.000000    0.000000    0.000000    0.000000
    0.010000    0.010105    0.010552    0.010845    0.011885    0.012384
    0.012947    0.014019    0.014529    0.014687    0.015830    0.017362
 Highest eigenvalues
    1.980599    2.028344    2.099157    2.186484    2.292776    2.378611
 

........................................................................
.............................. CYCLE    1 ..............................
........................................................................
   1    -83.5791987 -0.835792E+02  0.246E-05    0.06       0.0  T
   2    -83.5791987  0.229138E-07  0.437E-04    0.06      35.3  T
   3    -83.5791987 -0.229649E-07  0.127E-05    0.06    1211.5  T
   4    -83.5791987 -0.108713E-10  0.750E-06    0.06    2057.9  T
     SCC iter.                  ...        0 min,  0.015 sec
     gradient                   ...        0 min,  0.083 sec
 * total energy  :   -82.8417756 Eh     change       -0.4807390E-09 Eh
   gradient norm :     0.1379579 Eh/α   predicted     0.0000000E+00 (-100.00%)
   displ. norm   :     0.3288255 α      lambda       -0.2249674E-01
   maximum displ.:     0.1215891 α      in ANC's #27, #26, #29, ...

........................................................................
.............................. CYCLE    2 ..............................
........................................................................
   1    -83.5886671 -0.835887E+02  0.310E-01    0.10       0.0  T
   2    -83.4300922  0.158575E+00  0.127E+00    0.22       1.0  T
   3    -83.5623252 -0.132233E+00  0.590E-01    0.07       1.0  T
   4    -83.5791269 -0.168017E-01  0.411E-01    0.11       1.0  T
   5    -83.5612412  0.178857E-01  0.574E-01    0.08       1.0  T
   6    -83.5948470 -0.336058E-01  0.201E-01    0.09       1.0  T
   7    -83.5974677 -0.262066E-02  0.146E-01    0.06       1.0  T
   8    -83.5994148 -0.194713E-02  0.596E-02    0.07       1.0  T
   9    -83.5998255 -0.410738E-03  0.858E-03    0.07       1.8  T
  10    -83.5998332 -0.770940E-05  0.336E-03    0.07       4.6  T
  11    -83.5998345 -0.126148E-05  0.369E-04    0.07      41.8  T
  12    -83.5998345 -0.435946E-08  0.338E-04    0.07      45.7  T
  13    -83.5998345 -0.414622E-08  0.258E-04    0.07      59.8  T
  14    -83.5998345 -0.772326E-08  0.385E-05    0.07     401.1  T
  15    -83.5998345 -0.150251E-09  0.155E-05    0.07     997.2  T
     SCC iter.                  ...        0 min,  0.055 sec
     gradient                   ...        0 min,  0.083 sec
 * total energy  :   -82.8584311 Eh     change       -0.1665551E-01 Eh
   gradient norm :     0.0751816 Eh/α   predicted    -0.1247802E-01 ( -25.08%)
   displ. norm   :     0.3597896 α      lambda       -0.1206977E-01
   maximum displ.:     0.1154387 α      in ANC's #27, #26, #20, ...

........................................................................
.............................. CYCLE    3 ..............................
........................................................................
   1    -83.6020563 -0.836021E+02  0.339E-01    0.12       0.0  T
   2    -83.4408174  0.161239E+00  0.130E+00    0.24       1.0  T
   3    -83.5453664 -0.104549E+00  0.784E-01    0.11       1.0  T
   4    -83.5802733 -0.349069E-01  0.538E-01    0.14       1.0  T
   5    -83.6145012 -0.342279E-01  0.121E-01    0.09       1.0  T
   6    -83.6158989 -0.139766E-02  0.460E-02    0.09       1.0  T
   7    -83.6161717 -0.272864E-03  0.134E-02    0.08       1.1  T
   8    -83.6158662  0.305494E-03  0.511E-02    0.09       1.0  T
   9    -83.6161846 -0.318342E-03  0.368E-03    0.08       4.2  T
  10    -83.6161841  0.468037E-06  0.339E-03    0.08       4.6  T
  11    -83.6161849 -0.761978E-06  0.230E-03    0.08       6.7  T
  12    -83.6161853 -0.399711E-06  0.138E-03    0.08      11.2  T
  13    -83.6161855 -0.222655E-06  0.958E-05    0.08     161.0  T
  14    -83.6161855  0.168816E-08  0.151E-04    0.08     102.5  T
     SCC iter.                  ...        0 min,  0.052 sec
     gradient                   ...        0 min,  0.083 sec
 * total energy  :   -82.8658536 Eh     change       -0.7422465E-02 Eh
   gradient norm :     0.0240620 Eh/α   predicted    -0.6819825E-02 (  -8.12%)
   displ. norm   :     0.2842028 α      lambda       -0.2342444E-02
   maximum displ.:     0.1200217 α      in ANC's #8, #13, #4, ...

........................................................................
.............................. CYCLE    4 ..............................
........................................................................
   1    -83.6149234 -0.836149E+02  0.195E-01    0.11       0.0  T
   2    -83.4612822  0.153641E+00  0.118E+00    0.22       1.0  T
   3    -83.6047948 -0.143513E+00  0.357E-01    0.09       1.0  T
   4    -83.6159153 -0.111206E-01  0.174E-01    0.10       1.0  T
   5    -83.6182218 -0.230645E-02  0.112E-01    0.10       1.0  T
   6    -83.6197589 -0.153715E-02  0.169E-02    0.09       1.0  T
   7    -83.6196910  0.679581E-04  0.299E-02    0.09       1.0  T
   8    -83.6197790 -0.880388E-04  0.121E-02    0.09       1.3  T
   9    -83.6197938 -0.148038E-04  0.498E-03    0.09       3.1  T
  10    -83.6197968 -0.298100E-05  0.697E-04    0.09      22.1  T
  11    -83.6197968 -0.487276E-07  0.313E-04    0.09      49.3  T
  12    -83.6197968 -0.111659E-07  0.231E-05    0.09     669.4  T
  13    -83.6197968  0.850861E-09  0.864E-05    0.09     178.6  T
     SCC iter.                  ...        0 min,  0.047 sec
     gradient                   ...        0 min,  0.083 sec
 * total energy  :   -82.8675556 Eh     change       -0.1702036E-02 Eh
   gradient norm :     0.0164990 Eh/α   predicted    -0.1265888E-02 ( -25.63%)
   displ. norm   :     0.3414220 α      lambda       -0.1562982E-02
   maximum displ.:     0.1637686 α      in ANC's #8, #4, #13, ...

........................................................................
.............................. CYCLE    5 ..............................
........................................................................
   1    -83.6171614 -0.836172E+02  0.208E-01    0.12       0.0  T
   2    -83.4616110  0.155550E+00  0.119E+00    0.23       1.0  T
   3    -83.6074087 -0.145798E+00  0.358E-01    0.10       1.0  T
   4    -83.6224072 -0.149985E-01  0.477E-02    0.10       1.0  T
   5    -83.6212477  0.115944E-02  0.105E-01    0.10       1.0  T
   6    -83.6223617 -0.111394E-02  0.458E-02    0.10       1.0  T
   7    -83.6224696 -0.107928E-03  0.371E-02    0.10       1.0  T
   8    -83.6226367 -0.167103E-03  0.193E-03    0.10       8.0  T
   9    -83.6226339  0.278149E-05  0.513E-03    0.10       3.0  T
  10    -83.6226371 -0.311256E-05  0.965E-04    0.10      16.0  T
  11    -83.6226371 -0.936482E-07  0.371E-04    0.10      41.5  T
  12    -83.6226372 -0.170333E-07  0.680E-05    0.10     226.8  T
  13    -83.6226372 -0.434866E-09  0.256E-05    0.10     602.0  T
     SCC iter.                  ...        0 min,  0.046 sec
     gradient                   ...        0 min,  0.082 sec
 * total energy  :   -82.8686628 Eh     change       -0.1107199E-02 Eh
   gradient norm :     0.0127109 Eh/α   predicted    -0.8725894E-03 ( -21.19%)
   displ. norm   :     0.3306855 α      lambda       -0.8489098E-03
   maximum displ.:     0.1954042 α      in ANC's #4, #8, #2, ...

........................................................................
.............................. CYCLE    6 ..............................
........................................................................
   1    -83.6209561 -0.836210E+02  0.168E-01    0.11       0.0  T
   2    -83.4701615  0.150795E+00  0.115E+00    0.22       1.0  T
   3    -83.6196619 -0.149500E+00  0.202E-01    0.10       1.0  T
   4    -83.6233513 -0.368946E-02  0.946E-02    0.11       1.0  T
   5    -83.6240679 -0.716631E-03  0.575E-02    0.10       1.0  T
   6    -83.6244792 -0.411221E-03  0.865E-03    0.10       1.8  T
   7    -83.6244541  0.250528E-04  0.168E-02    0.10       1.0  T
   8    -83.6244850 -0.308404E-04  0.489E-03    0.10       3.2  T
   9    -83.6244871 -0.211443E-05  0.260E-03    0.10       5.9  T
  10    -83.6244879 -0.806558E-06  0.433E-04    0.10      35.7  T
  11    -83.6244879 -0.233242E-07  0.317E-05    0.10     487.3  T
  12    -83.6244879  0.835442E-09  0.867E-05    0.10     178.0  T
     SCC iter.                  ...        0 min,  0.042 sec
     gradient                   ...        0 min,  0.082 sec
 * total energy  :   -82.8692880 Eh     change       -0.6251831E-03 Eh
   gradient norm :     0.0102803 Eh/α   predicted    -0.4709018E-03 ( -24.68%)
   displ. norm   :     0.3323991 α      lambda       -0.5824321E-03
   maximum displ.:     0.2188875 α      in ANC's #4, #8, #2, ...

........................................................................
.............................. CYCLE    7 ..............................
........................................................................
   1    -83.6236491 -0.836236E+02  0.133E-01    0.11       0.0  T
   2    -83.4804607  0.143188E+00  0.111E+00    0.22       1.0  T
   3    -83.6245318 -0.144071E+00  0.105E-01    0.10       1.0  T
   4    -83.6256906 -0.115876E-02  0.327E-02    0.10       1.0  T
   5    -83.6258212 -0.130559E-03  0.592E-03    0.10       2.6  T
   6    -83.6258235 -0.231154E-05  0.420E-03    0.10       3.7  T
   7    -83.6258180  0.542765E-05  0.720E-03    0.10       2.1  T
   8    -83.6258241 -0.608646E-05  0.104E-03    0.10      14.9  T
   9    -83.6258242 -0.599986E-07  0.748E-04    0.10      20.6  T
  10    -83.6258242 -0.552510E-07  0.324E-04    0.10      47.6  T
  11    -83.6258243 -0.131018E-07  0.225E-05    0.10     684.8  T
  12    -83.6258243  0.541860E-10  0.292E-05    0.10     527.9  T
     SCC iter.                  ...        0 min,  0.042 sec
     gradient                   ...        0 min,  0.083 sec
 * total energy  :   -82.8697279 Eh     change       -0.4398853E-03 Eh
   gradient norm :     0.0081151 Eh/α   predicted    -0.3233922E-03 ( -26.48%)
   displ. norm   :     0.3250836 α      lambda       -0.4419868E-03
   maximum displ.:     0.2226406 α      in ANC's #4, #2, #8, ...

........................................................................
.............................. CYCLE    8 ..............................
........................................................................
   1    -83.6254152 -0.836254E+02  0.106E-01    0.11       0.0  T
   2    -83.4938752  0.131540E+00  0.105E+00    0.21       1.0  T
   3    -83.6264726 -0.132597E+00  0.523E-02    0.10       1.0  T
   4    -83.6267747 -0.302042E-03  0.809E-03    0.10       1.9  T
   5    -83.6267765 -0.186747E-05  0.586E-03    0.10       2.6  T
   6    -83.6267795 -0.299567E-05  0.314E-03    0.10       4.9  T
   7    -83.6267785  0.100109E-05  0.366E-03    0.10       4.2  T
   8    -83.6267802 -0.164426E-05  0.169E-04    0.10      91.5  T
   9    -83.6267802  0.945141E-08  0.310E-04    0.10      49.8  T
  10    -83.6267802 -0.100849E-07  0.109E-04    0.10     141.2  T
  11    -83.6267802 -0.145054E-08  0.169E-05    0.10     910.7  T
     SCC iter.                  ...        0 min,  0.039 sec
     gradient                   ...        0 min,  0.082 sec
 * total energy  :   -82.8700717 Eh     change       -0.3438487E-03 Eh
   gradient norm :     0.0072732 Eh/α   predicted    -0.2443488E-03 ( -28.94%)
   displ. norm   :     0.3303214 α      lambda       -0.3740694E-03
   maximum displ.:     0.2254451 α      in ANC's #4, #2, #7, ...

........................................................................
.............................. CYCLE    9 ..............................
........................................................................
   1    -83.6267454 -0.836267E+02  0.857E-02    0.11       0.0  T
   2    -83.5104561  0.116289E+00  0.985E-01    0.18       1.0  T
   3    -83.6275014 -0.117045E+00  0.357E-02    0.10       1.0  T
   4    -83.6276454 -0.144019E-03  0.763E-03    0.10       2.0  T
   5    -83.6276374  0.794203E-05  0.974E-03    0.10       1.6  T
   6    -83.6276481 -0.106483E-04  0.189E-03    0.10       8.2  T
   7    -83.6276480  0.637916E-07  0.127E-03    0.10      12.2  T
   8    -83.6276482 -0.188044E-06  0.164E-04    0.10      93.9  T
   9    -83.6276482 -0.164690E-09  0.152E-04    0.10     101.2  T
     SCC iter.                  ...        0 min,  0.031 sec
     gradient                   ...        0 min,  0.082 sec
 * total energy  :   -82.8703645 Eh     change       -0.2927836E-03 Eh
   gradient norm :     0.0069609 Eh/α   predicted    -0.2074429E-03 ( -29.15%)
   displ. norm   :     0.3520593 α      lambda       -0.3170643E-03
   maximum displ.:     0.2325089 α      in ANC's #4, #2, #7, ...

........................................................................
.............................. CYCLE   10 ..............................
........................................................................
   1    -83.6265200 -0.836265E+02  0.929E-02    0.11       0.0  T
   2    -83.5016183  0.124902E+00  0.102E+00    0.20       1.0  T
   3    -83.6273853 -0.125767E+00  0.398E-02    0.10       1.0  T
   4    -83.6275516 -0.166328E-03  0.158E-02    0.10       1.0  T
   5    -83.6275749 -0.233145E-04  0.450E-03    0.10       3.4  T
   6    -83.6275768 -0.191799E-05  0.119E-03    0.10      12.9  T
   7    -83.6275766  0.232992E-06  0.148E-03    0.10      10.4  T
   8    -83.6275768 -0.263448E-06  0.109E-04    0.10     141.5  T
   9    -83.6275768  0.188960E-08  0.161E-04    0.10      95.6  T
     SCC iter.                  ...        0 min,  0.032 sec
     gradient                   ...        0 min,  0.082 sec
 * total energy  :   -82.8706079 Eh     change       -0.2434436E-03 Eh
   gradient norm :     0.0063371 Eh/α   predicted    -0.1781842E-03 ( -26.81%)
   displ. norm   :     0.3565555 α      lambda       -0.2534256E-03
   maximum displ.:     0.2281040 α      in ANC's #4, #2, #7, ...

........................................................................
.............................. CYCLE   11 ..............................
........................................................................
   1    -83.6273005 -0.836273E+02  0.700E-02    0.10       0.0  T
   2    -83.5268693  0.100431E+00  0.914E-01    0.16       1.0  T
   3    -83.6277082 -0.100839E+00  0.421E-02    0.10       1.0  T
   4    -83.6279145 -0.206305E-03  0.127E-02    0.10       1.2  T
   5    -83.6279139  0.563075E-06  0.936E-03    0.10       1.6  T
   6    -83.6279223 -0.834810E-05  0.326E-03    0.10       4.7  T
   7    -83.6279232 -0.960633E-06  0.361E-04    0.10      42.7  T
   8    -83.6279232 -0.113329E-07  0.769E-05    0.10     200.7  T
   9    -83.6279232 -0.387615E-09  0.256E-05    0.10     603.6  T
     SCC iter.                  ...        0 min,  0.031 sec
     gradient                   ...        0 min,  0.082 sec
 * total energy  :   -82.8707913 Eh     change       -0.1833173E-03 Eh
   gradient norm :     0.0065227 Eh/α   predicted    -0.1428266E-03 ( -22.09%)
   displ. norm   :     0.3980547 α      lambda       -0.2188911E-03
   maximum displ.:     0.2441331 α      in ANC's #4, #2, #7, ...

........................................................................
.............................. CYCLE   12 ..............................
........................................................................
   1    -83.6248894 -0.836249E+02  0.113E-01    0.11       0.0  T
   2    -83.4832212  0.141668E+00  0.110E+00    0.21       1.0  T
   3    -83.6261327 -0.142912E+00  0.482E-02    0.10       1.0  T
   4    -83.6263656 -0.232955E-03  0.214E-02    0.10       1.0  T
   5    -83.6264185 -0.528840E-04  0.349E-03    0.10       4.4  T
   6    -83.6264190 -0.476960E-06  0.165E-03    0.10       9.3  T
   7    -83.6264186  0.418724E-06  0.209E-03    0.10       7.4  T
   8    -83.6264191 -0.534714E-06  0.256E-04    0.10      60.4  T
   9    -83.6264191 -0.331131E-08  0.182E-04    0.10      84.9  T
  10    -83.6264191 -0.292691E-08  0.855E-05    0.10     180.5  T
     SCC iter.                  ...        0 min,  0.035 sec
     gradient                   ...        0 min,  0.082 sec
 * total energy  :   -82.8709278 Eh     change       -0.1365191E-03 Eh
   gradient norm :     0.0063668 Eh/α   predicted    -0.1267872E-03 (  -7.13%)
   displ. norm   :     0.2837333 α      lambda       -0.1609374E-03
   maximum displ.:     0.1559425 α      in ANC's #4, #2, #7, ...

........................................................................
.............................. CYCLE   13 ..............................
........................................................................
   1    -83.6278656 -0.836279E+02  0.377E-02    0.10       0.0  T
   2    -83.5844583  0.434073E-01  0.597E-01    0.11       1.0  T
   3    -83.6279458 -0.434876E-01  0.296E-02    0.10       1.0  T
   4    -83.6280430 -0.971306E-04  0.111E-02    0.10       1.4  T
   5    -83.6280386  0.435253E-05  0.108E-02    0.10       1.4  T
   6    -83.6280487 -0.100438E-04  0.495E-03    0.10       3.1  T
   7    -83.6280513 -0.264212E-05  0.379E-04    0.10      40.7  T
   8    -83.6280513 -0.140995E-07  0.405E-05    0.10     380.7  T
   9    -83.6280513  0.184670E-09  0.435E-05    0.10     354.8  T
     SCC iter.                  ...        0 min,  0.032 sec
     gradient                   ...        0 min,  0.082 sec
 * total energy  :   -82.8710382 Eh     change       -0.1103929E-03 Eh
   gradient norm :     0.0058236 Eh/α   predicted    -0.8695317E-04 ( -21.23%)
   displ. norm   :     0.2396441 α      lambda       -0.1302301E-03
   maximum displ.:     0.1103626 α      in ANC's #4, #3, #2, ...

........................................................................
.............................. CYCLE   14 ..............................
........................................................................
   1    -83.6281782 -0.836282E+02  0.367E-02    0.10       0.0  T
   2    -83.5880257  0.401525E-01  0.575E-01    0.10       1.0  T
   3    -83.6283351 -0.403093E-01  0.911E-03    0.10       1.7  T
   4    -83.6283399 -0.479187E-05  0.697E-03    0.10       2.2  T
   5    -83.6283415 -0.160218E-05  0.467E-03    0.10       3.3  T
   6    -83.6283430 -0.157086E-05  0.252E-03    0.10       6.1  T
   7    -83.6283437 -0.683029E-06  0.271E-04    0.10      57.0  T
   8    -83.6283437 -0.681753E-08  0.912E-05    0.10     169.1  T
   9    -83.6283437 -0.737884E-09  0.363E-05    0.10     425.6  T
     SCC iter.                  ...        0 min,  0.038 sec
     gradient                   ...        0 min,  0.083 sec
 * total energy  :   -82.8711429 Eh     change       -0.1047371E-03 Eh
   gradient norm :     0.0054681 Eh/α   predicted    -0.6885949E-04 ( -34.25%)
   displ. norm   :     0.2696876 α      lambda       -0.1905114E-03
   maximum displ.:     0.1625126 α      in ANC's #3, #7, #1, ...

........................................................................
.............................. CYCLE   15 ..............................
........................................................................
   1    -83.6301600 -0.836302E+02  0.258E-02    0.09       0.0  T
   2    -83.6109906  0.191693E-01  0.397E-01    0.09       1.0  T
   3    -83.6302327 -0.192421E-01  0.803E-03    0.09       1.9  T
   4    -83.6302360 -0.325506E-05  0.547E-03    0.09       2.8  T
   5    -83.6302331  0.289205E-05  0.640E-03    0.09       2.4  T
   6    -83.6302363 -0.323541E-05  0.344E-03    0.09       4.5  T
   7    -83.6302376 -0.124459E-05  0.580E-04    0.09      26.6  T
   8    -83.6302376 -0.382671E-07  0.530E-05    0.09     290.9  T
   9    -83.6302376  0.234124E-09  0.575E-05    0.09     268.4  T
     SCC iter.                  ...        0 min,  0.033 sec
     gradient                   ...        0 min,  0.083 sec
 * total energy  :   -82.8712717 Eh     change       -0.1287905E-03 Eh
   gradient norm :     0.0059127 Eh/α   predicted    -0.1021909E-03 ( -20.65%)
   displ. norm   :     0.3587829 α      lambda       -0.1682453E-03
   maximum displ.:     0.1820849 α      in ANC's #3, #7, #4, ...

........................................................................
.............................. CYCLE   16 ..............................
........................................................................
   1    -83.6260522 -0.836261E+02  0.389E-02    0.09       0.0  T
   2    -83.5850059  0.410462E-01  0.581E-01    0.10       1.0  T
   3    -83.6262116 -0.412057E-01  0.104E-02    0.09       1.5  T
   4    -83.6261992  0.124647E-04  0.135E-02    0.09       1.1  T
   5    -83.6262166 -0.174501E-04  0.475E-03    0.09       3.3  T
   6    -83.6262172 -0.592423E-06  0.342E-03    0.09       4.5  T
   7    -83.6262184 -0.119837E-05  0.621E-04    0.09      24.9  T
   8    -83.6262184 -0.356565E-07  0.260E-04    0.09      59.4  T
   9    -83.6262185 -0.783875E-08  0.474E-05    0.09     325.3  T
  10    -83.6262185 -0.189416E-09  0.118E-05    0.09    1310.2  T
     SCC iter.                  ...        0 min,  0.039 sec
     gradient                   ...        0 min,  0.082 sec
 * total energy  :   -82.8713543 Eh     change       -0.8261538E-04 Eh
   gradient norm :     0.0084596 Eh/α   predicted    -0.9495392E-04 (  14.93%)
   displ. norm   :     0.1492343 α      lambda       -0.1284930E-03
   maximum displ.:     0.1067669 α      in ANC's #3, #6, #9, ...

........................................................................
.............................. CYCLE   17 ..............................
........................................................................
   1    -83.6278664 -0.836279E+02  0.104E-02    0.09       0.0  T
   2    -83.6265014  0.136503E-02  0.106E-01    0.10       1.0  T
   3    -83.6278647 -0.136328E-02  0.897E-03    0.09       1.7  T
   4    -83.6278724 -0.775565E-05  0.356E-03    0.09       4.3  T
   5    -83.6278716  0.817707E-06  0.403E-03    0.09       3.8  T
   6    -83.6278732 -0.157080E-05  0.118E-03    0.09      13.1  T
   7    -83.6278733 -0.163687E-06  0.474E-05    0.09     325.3  T
   8    -83.6278733 -0.125056E-10  0.283E-05    0.09     544.6  T
     SCC iter.                  ...        0 min,  0.035 sec
     gradient                   ...        0 min,  0.082 sec
 * total energy  :   -82.8714505 Eh     change       -0.9621694E-04 Eh
   gradient norm :     0.0063009 Eh/α   predicted    -0.6567881E-04 ( -31.74%)
   displ. norm   :     0.2480516 α      lambda       -0.1507534E-03
   maximum displ.:     0.1669036 α      in ANC's #3, #1, #7, ...

........................................................................
.............................. CYCLE   18 ..............................
........................................................................
   1    -83.6285789 -0.836286E+02  0.981E-03    0.09       0.0  T
   2    -83.6284468  0.132176E-03  0.334E-02    0.09       1.0  T
   3    -83.6283905  0.562973E-04  0.399E-02    0.09       1.0  T
   4    -83.6285813 -0.190851E-03  0.330E-03    0.09       4.7  T
   5    -83.6285797  0.160465E-05  0.470E-03    0.09       3.3  T
   6    -83.6285819 -0.220677E-05  0.171E-03    0.09       9.0  T
   7    -83.6285822 -0.307674E-06  0.172E-04    0.09      89.8  T
   8    -83.6285822 -0.265503E-08  0.737E-05    0.09     209.2  T
     SCC iter.                  ...        0 min,  0.034 sec
     gradient                   ...        0 min,  0.083 sec
 * total energy  :   -82.8715580 Eh     change       -0.1075069E-03 Eh
   gradient norm :     0.0048251 Eh/α   predicted    -0.8001695E-04 ( -25.57%)
   displ. norm   :     0.3153126 α      lambda       -0.1210499E-03
   maximum displ.:     0.2019662 α      in ANC's #3, #1, #7, ...

........................................................................
.............................. CYCLE   19 ..............................
........................................................................
   1    -83.6275954 -0.836276E+02  0.240E-02    0.09       0.0  T
   2    -83.6138252  0.137703E-01  0.337E-01    0.08       1.0  T
   3    -83.6276380 -0.138128E-01  0.117E-02    0.09       1.3  T
   4    -83.6276429 -0.492739E-05  0.839E-03    0.09       1.8  T
   5    -83.6276470 -0.405547E-05  0.542E-03    0.09       2.8  T
   6    -83.6276488 -0.180999E-05  0.342E-03    0.09       4.5  T
   7    -83.6276500 -0.125266E-05  0.629E-04    0.09      24.5  T
   8    -83.6276501 -0.444497E-07  0.163E-04    0.09      94.6  T
   9    -83.6276501 -0.293335E-08  0.390E-05    0.09     395.6  T
     SCC iter.                  ...        0 min,  0.033 sec
     gradient                   ...        0 min,  0.083 sec
 * total energy  :   -82.8716306 Eh     change       -0.7252717E-04 Eh
   gradient norm :     0.0048708 Eh/α   predicted    -0.6654744E-04 (  -8.24%)
   displ. norm   :     0.1982858 α      lambda       -0.7424765E-04
   maximum displ.:     0.1270170 α      in ANC's #3, #7, #1, ...

........................................................................
.............................. CYCLE   20 ..............................
........................................................................
   1    -83.6281017 -0.836281E+02  0.141E-02    0.09       0.0  T
   2    -83.6249289  0.317280E-02  0.162E-01    0.08       1.0  T
   3    -83.6280881 -0.315920E-02  0.160E-02    0.09       1.0  T
   4    -83.6281154 -0.273330E-04  0.422E-03    0.09       3.7  T
   5    -83.6281161 -0.699125E-06  0.307E-03    0.09       5.0  T
   6    -83.6281169 -0.712966E-06  0.172E-03    0.09       9.0  T
   7    -83.6281171 -0.262760E-06  0.369E-04    0.09      41.9  T
   8    -83.6281171 -0.139182E-07  0.120E-04    0.09     128.5  T
   9    -83.6281171 -0.153992E-08  0.308E-05    0.09     500.5  T
     SCC iter.                  ...        0 min,  0.035 sec
     gradient                   ...        0 min,  0.082 sec
 * total energy  :   -82.8716742 Eh     change       -0.4362730E-04 Eh
   gradient norm :     0.0036291 Eh/α   predicted    -0.3858809E-04 ( -11.55%)
   displ. norm   :     0.1950019 α      lambda       -0.5014226E-04
   maximum displ.:     0.1040182 α      in ANC's #3, #4, #7, ...
 * RMSD in coord.:     0.7071583 α      energy gain  -0.2989860E-01 Eh

generating ANC from model Hessian ...
Using Lindh-Hessian (1995)
 Shifting diagonal of input Hessian by   9.810724305713196E-003
 Lowest  eigenvalues of input Hessian
    0.000000    0.000000    0.000000    0.000000    0.000000    0.000000
    0.010000    0.010147    0.010564    0.011100    0.011740    0.012419
    0.012647    0.013691    0.014392    0.014672    0.015683    0.016990
 Highest eigenvalues
    2.014401    2.050093    2.133757    2.166701    2.332644    2.409453
 

........................................................................
.............................. CYCLE   21 ..............................
........................................................................
   1    -83.6275421 -0.836275E+02  0.350E-02    0.09       0.0  T
   2    -83.5888369  0.387052E-01  0.566E-01    0.09       1.0  T
   3    -83.6276870 -0.388501E-01  0.459E-03    0.09       3.4  T
   4    -83.6276850  0.202452E-05  0.599E-03    0.09       2.6  T
   5    -83.6276868 -0.179621E-05  0.373E-03    0.09       4.1  T
   6    -83.6276878 -0.104674E-05  0.209E-03    0.09       7.4  T
   7    -83.6276883 -0.452071E-06  0.317E-04    0.09      48.7  T
   8    -83.6276883 -0.977201E-08  0.104E-04    0.09     148.2  T
   9    -83.6276883 -0.119061E-08  0.209E-05    0.09     737.3  T
     SCC iter.                  ...        0 min,  0.031 sec
     gradient                   ...        0 min,  0.123 sec
 * total energy  :   -82.8717100 Eh     change       -0.3583848E-04 Eh
   gradient norm :     0.0036533 Eh/α   predicted     0.0000000E+00 (-100.00%)
   displ. norm   :     0.0281358 α      lambda       -0.2431998E-04
   maximum displ.:     0.0155468 α      in ANC's #11, #3, #10, ...

........................................................................
.............................. CYCLE   22 ..............................
........................................................................
   1    -83.6285894 -0.836286E+02  0.998E-03    0.09       0.0  T
   2    -83.6252414  0.334797E-02  0.166E-01    0.08       1.0  T
   3    -83.6285985 -0.335713E-02  0.556E-03    0.09       2.8  T
   4    -83.6286002 -0.162803E-05  0.381E-03    0.09       4.1  T
   5    -83.6286018 -0.160977E-05  0.122E-03    0.09      12.6  T
   6    -83.6286018 -0.753530E-07  0.520E-04    0.09      29.7  T
   7    -83.6286019 -0.256984E-07  0.998E-05    0.09     154.6  T
   8    -83.6286019 -0.119550E-08  0.146E-05    0.09    1059.0  T
     SCC iter.                  ...        0 min,  0.031 sec
     gradient                   ...        0 min,  0.082 sec
 * total energy  :   -82.8717332 Eh     change       -0.2316640E-04 Eh
   gradient norm :     0.0018467 Eh/α   predicted    -0.1479041E-04 ( -36.16%)
   displ. norm   :     0.1038203 α      lambda       -0.3776351E-04
   maximum displ.:     0.0555146 α      in ANC's #11, #3, #10, ...

........................................................................
.............................. CYCLE   23 ..............................
........................................................................
   1    -83.6299004 -0.836299E+02  0.289E-02    0.09       0.0  T
   2    -83.6019732  0.279271E-01  0.481E-01    0.09       1.0  T
   3    -83.6299966 -0.280234E-01  0.885E-03    0.09       1.7  T
   4    -83.6299864  0.102346E-04  0.119E-02    0.09       1.3  T
   5    -83.6300021 -0.156716E-04  0.391E-03    0.09       3.9  T
   6    -83.6300033 -0.119814E-05  0.163E-03    0.09       9.5  T
   7    -83.6300035 -0.244060E-06  0.422E-04    0.09      36.5  T
   8    -83.6300035 -0.218996E-07  0.302E-05    0.09     511.5  T
   9    -83.6300035 -0.717648E-10  0.751E-06    0.09    2053.6  T
     SCC iter.                  ...        0 min,  0.032 sec
     gradient                   ...        0 min,  0.082 sec
 * total energy  :   -82.8717612 Eh     change       -0.2805060E-04 Eh
   gradient norm :     0.0026960 Eh/α   predicted    -0.1897269E-04 ( -32.36%)
   displ. norm   :     0.0363449 α      lambda       -0.1281881E-04
   maximum displ.:     0.0191595 α      in ANC's #3, #11, #10, ...

........................................................................
.............................. CYCLE   24 ..............................
........................................................................
   1    -83.6297235 -0.836297E+02  0.446E-03    0.09       0.0  T
   2    -83.6291652  0.558273E-03  0.682E-02    0.09       1.0  T
   3    -83.6297250 -0.559721E-03  0.255E-03    0.09       6.1  T
   4    -83.6297256 -0.666031E-06  0.831E-04    0.09      18.6  T
   5    -83.6297257 -0.653681E-07  0.298E-04    0.09      51.9  T
   6    -83.6297257 -0.543524E-08  0.541E-05    0.09     285.0  T
   7    -83.6297257 -0.112578E-09  0.934E-06    0.09    1652.6  T
     SCC iter.                  ...        0 min,  0.027 sec
     gradient                   ...        0 min,  0.083 sec
 * total energy  :   -82.8717733 Eh     change       -0.1206192E-04 Eh
   gradient norm :     0.0021713 Eh/α   predicted    -0.6675937E-05 ( -44.65%)
   displ. norm   :     0.1704430 α      lambda       -0.5230140E-04
   maximum displ.:     0.0874871 α      in ANC's #3, #10, #11, ...

........................................................................
.............................. CYCLE   25 ..............................
........................................................................
   1    -83.6283399 -0.836283E+02  0.181E-02    0.09       0.0  T
   2    -83.6186306  0.970926E-02  0.284E-01    0.08       1.0  T
   3    -83.6283644 -0.973375E-02  0.989E-03    0.09       1.6  T
   4    -83.6283734 -0.903531E-05  0.463E-03    0.09       3.3  T
   5    -83.6283754 -0.201734E-05  0.184E-03    0.09       8.4  T
   6    -83.6283756 -0.204213E-06  0.844E-04    0.09      18.3  T
   7    -83.6283757 -0.711960E-07  0.594E-05    0.09     260.0  T
   8    -83.6283757  0.187811E-09  0.636E-05    0.09     242.7  T
     SCC iter.                  ...        0 min,  0.028 sec
     gradient                   ...        0 min,  0.083 sec
 * total energy  :   -82.8718047 Eh     change       -0.3137817E-04 Eh
   gradient norm :     0.0022493 Eh/α   predicted    -0.2693369E-04 ( -14.16%)
   displ. norm   :     0.0733279 α      lambda       -0.1358152E-04
   maximum displ.:     0.0420385 α      in ANC's #3, #10, #5, ...

........................................................................
.............................. CYCLE   26 ..............................
........................................................................
   1    -83.6283185 -0.836283E+02  0.428E-03    0.09       0.0  T
   2    -83.6278168  0.501669E-03  0.646E-02    0.09       1.0  T
   3    -83.6283204 -0.503564E-03  0.125E-03    0.09      12.3  T
   4    -83.6283201  0.272357E-06  0.186E-03    0.09       8.3  T
   5    -83.6283205 -0.349359E-06  0.813E-04    0.09      19.0  T
   6    -83.6283205 -0.826651E-08  0.648E-04    0.09      23.8  T
   7    -83.6283205 -0.449199E-07  0.107E-04    0.09     144.9  T
   8    -83.6283205 -0.134416E-08  0.110E-05    0.09    1409.1  T
     SCC iter.                  ...        0 min,  0.028 sec
     gradient                   ...        0 min,  0.141 sec
 * total energy  :   -82.8718162 Eh     change       -0.1156413E-04 Eh
   gradient norm :     0.0023707 Eh/α   predicted    -0.6835134E-05 ( -40.89%)
   displ. norm   :     0.1514245 α      lambda       -0.3510791E-04
   maximum displ.:     0.0885138 α      in ANC's #3, #10, #5, ...

........................................................................
.............................. CYCLE   27 ..............................
........................................................................
   1    -83.6287652 -0.836288E+02  0.608E-03    0.09       0.0  T
   2    -83.6281302  0.635055E-03  0.725E-02    0.09       1.0  T
   3    -83.6287680 -0.637813E-03  0.260E-03    0.09       5.9  T
   4    -83.6287682 -0.199248E-06  0.205E-03    0.09       7.5  T
   5    -83.6287673  0.928130E-06  0.313E-03    0.09       4.9  T
   6    -83.6287681 -0.854155E-06  0.155E-03    0.09      10.0  T
   7    -83.6287684 -0.253546E-06  0.279E-04    0.09      55.3  T
   8    -83.6287684 -0.923829E-08  0.269E-05    0.09     574.3  T
   9    -83.6287684 -0.368630E-10  0.142E-05    0.09    1088.6  T
     SCC iter.                  ...        0 min,  0.069 sec
     gradient                   ...        0 min,  0.111 sec
 * total energy  :   -82.8718444 Eh     change       -0.2811113E-04 Eh
   gradient norm :     0.0019374 Eh/α   predicted    -0.1796446E-04 ( -36.09%)
   displ. norm   :     0.3673894 α      lambda       -0.4250453E-04
   maximum displ.:     0.2160792 α      in ANC's #3, #10, #5, ...

........................................................................
.............................. CYCLE   28 ..............................
........................................................................
   1    -83.6277974 -0.836278E+02  0.175E-02    0.09       0.0  T
   2    -83.6207383  0.705902E-02  0.241E-01    0.08       1.0  T
   3    -83.6278248 -0.708645E-02  0.729E-03    0.09       2.1  T
   4    -83.6278260 -0.119306E-05  0.551E-03    0.09       2.8  T
   5    -83.6278234  0.254338E-05  0.625E-03    0.09       2.5  T
   6    -83.6278263 -0.281314E-05  0.372E-03    0.09       4.2  T
   7    -83.6278277 -0.147770E-05  0.584E-04    0.09      26.4  T
   8    -83.6278278 -0.401729E-07  0.488E-05    0.09     316.2  T
   9    -83.6278278 -0.733280E-10  0.177E-05    0.09     869.5  T
     SCC iter.                  ...        0 min,  0.031 sec
     gradient                   ...        0 min,  0.083 sec
 * total energy  :   -82.8718855 Eh     change       -0.4118682E-04 Eh
   gradient norm :     0.0038472 Eh/α   predicted    -0.2253312E-04 ( -45.29%)
   displ. norm   :     0.1469031 α      lambda       -0.4180674E-04
   maximum displ.:     0.0937783 α      in ANC's #3, #10, #5, ...

........................................................................
.............................. CYCLE   29 ..............................
........................................................................
   1    -83.6290230 -0.836290E+02  0.676E-03    0.09       0.0  T
   2    -83.6286725  0.350561E-03  0.534E-02    0.08       1.0  T
   3    -83.6290156 -0.343102E-03  0.106E-02    0.09       1.5  T
   4    -83.6290249 -0.933597E-05  0.306E-03    0.09       5.0  T
   5    -83.6290252 -0.320863E-06  0.205E-03    0.09       7.5  T
   6    -83.6290255 -0.245426E-06  0.123E-03    0.09      12.5  T
   7    -83.6290256 -0.169609E-06  0.169E-04    0.09      91.2  T
   8    -83.6290256 -0.308047E-08  0.415E-05    0.09     371.8  T
     SCC iter.                  ...        0 min,  0.027 sec
     gradient                   ...        0 min,  0.083 sec
 * total energy  :   -82.8719181 Eh     change       -0.3253650E-04 Eh
   gradient norm :     0.0029607 Eh/α   predicted    -0.2135498E-04 ( -34.37%)
   displ. norm   :     0.4194705 α      lambda       -0.8275465E-04
   maximum displ.:     0.2611692 α      in ANC's #3, #10, #5, ...

........................................................................
.............................. CYCLE   30 ..............................
........................................................................
   1    -83.6278970 -0.836279E+02  0.264E-02    0.09       0.0  T
   2    -83.6074489  0.204481E-01  0.410E-01    0.08       1.0  T
   3    -83.6279572 -0.205083E-01  0.152E-02    0.09       1.0  T
   4    -83.6279714 -0.142380E-04  0.675E-03    0.09       2.3  T
   5    -83.6279735 -0.208955E-05  0.460E-03    0.09       3.4  T
   6    -83.6279748 -0.130792E-05  0.294E-03    0.09       5.2  T
   7    -83.6279758 -0.922010E-06  0.488E-04    0.09      31.6  T
   8    -83.6279758 -0.266215E-07  0.784E-05    0.09     196.7  T
   9    -83.6279758 -0.534541E-09  0.160E-05    0.09     966.7  T
     SCC iter.                  ...        0 min,  0.030 sec
     gradient                   ...        0 min,  0.082 sec
 * total energy  :   -82.8719890 Eh     change       -0.7089902E-04 Eh
   gradient norm :     0.0045455 Eh/α   predicted    -0.4865869E-04 ( -31.37%)
   displ. norm   :     0.4879844 α      lambda       -0.1276999E-03
   maximum displ.:     0.3110525 α      in ANC's #3, #10, #5, ...

........................................................................
.............................. CYCLE   31 ..............................
........................................................................
   1    -83.6260297 -0.836260E+02  0.380E-02    0.09       0.0  T
   2    -83.5819121  0.441176E-01  0.603E-01    0.10       1.0  T
   3    -83.6261570 -0.442449E-01  0.220E-02    0.08       1.0  T
   4    -83.6261947 -0.377708E-04  0.795E-03    0.08       1.9  T
   5    -83.6261994 -0.466312E-05  0.434E-03    0.08       3.6  T
   6    -83.6262008 -0.143730E-05  0.210E-03    0.08       7.4  T
   7    -83.6262013 -0.454679E-06  0.254E-04    0.08      60.8  T
   8    -83.6262013 -0.274068E-08  0.172E-04    0.08      89.5  T
   9    -83.6262013 -0.324648E-08  0.218E-05    0.08     706.8  T
     SCC iter.                  ...        0 min,  0.031 sec
     gradient                   ...        0 min,  0.081 sec
 * total energy  :   -82.8720786 Eh     change       -0.8959892E-04 Eh
   gradient norm :     0.0076650 Eh/α   predicted    -0.7905617E-04 ( -11.77%)
   displ. norm   :     0.3030847 α      lambda       -0.2115389E-03
   maximum displ.:     0.1832883 α      in ANC's #3, #4, #1, ...

........................................................................
.............................. CYCLE   32 ..............................
........................................................................
   1    -83.6301326 -0.836301E+02  0.368E-02    0.09       0.0  T
   2    -83.5893431  0.407895E-01  0.580E-01    0.09       1.0  T
   3    -83.6302576 -0.409145E-01  0.182E-02    0.08       1.0  T
   4    -83.6302758 -0.182001E-04  0.110E-02    0.08       1.4  T
   5    -83.6302868 -0.110337E-04  0.401E-03    0.08       3.8  T
   6    -83.6302877 -0.851379E-06  0.132E-03    0.08      11.7  T
   7    -83.6302878 -0.120386E-06  0.337E-04    0.08      45.8  T
   8    -83.6302878 -0.119353E-07  0.486E-05    0.08     317.4  T
   9    -83.6302878  0.596671E-09  0.756E-05    0.08     204.1  T
     SCC iter.                  ...        0 min,  0.031 sec
     gradient                   ...        0 min,  0.082 sec
 * total energy  :   -82.8721627 Eh     change       -0.8416447E-04 Eh
   gradient norm :     0.0072792 Eh/α   predicted    -0.1154898E-03 (  37.22%)
   displ. norm   :     0.3912933 α      lambda       -0.1383419E-03
   maximum displ.:     0.2561297 α      in ANC's #3, #10, #5, ...

........................................................................
.............................. CYCLE   33 ..............................
........................................................................
   1    -83.6263443 -0.836263E+02  0.290E-02    0.09       0.0  T
   2    -83.6016597  0.246846E-01  0.451E-01    0.08       1.0  T
   3    -83.6264296 -0.247700E-01  0.930E-03    0.08       1.7  T
   4    -83.6264249  0.470071E-05  0.986E-03    0.08       1.6  T
   5    -83.6264323 -0.733540E-05  0.462E-03    0.08       3.3  T
   6    -83.6264341 -0.186767E-05  0.129E-03    0.08      12.0  T
   7    -83.6264343 -0.143183E-06  0.892E-05    0.08     172.9  T
   8    -83.6264343  0.342747E-08  0.179E-04    0.08      86.4  T
     SCC iter.                  ...        0 min,  0.029 sec
     gradient                   ...        0 min,  0.082 sec
 * total energy  :   -82.8722463 Eh     change       -0.8359340E-04 Eh
   gradient norm :     0.0080779 Eh/α   predicted    -0.7976393E-04 (  -4.58%)
   displ. norm   :     0.1178748 α      lambda       -0.1239128E-03
   maximum displ.:     0.0723162 α      in ANC's #3, #4, #11, ...

........................................................................
.............................. CYCLE   34 ..............................
........................................................................
   1    -83.6276862 -0.836277E+02  0.999E-03    0.09       0.0  T
   2    -83.6259908  0.169532E-02  0.120E-01    0.08       1.0  T
   3    -83.6276815 -0.169063E-02  0.107E-02    0.09       1.4  T
   4    -83.6276884 -0.692294E-05  0.724E-03    0.08       2.1  T
   5    -83.6276942 -0.580633E-05  0.218E-03    0.08       7.1  T
   6    -83.6276944 -0.238538E-06  0.914E-04    0.08      16.9  T
   7    -83.6276945 -0.799736E-07  0.761E-05    0.08     202.7  T
   8    -83.6276945  0.459153E-10  0.735E-05    0.08     210.0  T
     SCC iter.                  ...        0 min,  0.028 sec
     gradient                   ...        0 min,  0.082 sec
 * total energy  :   -82.8723327 Eh     change       -0.8636279E-04 Eh
   gradient norm :     0.0051759 Eh/α   predicted    -0.6281758E-04 ( -27.26%)
   displ. norm   :     0.3240087 α      lambda       -0.1192396E-03
   maximum displ.:     0.2140411 α      in ANC's #3, #4, #1, ...

........................................................................
.............................. CYCLE   35 ..............................
........................................................................
   1    -83.6275208 -0.836275E+02  0.265E-02    0.09       0.0  T
   2    -83.6046863  0.228345E-01  0.434E-01    0.08       1.0  T
   3    -83.6275999 -0.229136E-01  0.593E-03    0.09       2.6  T
   4    -83.6275990  0.816113E-06  0.568E-03    0.09       2.7  T
   5    -83.6276027 -0.368898E-05  0.132E-03    0.09      11.7  T
   6    -83.6276028 -0.685917E-07  0.472E-04    0.09      32.7  T
   7    -83.6276028  0.281548E-08  0.198E-04    0.09      77.8  T
   8    -83.6276028 -0.253306E-08  0.143E-04    0.09     107.7  T
     SCC iter.                  ...        0 min,  0.029 sec
     gradient                   ...        0 min,  0.081 sec
 * total energy  :   -82.8724218 Eh     change       -0.8911816E-04 Eh
   gradient norm :     0.0053918 Eh/α   predicted    -0.6588160E-04 ( -26.07%)
   displ. norm   :     0.3054513 α      lambda       -0.1212832E-03
   maximum displ.:     0.1944160 α      in ANC's #3, #4, #1, ...

........................................................................
.............................. CYCLE   36 ..............................
........................................................................
   1    -83.6295591 -0.836296E+02  0.327E-02    0.09       0.0  T
   2    -83.5957126  0.338466E-01  0.529E-01    0.09       1.0  T
   3    -83.6296813 -0.339687E-01  0.649E-03    0.09       2.4  T
   4    -83.6296698  0.114950E-04  0.107E-02    0.09       1.4  T
   5    -83.6296834 -0.135812E-04  0.187E-03    0.09       8.2  T
   6    -83.6296833  0.641490E-07  0.110E-03    0.09      14.0  T
   7    -83.6296834 -0.135068E-06  0.213E-04    0.09      72.3  T
   8    -83.6296834 -0.284128E-08  0.148E-04    0.09     104.5  T
   9    -83.6296835 -0.235381E-08  0.369E-05    0.09     418.5  T
     SCC iter.                  ...        0 min,  0.032 sec
     gradient                   ...        0 min,  0.082 sec
 * total energy  :   -82.8725019 Eh     change       -0.8012998E-04 Eh
   gradient norm :     0.0049875 Eh/α   predicted    -0.6630017E-04 ( -17.26%)
   displ. norm   :     0.5866259 α      lambda       -0.1296400E-03
   maximum displ.:     0.3895176 α      in ANC's #3, #4, #5, ...

........................................................................
.............................. CYCLE   37 ..............................
........................................................................
   1    -83.6246533 -0.836247E+02  0.503E-02    0.09       0.0  T
   2    -83.5619699  0.626834E-01  0.720E-01    0.11       1.0  T
   3    -83.6248966 -0.629266E-01  0.238E-02    0.09       1.0  T
   4    -83.6248453  0.512919E-04  0.263E-02    0.09       1.0  T
   5    -83.6249271 -0.818291E-04  0.523E-03    0.09       3.0  T
   6    -83.6249283 -0.122195E-05  0.193E-03    0.09       8.0  T
   7    -83.6249286 -0.264380E-06  0.275E-04    0.09      56.2  T
   8    -83.6249286  0.462673E-08  0.311E-04    0.09      49.6  T
   9    -83.6249286 -0.104816E-07  0.555E-05    0.09     277.8  T
  10    -83.6249286 -0.231182E-09  0.176E-05    0.09     876.7  T
     SCC iter.                  ...        0 min,  0.036 sec
     gradient                   ...        0 min,  0.082 sec
 * total energy  :   -82.8725457 Eh     change       -0.4379198E-04 Eh
   gradient norm :     0.0093858 Eh/α   predicted    -0.8712740E-04 (  98.96%)
   displ. norm   :     0.0733951 α      lambda       -0.1562982E-03
   maximum displ.:     0.0340059 α      in ANC's #2, #9, #4, ...

........................................................................
.............................. CYCLE   38 ..............................
........................................................................
   1    -83.6290557 -0.836291E+02  0.301E-02    0.09       0.0  T
   2    -83.5999330  0.291228E-01  0.491E-01    0.09       1.0  T
   3    -83.6291503 -0.292174E-01  0.112E-02    0.09       1.4  T
   4    -83.6291616 -0.112410E-04  0.511E-03    0.09       3.0  T
   5    -83.6291605  0.109708E-05  0.516E-03    0.09       3.0  T
   6    -83.6291631 -0.263368E-05  0.126E-03    0.09      12.2  T
   7    -83.6291632 -0.157243E-06  0.232E-04    0.09      66.6  T
   8    -83.6291633 -0.578481E-08  0.439E-05    0.09     351.4  T
   9    -83.6291633 -0.324007E-11  0.377E-05    0.09     409.2  T
     SCC iter.                  ...        0 min,  0.032 sec
     gradient                   ...        0 min,  0.082 sec
 * total energy  :   -82.8726478 Eh     change       -0.1020342E-03 Eh
   gradient norm :     0.0046203 Eh/α   predicted    -0.7857514E-04 ( -22.99%)
   displ. norm   :     0.3522999 α      lambda       -0.1248611E-03
   maximum displ.:     0.2213349 α      in ANC's #3, #4, #6, ...

........................................................................
.............................. CYCLE   39 ..............................
........................................................................
   1    -83.6299215 -0.836299E+02  0.468E-02    0.09       0.0  T
   2    -83.5684013  0.615202E-01  0.714E-01    0.11       1.0  T
   3    -83.6301568 -0.617555E-01  0.181E-02    0.09       1.0  T
   4    -83.6301582 -0.139669E-05  0.136E-02    0.09       1.1  T
   5    -83.6301799 -0.217267E-04  0.276E-03    0.09       5.6  T
   6    -83.6301801 -0.188425E-06  0.120E-03    0.09      12.8  T
   7    -83.6301803 -0.137908E-06  0.147E-04    0.09     105.0  T
   8    -83.6301803  0.183684E-08  0.173E-04    0.09      89.1  T
     SCC iter.                  ...        0 min,  0.028 sec
     gradient                   ...        0 min,  0.082 sec
 * total energy  :   -82.8727274 Eh     change       -0.7966008E-04 Eh
   gradient norm :     0.0043243 Eh/α   predicted    -0.7018154E-04 ( -11.90%)
   displ. norm   :     0.4987612 α      lambda       -0.1317433E-03
   maximum displ.:     0.3149941 α      in ANC's #3, #4, #5, ...

........................................................................
.............................. CYCLE   40 ..............................
........................................................................
   1    -83.6278515 -0.836279E+02  0.501E-02    0.09       0.0  T
   2    -83.5680269  0.598246E-01  0.703E-01    0.11       1.0  T
   3    -83.6280603 -0.600334E-01  0.312E-02    0.09       1.0  T
   4    -83.6280152  0.451195E-04  0.292E-02    0.09       1.0  T
   5    -83.6281156 -0.100473E-03  0.677E-03    0.09       2.3  T
   6    -83.6281185 -0.287543E-05  0.257E-03    0.09       6.0  T
   7    -83.6281190 -0.534166E-06  0.309E-04    0.09      50.0  T
   8    -83.6281190  0.887553E-09  0.295E-04    0.09      52.2  T
   9    -83.6281191 -0.911645E-08  0.615E-05    0.09     250.9  T
  10    -83.6281191 -0.307296E-09  0.146E-05    0.09    1056.0  T
     SCC iter.                  ...        0 min,  0.034 sec
     gradient                   ...        0 min,  0.082 sec
 * total energy  :   -82.8727884 Eh     change       -0.6100596E-04 Eh
   gradient norm :     0.0082342 Eh/α   predicted    -0.8226687E-04 (  34.85%)
   displ. norm   :     0.0659968 α      lambda       -0.7742519E-04
   maximum displ.:     0.0308269 α      in ANC's #2, #9, #5, ...

........................................................................
.............................. CYCLE   41 ..............................
........................................................................
   1    -83.6302168 -0.836302E+02  0.775E-03    0.09       0.0  T
   2    -83.6296840  0.532829E-03  0.665E-02    0.09       1.0  T
   3    -83.6302158 -0.531827E-03  0.655E-03    0.09       2.4  T
   4    -83.6302200 -0.413443E-05  0.190E-03    0.09       8.1  T
   5    -83.6302184  0.160233E-05  0.384E-03    0.09       4.0  T
   6    -83.6302199 -0.152588E-05  0.125E-03    0.09      12.3  T
   7    -83.6302201 -0.166042E-06  0.232E-04    0.09      66.6  T
   8    -83.6302201 -0.588643E-08  0.255E-05    0.09     604.0  T
   9    -83.6302201 -0.352998E-10  0.139E-05    0.09    1110.5  T
     SCC iter.                  ...        0 min,  0.030 sec
     gradient                   ...        0 min,  0.082 sec
 * total energy  :   -82.8728422 Eh     change       -0.5377118E-04 Eh
   gradient norm :     0.0049773 Eh/α   predicted    -0.3888117E-04 ( -27.69%)
   displ. norm   :     0.3350939 α      lambda       -0.9782433E-04
   maximum displ.:     0.1979031 α      in ANC's #3, #4, #5, ...

........................................................................
.............................. CYCLE   42 ..............................
........................................................................
   1    -83.6295301 -0.836295E+02  0.137E-02    0.09       0.0  T
   2    -83.6275472  0.198295E-02  0.127E-01    0.08       1.0  T
   3    -83.6294298 -0.188265E-02  0.341E-02    0.09       1.0  T
   4    -83.6295052 -0.754150E-04  0.181E-02    0.09       1.0  T
   5    -83.6295427 -0.375008E-04  0.374E-03    0.09       4.1  T
   6    -83.6295439 -0.120004E-05  0.738E-04    0.09      20.9  T
   7    -83.6295440 -0.294019E-07  0.102E-04    0.09     151.2  T
   8    -83.6295440  0.107534E-09  0.985E-05    0.09     156.7  T
     SCC iter.                  ...        0 min,  0.027 sec
     gradient                   ...        0 min,  0.082 sec
 * total energy  :   -82.8729015 Eh     change       -0.5929795E-04 Eh
   gradient norm :     0.0040402 Eh/α   predicted    -0.5440062E-04 (  -8.26%)
   displ. norm   :     0.2263788 α      lambda       -0.6919363E-04
   maximum displ.:     0.1129687 α      in ANC's #3, #2, #5, ...
 * RMSD in coord.:     0.7781900 α      energy gain  -0.1227322E-02 Eh

generating ANC from model Hessian ...
Using Lindh-Hessian (1995)
 Shifting diagonal of input Hessian by   9.809258555918219E-003
 Lowest  eigenvalues of input Hessian
    0.000000    0.000000    0.000000    0.000000    0.000000    0.000000
    0.010000    0.010187    0.010506    0.011042    0.011747    0.012317
    0.012951    0.013601    0.014452    0.014718    0.015739    0.017008
 Highest eigenvalues
    2.014511    2.071961    2.138394    2.166496    2.334456    2.411048
 

........................................................................
.............................. CYCLE   43 ..............................
........................................................................
   1    -83.6302521 -0.836303E+02  0.987E-03    0.09       0.0  T
   2    -83.6285534  0.169877E-02  0.120E-01    0.10       1.0  T
   3    -83.6302553 -0.170190E-02  0.100E-02    0.09       1.5  T
   4    -83.6302304  0.248673E-04  0.164E-02    0.09       1.0  T
   5    -83.6302607 -0.302584E-04  0.427E-03    0.09       3.6  T
   6    -83.6302622 -0.159950E-05  0.131E-03    0.09      11.8  T
   7    -83.6302624 -0.157774E-06  0.289E-04    0.09      53.4  T
   8    -83.6302624 -0.828641E-08  0.850E-05    0.09     181.5  T
   9    -83.6302624 -0.601489E-09  0.355E-05    0.09     434.8  T
     SCC iter.                  ...        0 min,  0.032 sec
     gradient                   ...        0 min,  0.082 sec
 * total energy  :   -82.8729516 Eh     change       -0.5013367E-04 Eh
   gradient norm :     0.0036580 Eh/α   predicted     0.0000000E+00 (-100.00%)
   displ. norm   :     0.0424877 α      lambda       -0.4606470E-04
   maximum displ.:     0.0187126 α      in ANC's #5, #4, #10, ...

........................................................................
.............................. CYCLE   44 ..............................
........................................................................
   1    -83.6307865 -0.836308E+02  0.781E-03    0.09       0.0  T
   2    -83.6293671  0.141939E-02  0.108E-01    0.10       1.0  T
   3    -83.6307924 -0.142528E-02  0.317E-03    0.09       4.9  T
   4    -83.6307924  0.696426E-07  0.276E-03    0.09       5.6  T
   5    -83.6307932 -0.823376E-06  0.561E-04    0.09      27.5  T
   6    -83.6307932 -0.902472E-08  0.285E-04    0.09      54.1  T
   7    -83.6307932 -0.587694E-08  0.838E-05    0.09     184.1  T
   8    -83.6307932 -0.785121E-09  0.122E-05    0.09    1264.7  T
     SCC iter.                  ...        0 min,  0.029 sec
     gradient                   ...        0 min,  0.082 sec
 * total energy  :   -82.8729916 Eh     change       -0.4000229E-04 Eh
   gradient norm :     0.0019744 Eh/α   predicted    -0.2355914E-04 ( -41.11%)
   displ. norm   :     0.2449096 α      lambda       -0.1212433E-03
   maximum displ.:     0.1065855 α      in ANC's #5, #4, #7, ...

........................................................................
.............................. CYCLE   45 ..............................
........................................................................
   1    -83.6307842 -0.836308E+02  0.383E-02    0.09       0.0  T
   2    -83.6088737  0.219105E-01  0.427E-01    0.14       1.0  T
   3    -83.6309415 -0.220678E-01  0.889E-03    0.09       1.7  T
   4    -83.6309400  0.151255E-05  0.828E-03    0.09       1.9  T
   5    -83.6309467 -0.672815E-05  0.173E-03    0.09       8.9  T
   6    -83.6309468 -0.635732E-07  0.804E-04    0.09      19.2  T
   7    -83.6309468  0.953804E-09  0.565E-04    0.09      27.3  T
   8    -83.6309468 -0.332533E-07  0.173E-04    0.09      89.4  T
   9    -83.6309468 -0.356893E-08  0.185E-05    0.09     833.8  T
     SCC iter.                  ...        0 min,  0.032 sec
     gradient                   ...        0 min,  0.082 sec
 * total energy  :   -82.8730797 Eh     change       -0.8806979E-04 Eh
   gradient norm :     0.0050150 Eh/α   predicted    -0.6224000E-04 ( -29.33%)
   displ. norm   :     0.0625382 α      lambda       -0.4014346E-04
   maximum displ.:     0.0278500 α      in ANC's #7, #4, #5, ...

........................................................................
.............................. CYCLE   46 ..............................
........................................................................
   1    -83.6308517 -0.836309E+02  0.519E-03    0.09       0.0  T
   2    -83.6301743  0.677464E-03  0.748E-02    0.09       1.0  T
   3    -83.6308544 -0.680133E-03  0.193E-03    0.09       8.0  T
   4    -83.6308543  0.123109E-06  0.196E-03    0.09       7.9  T
   5    -83.6308547 -0.438501E-06  0.662E-04    0.09      23.3  T
   6    -83.6308548 -0.276093E-07  0.117E-04    0.09     131.6  T
   7    -83.6308548 -0.478849E-09  0.241E-05    0.09     639.4  T
     SCC iter.                  ...        0 min,  0.025 sec
     gradient                   ...        0 min,  0.082 sec
 * total energy  :   -82.8731162 Eh     change       -0.3651854E-04 Eh
   gradient norm :     0.0040545 Eh/α   predicted    -0.2015128E-04 ( -44.82%)
   displ. norm   :     0.3395763 α      lambda       -0.1857685E-03
   maximum displ.:     0.1655586 α      in ANC's #7, #4, #6, ...

........................................................................
.............................. CYCLE   47 ..............................
........................................................................
   1    -83.6288292 -0.836288E+02  0.235E-02    0.09       0.0  T
   2    -83.6185128  0.103164E-01  0.292E-01    0.12       1.0  T
   3    -83.6288884 -0.103756E-01  0.470E-03    0.09       3.3  T
   4    -83.6288830  0.549283E-05  0.724E-03    0.09       2.1  T
   5    -83.6288887 -0.574216E-05  0.306E-03    0.09       5.1  T
   6    -83.6288890 -0.307722E-06  0.101E-03    0.09      15.3  T
   7    -83.6288891 -0.102712E-06  0.125E-04    0.09     123.2  T
   8    -83.6288891  0.698691E-09  0.143E-04    0.09     107.9  T
     SCC iter.                  ...        0 min,  0.052 sec
     gradient                   ...        0 min,  0.138 sec
 * total energy  :   -82.8732141 Eh     change       -0.9782245E-04 Eh
   gradient norm :     0.0061136 Eh/α   predicted    -0.1035959E-03 (   5.90%)
   displ. norm   :     0.0397538 α      lambda       -0.5154669E-04
   maximum displ.:     0.0158588 α      in ANC's #7, #9, #8, ...

........................................................................
.............................. CYCLE   48 ..............................
........................................................................
   1    -83.6305894 -0.836306E+02  0.112E-02    0.09       0.0  T
   2    -83.6279885  0.260093E-02  0.147E-01    0.08       1.0  T
   3    -83.6305987 -0.261022E-02  0.457E-03    0.09       3.4  T
   4    -83.6306004 -0.167009E-05  0.162E-03    0.09       9.5  T
   5    -83.6305994  0.936543E-06  0.278E-03    0.09       5.5  T
   6    -83.6306003 -0.882356E-06  0.839E-04    0.09      18.4  T
   7    -83.6306004 -0.650117E-07  0.146E-04    0.09     106.0  T
   8    -83.6306004 -0.223784E-08  0.326E-05    0.09     472.8  T
     SCC iter.                  ...        0 min,  0.055 sec
     gradient                   ...        0 min,  0.161 sec
 * total energy  :   -82.8732478 Eh     change       -0.3371744E-04 Eh
   gradient norm :     0.0030748 Eh/α   predicted    -0.2591522E-04 ( -23.14%)
   displ. norm   :     0.1701064 α      lambda       -0.5791473E-04
   maximum displ.:     0.0898984 α      in ANC's #7, #6, #4, ...

........................................................................
.............................. CYCLE   49 ..............................
........................................................................
   1    -83.6309713 -0.836310E+02  0.297E-03    0.09       0.0  T
   2    -83.6309287  0.426120E-04  0.193E-02    0.09       1.0  T
   3    -83.6309641 -0.354064E-04  0.780E-03    0.09       2.0  T
   4    -83.6309711 -0.703757E-05  0.237E-03    0.09       6.5  T
   5    -83.6309717 -0.599824E-06  0.710E-04    0.09      21.7  T
   6    -83.6309718 -0.443924E-07  0.138E-04    0.09     111.4  T
   7    -83.6309718  0.101082E-09  0.734E-05    0.09     210.2  T
     SCC iter.                  ...        0 min,  0.024 sec
     gradient                   ...        0 min,  0.082 sec
 * total energy  :   -82.8732967 Eh     change       -0.4895871E-04 Eh
   gradient norm :     0.0029393 Eh/α   predicted    -0.2981267E-04 ( -39.11%)
   displ. norm   :     0.4284552 α      lambda       -0.1253098E-03
   maximum displ.:     0.2300221 α      in ANC's #7, #6, #2, ...

........................................................................
.............................. CYCLE   50 ..............................
........................................................................
   1    -83.6287739 -0.836288E+02  0.151E-02    0.09       0.0  T
   2    -83.6263305  0.244342E-02  0.142E-01    0.10       1.0  T
   3    -83.6287802 -0.244967E-02  0.963E-03    0.09       1.6  T
   4    -83.6287875 -0.731280E-05  0.389E-03    0.09       4.0  T
   5    -83.6287858  0.171883E-05  0.496E-03    0.09       3.1  T
   6    -83.6287883 -0.251565E-05  0.114E-03    0.09      13.5  T
   7    -83.6287884 -0.111562E-06  0.331E-04    0.09      46.6  T
   8    -83.6287884 -0.131474E-07  0.228E-05    0.09     676.8  T
   9    -83.6287884  0.174083E-10  0.169E-05    0.09     913.2  T
     SCC iter.                  ...        0 min,  0.030 sec
     gradient                   ...        0 min,  0.081 sec
 * total energy  :   -82.8733530 Eh     change       -0.5627591E-04 Eh
   gradient norm :     0.0075666 Eh/α   predicted    -0.7416774E-04 (  31.79%)
   displ. norm   :     0.0754577 α      lambda       -0.8872643E-04
   maximum displ.:     0.0351935 α      in ANC's #5, #4, #10, ...

........................................................................
.............................. CYCLE   51 ..............................
........................................................................
   1    -83.6322920 -0.836323E+02  0.134E-02    0.09       0.0  T
   2    -83.6306763  0.161567E-02  0.115E-01    0.08       1.0  T
   3    -83.6322996 -0.162335E-02  0.681E-03    0.09       2.3  T
   4    -83.6322997 -0.593010E-07  0.491E-03    0.09       3.1  T
   5    -83.6322991  0.587509E-06  0.503E-03    0.09       3.1  T
   6    -83.6323013 -0.218388E-05  0.530E-04    0.09      29.1  T
   7    -83.6323013 -0.220437E-07  0.227E-04    0.09      68.0  T
   8    -83.6323013 -0.596275E-08  0.185E-05    0.09     833.5  T
   9    -83.6323013  0.210477E-09  0.426E-05    0.09     361.9  T
     SCC iter.                  ...        0 min,  0.030 sec
     gradient                   ...        0 min,  0.081 sec
 * total energy  :   -82.8733850 Eh     change       -0.3202114E-04 Eh
   gradient norm :     0.0023935 Eh/α   predicted    -0.4461583E-04 (  39.33%)
   displ. norm   :     0.1134024 α      lambda       -0.2913933E-04
   maximum displ.:     0.0586020 α      in ANC's #7, #2, #9, ...

........................................................................
.............................. CYCLE   52 ..............................
........................................................................
   1    -83.6315842 -0.836316E+02  0.117E-02    0.09       0.0  T
   2    -83.6284097  0.317458E-02  0.163E-01    0.10       1.0  T
   3    -83.6315972 -0.318752E-02  0.450E-03    0.09       3.4  T
   4    -83.6315988 -0.162244E-05  0.243E-03    0.09       6.3  T
   5    -83.6315994 -0.544396E-06  0.717E-04    0.09      21.5  T
   6    -83.6315994 -0.274138E-07  0.270E-04    0.09      57.2  T
   7    -83.6315994 -0.604604E-08  0.619E-05    0.09     249.4  T
   8    -83.6315994 -0.373490E-09  0.232E-05    0.09     665.2  T
     SCC iter.                  ...        0 min,  0.027 sec
     gradient                   ...        0 min,  0.081 sec
 * total energy  :   -82.8734096 Eh     change       -0.2460972E-04 Eh
   gradient norm :     0.0020494 Eh/α   predicted    -0.1477421E-04 ( -39.97%)
   displ. norm   :     0.2748087 α      lambda       -0.6238832E-04
   maximum displ.:     0.1363786 α      in ANC's #7, #9, #2, ...

........................................................................
.............................. CYCLE   53 ..............................
........................................................................
[...]
C5-C3-O2=112.93                C5-C3-O4=123.70                N6-C5-C3=114.07                C24-C5-C3=125.73               
C24-C5-N6=120.19               C7-N6-C5=118.65                C8-C7-N6=115.18                N21-C7-N6=126.46               
N21-C7-C8=118.35               C9-C8-C7=107.68                C10-C8-C7=110.49               C10-C8-C9=109.52               
N11-C8-C7=108.15               N11-C8-C9=110.78               N11-C8-C10=110.18              H29-C9-C8=108.54               
H30-C9-C8=109.61               H30-C9-H29=109.42              H31-C9-C8=110.05               H31-C9-H29=109.57              
H31-C9-H30=109.63              H32-C10-C8=109.60              H33-C10-C8=108.56              H33-C10-H32=109.43             
H34-C10-C8=110.38              H34-C10-H32=109.42             H34-C10-H33=109.44             
 
 selected dihedral angles (degree)
 ---------------------------------
C3-O2-C1-H26= 68.76           C3-O2-C1-H27=188.35           C3-O2-C1-H28=308.23           O4-C3-O2-C1=  0.25            
C5-C3-O2-C1=180.13            N6-C5-C3-O2=181.83            N6-C5-C3-O4=  1.70            C24-C5-C3-O2=  3.03           
C24-C5-C3-O4=182.91           C7-N6-C5-C3=181.86            C7-N6-C5-C24=  0.73           C8-C7-N6-C5=180.34            
N21-C7-N6-C5=359.91           C9-C8-C7-N6= 68.01            C9-C8-C7-N21=248.40           C10-C8-C7-N6=308.44           
C10-C8-C7-N21=128.82          N11-C8-C7-N6=187.77           N11-C8-C7-N21=  8.16          H29-C9-C8-C7=301.56           
H29-C9-C8-C10= 61.75          H29-C9-C8-N11=183.48          H30-C9-C8-C7= 61.02           H30-C9-C8-C10=181.21          
H30-C9-C8-N11=302.94          H31-C9-C8-C7=181.66           H31-C9-C8-C10=301.85          H31-C9-C8-N11= 63.59          
H32-C10-C8-C7=296.22          H32-C10-C8-C9=177.77          H32-C10-C8-N11= 55.67         H33-C10-C8-C7= 55.70          
H33-C10-C8-C9=297.24          H33-C10-C8-N11=175.14         H34-C10-C8-C7=175.64          H34-C10-C8-C9= 57.19          
H34-C10-C8-N11=295.09         
           -------------------------------------------------
          |                Final Singlepoint                |
           -------------------------------------------------

          ...................................................
          :                      SETUP                      :
          :.................................................:
          :  # basis functions                 134          :
          :  # atomic orbitals                 134          :
          :  # shells                           84          :
          :  # electrons                       134          :
          :  # halogen bonds                     0          :
          :  max. iterations                   250          :
          :  Hamiltonian                  GFN1-xTB          :
          :  restarted?                      false          :
          :  GBSA solvation                   true          :
          :  PC potential                    false          :
          :  electronic temp.          300.0000000     K    :
          :  accuracy                    1.0000000          :
          :  -> integral cutoff          0.2500000E+02      :
          :  -> integral neglect         0.1000000E-07      :
          :  -> SCF convergence          0.1000000E-05 Eh   :
          :  -> wf. convergence          0.2000000E-04 e    :
          :  Broyden damping             0.4000000          :
          ...................................................

 iter      E             dE          RMSdq      gap      omega  full diag
   1    -83.6323142 -0.836323E+02  0.595E-06    0.09       0.0  T
   2    -83.6323142  0.999194E-09  0.909E-05    0.09     169.8  T
   3    -83.6323142 -0.100289E-08  0.110E-06    0.09   14037.7  T

   *** convergence criteria satisfied after 3 iterations ***

         #    Occupation            Energy/Eh            Energy/eV
      -------------------------------------------------------------
         1        2.0000           -0.8699326             -23.6721
       ...           ...                  ...                  ...
        61        2.0000           -0.4638025             -12.6207
        62        2.0000           -0.4615489             -12.5594
        63        2.0000           -0.4596744             -12.5084
        64        2.0000           -0.4515718             -12.2879
        65        2.0000           -0.4480625             -12.1924
        66        1.9994           -0.4277487             -11.6396
        67        1.6882           -0.4216386             -11.4734 (HOMO)
        68        0.3124           -0.4184312             -11.3861 (LUMO)
        69                         -0.3205294              -8.7220
        70                         -0.2837240              -7.7205
        71                         -0.2748452              -7.4789
        72                         -0.2564126              -6.9773
       ...                                ...                  ...
       134                          0.7305702              19.8798
      -------------------------------------------------------------
                  HL-Gap            0.0032074 Eh            0.0873 eV
             Fermi-level           -0.4200338 Eh          -11.4297 eV

 SCC (total)                   0 d,  0 h,  0 min,  0.133 sec
 SCC setup                      ...        0 min,  0.002 sec (  1.336%)
 Dispersion                     ...        0 min,  0.000 sec (  0.240%)
 classical contributions        ...        0 min,  0.000 sec (  0.078%)
 integral evaluation            ...        0 min,  0.035 sec ( 26.167%)
 iterations                     ...        0 min,  0.013 sec ( 10.124%)
 molecular gradient             ...        0 min,  0.082 sec ( 61.442%)
 printout                       ...        0 min,  0.001 sec (  0.584%)

         :::::::::::::::::::::::::::::::::::::::::::::::::::::
         ::                     SUMMARY                     ::
         :::::::::::::::::::::::::::::::::::::::::::::::::::::
         :: total energy             -82.873630266367 Eh    ::
         :: total w/o Gsasa/hb       -82.851182441703 Eh    ::
         :: gradient norm              0.000983519112 Eh/a0 ::
         :: HOMO-LUMO gap              0.087278003772 eV    ::
         ::.................................................::
         :: SCC energy               -83.632314214062 Eh    ::
         :: -> electrostatic           0.365137192009 Eh    ::
         :: -> Gsolv                  -0.059970417320 Eh    ::
         ::    -> Gelec               -0.037522592657 Eh    ::
         ::    -> Gsasa               -0.024590950763 Eh    ::
         ::    -> Ghb                 -0.005481152905 Eh    ::
         ::    -> Gshift               0.007624279005 Eh    ::
         :: repulsion energy           0.784744085724 Eh    ::
         :: dispersion energy         -0.026060138028 Eh    ::
         :: halogen bond corr.         0.000000000000 Eh    ::
         :: add. restraining           0.000000000000 Eh    ::
         :: total charge               0.000000000352 e     ::
         :::::::::::::::::::::::::::::::::::::::::::::::::::::

           -------------------------------------------------
          |                Property Printout                |
           -------------------------------------------------

    * Orbital Energies and Occupations

         #    Occupation            Energy/Eh            Energy/eV
      -------------------------------------------------------------
         1        2.0000           -0.8699326             -23.6721
       ...           ...                  ...                  ...
        55        2.0000           -0.5061645             -13.7734
        56        2.0000           -0.5031590             -13.6917
        57        2.0000           -0.4943945             -13.4532
        58        2.0000           -0.4857479             -13.2179
        59        2.0000           -0.4825755             -13.1315
        60        2.0000           -0.4768462             -12.9756
        61        2.0000           -0.4638025             -12.6207
        62        2.0000           -0.4615489             -12.5594
        63        2.0000           -0.4596744             -12.5084
        64        2.0000           -0.4515718             -12.2879
        65        2.0000           -0.4480625             -12.1924
        66        1.9994           -0.4277487             -11.6396
        67        1.6882           -0.4216386             -11.4734 (HOMO)
        68        0.3124           -0.4184312             -11.3861 (LUMO)
        69                         -0.3205294              -8.7220
        70                         -0.2837240              -7.7205
        71                         -0.2748452              -7.4789
        72                         -0.2564126              -6.9773
        73                         -0.2358682              -6.4183
        74                         -0.1621202              -4.4115
        75                         -0.1447856              -3.9398
        76                         -0.1386487              -3.7728
        77                         -0.1380338              -3.7561
        78                         -0.1256217              -3.4183
       ...                                ...                  ...
       134                          0.7305702              19.8798
      -------------------------------------------------------------
                  HL-Gap            0.0032074 Eh            0.0873 eV
             Fermi-level           -0.4200338 Eh          -11.4297 eV

  Mulliken/CM5 charges         n(s)   n(p)   n(d)
     1C     0.16160  0.03980   0.985  2.854  0.000
     2O    -0.42674 -0.52585   1.692  4.735  0.000
     3C     0.57922  0.64567   0.970  2.450  0.000
     4O    -0.54021 -0.58508   1.722  4.819  0.000
     5C     0.09093  0.17306   1.050  2.859  0.000
     6N    -0.33725 -0.52042   1.546  3.791  0.000
     7C     0.29599  0.45188   1.023  2.681  0.000
     8C     0.16304  0.20960   1.060  2.776  0.000
     9C    -0.08626 -0.22581   1.023  3.063  0.000
    10C    -0.08825 -0.22678   1.020  3.069  0.000
    11N    -0.27848 -0.62765   1.471  3.807  0.000
    12C     0.42092  0.50119   0.991  2.588  0.000
    13C    -0.05719 -0.19544   1.050  3.007  0.000
    14O    -0.63017 -0.68026   1.743  4.887  0.000
    15C     0.36138  0.48745   1.024  2.614  0.000
    16N    -0.23358 -0.34012   1.565  3.669  0.000
    17N    -0.26297 -0.37205   1.565  3.697  0.000
    18C     0.38656  0.49534   1.005  2.609  0.000
    19C    -0.11065 -0.24814   1.012  3.099  0.000
    20O    -0.36122 -0.41929   1.698  4.664  0.000
    21N    -0.41283 -0.59411   1.538  3.875  0.000
    22C     0.47126  0.57895   0.988  2.541  0.000
    23O    -0.54673 -0.58137   1.733  4.814  0.000
    24C     0.26411  0.29982   1.051  2.685  0.000
    25O    -0.46542 -0.65849   1.688  4.777  0.000
    26H     0.05990  0.12096   0.940  0.000  0.000
    27H     0.06194  0.12235   0.938  0.000  0.000
    28H     0.06145  0.12422   0.939  0.000  0.000
    29H     0.05496  0.11244   0.945  0.000  0.000
    30H     0.04986  0.10705   0.950  0.000  0.000
    31H     0.06658  0.12719   0.933  0.000  0.000
    32H     0.04726  0.10440   0.953  0.000  0.000
    33H     0.05159  0.11021   0.948  0.000  0.000
    34H     0.06436  0.12532   0.936  0.000  0.000
    35H     0.26104  0.47255   0.739  0.000  0.000
    36H     0.07463  0.13189   0.925  0.000  0.000
    37H     0.06684  0.12722   0.933  0.000  0.000
    38H     0.07560  0.13388   0.924  0.000  0.000
    39H     0.07062  0.12641   0.929  0.000  0.000
    40H     0.07996  0.13432   0.920  0.000  0.000
    41H     0.07946  0.13415   0.921  0.000  0.000
    42H     0.41690  0.60351   0.583  0.000  0.000

Wiberg/Mayer (AO) data.
largest (>0.10) Wiberg bond orders for each atom

 ---------------------------------------------------------------------------
     #   Z sym  total        # sym  WBO       # sym  WBO       # sym  WBO
 ---------------------------------------------------------------------------
     1   6 C    3.855 --    27 H    0.986    28 H    0.979    26 H    0.979
                             2 O    0.879
     2   8 O    2.208 --     3 C    1.097     1 C    0.879     4 O    0.134
     3   6 C    3.843 --     4 O    1.683     2 O    1.097     5 C    0.986
     4   8 O    1.940 --     3 C    1.683     2 O    0.134
     5   6 C    3.920 --     6 N    1.357    24 C    1.333     3 C    0.986
     6   7 N    2.885 --     5 C    1.357     7 C    1.287
     7   6 C    3.923 --    21 N    1.490     6 N    1.287     8 C    0.986
     8   6 C    3.925 --     7 C    0.986    11 N    0.983    10 C    0.946
                             9 C    0.923
     9   6 C    3.957 --    30 H    0.985    29 H    0.982    31 H    0.979
                             8 C    0.923
    10   6 C    3.965 --    32 H    0.985    33 H    0.981    34 H    0.978
                             8 C    0.946
    11   7 N    3.291 --     8 C    0.983    12 C    0.960    35 H    0.874
                            14 O    0.197
    12   6 C    3.892 --    14 O    1.283    11 N    0.960    15 C    0.849
                            13 C    0.731
    13   6 C    3.799 --    37 H    0.986    38 H    0.980    36 H    0.980
                            12 C    0.731
    14   8 O    1.667 --    12 C    1.283    11 N    0.197
    15   6 C    3.802 --    16 N    1.659    20 O    1.059    12 C    0.849
    16   7 N    2.979 --    15 C    1.659    17 N    1.157
    17   7 N    2.982 --    18 C    1.636    16 N    1.157
    18   6 C    3.859 --    17 N    1.636    20 O    1.051    19 C    1.031
    19   6 C    3.985 --    18 C    1.031    39 H    0.981    41 H    0.966
                            40 H    0.961
    20   8 O    2.307 --    15 C    1.059    18 C    1.051
    21   7 N    2.994 --     7 C    1.490    22 C    1.146
    22   6 C    3.875 --    23 O    1.614    21 N    1.146    24 C    1.006
    23   8 O    1.810 --    22 C    1.614
    24   6 C    3.721 --     5 C    1.333    25 O    1.181    22 C    1.006
    25   8 O    2.080 --    24 C    1.181    42 H    0.785
    26   1 H    1.004 --     1 C    0.979
    27   1 H    1.008 --     1 C    0.986
    28   1 H    1.006 --     1 C    0.979
    29   1 H    1.004 --     9 C    0.982
    30   1 H    1.000 --     9 C    0.985
    31   1 H    1.010 --     9 C    0.979
    32   1 H    1.000 --    10 C    0.985
    33   1 H    1.008 --    10 C    0.981
    34   1 H    1.010 --    10 C    0.978
    35   1 H    0.958 --    11 N    0.874
    36   1 H    0.999 --    13 C    0.980
    37   1 H    0.998 --    13 C    0.986
    38   1 H    0.996 --    13 C    0.980
    39   1 H    0.998 --    19 C    0.981
    40   1 H    0.997 --    19 C    0.961
    41   1 H    0.997 --    19 C    0.966
    42   1 H    0.842 --    25 O    0.785
 ---------------------------------------------------------------------------

Topologies differ in total number of bonds
Writing topology from bond orders to xtbtopo.mol

 dipole moment from electron density (au)
     X       Y       Z   
  -2.2088   1.4782  -1.9814  total (Debye):    8.426

           -------------------------------------------------
          |                Geometry Summary                 |
           -------------------------------------------------

      molecular mass/u    :      351.3152409
   center of mass at/Å    :       -0.0302256       0.1531091      -0.2560498
  moments of inertia/u·Å² :        0.1145406E+04   0.4735743E+04   0.5314790E+04
rotational constants/cm⁻¹ :        0.1471760E-01   0.3559660E-02   0.3171834E-02

 * 35 selected distances

     #   Z          #   Z                                           value/Å
     1   6 C        2   8 O                                       1.4373852
     2   8 O        3   6 C                                       1.3372141
     3   6 C        4   8 O                                       1.2051784
     5   6 C        6   7 N                                       1.3366422
     6   7 N        7   6 C                                       1.3417541
     8   6 C       10   6 C                                       1.5408351 (max)
     8   6 C       11   7 N                                       1.4305443
    11   7 N       12   6 C                                       1.4431353
    12   6 C       14   8 O                                       1.2740786
    15   6 C       16   7 N                                       1.2877889
    17   7 N       18   6 C                                       1.2927001
    18   6 C       19   6 C                                       1.4788570
    15   6 C       20   8 O                                       1.3465451
    18   6 C       20   8 O                                       1.3491065
     7   6 C       21   7 N                                       1.3073497
    22   6 C       23   8 O                                       1.2212593
     5   6 C       24   6 C                                       1.3964045
    24   6 C       25   8 O                                       1.3177370
     1   6 C       26   1 H                                       1.0916266
     1   6 C       27   1 H                                       1.0864848
     1   6 C       28   1 H                                       1.0914991
     9   6 C       29   1 H                                       1.0880996
     9   6 C       30   1 H                                       1.0878226
     9   6 C       31   1 H                                       1.0875931
    10   6 C       32   1 H                                       1.0883830
    10   6 C       33   1 H                                       1.0881770
    10   6 C       34   1 H                                       1.0880696
    11   7 N       35   1 H                                       1.0166330
    13   6 C       36   1 H                                       1.0854988
    13   6 C       37   1 H                                       1.0838531
    13   6 C       38   1 H                                       1.0847013
    19   6 C       39   1 H                                       1.0871806
    19   6 C       40   1 H                                       1.0900741
    19   6 C       41   1 H                                       1.0891310
    25   8 O       42   1 H                                       0.9753676 (min)

 * 6 distinct bonds (by element types)

   Z      Z             #   av. dist./Å        max./Å        min./Å
   1 H    6 C          15     1.0878796     1.0916266     1.0838531
   6 C    6 C           3     1.4720322     1.5408351     1.3964045
   1 H    7 N           1     1.0166330     1.0166330     1.0166330
   6 C    7 N           7     1.3485593     1.4431353     1.2877889
   1 H    8 O           1     0.9753676     0.9753676     0.9753676
   6 C    8 O           8     1.3110630     1.4373852     1.2051784


optimized geometry written to: xtbopt.xyz


           -------------------------------------------------
          | TOTAL ENERGY              -82.873630266367 Eh   |
          | GRADIENT NORM               0.000983519112 Eh/α |
          | HOMO-LUMO GAP               0.087278003772 eV   |
           -------------------------------------------------

------------------------------------------------------------------------
 * finished run on 2023/06/20 at 18:21:09.404     
------------------------------------------------------------------------
 total:
 * wall-time:     0 d,  0 h,  0 min, 11.158 sec
 *  cpu-time:     0 d,  0 h,  0 min, 10.542 sec
 * ratio c/w:     0.945 speedup
 SCF:
 * wall-time:     0 d,  0 h,  0 min,  0.204 sec
 *  cpu-time:     0 d,  0 h,  0 min,  0.204 sec
 * ratio c/w:     1.000 speedup
 ANC optimizer:
 * wall-time:     0 d,  0 h,  0 min, 10.867 sec
 *  cpu-time:     0 d,  0 h,  0 min, 10.288 sec
 * ratio c/w:     0.947 speedup

