      -----------------------------------------------------------      
     |                   =====================                   |     
     |                           x T B                           |     
     |                   =====================                   |     
     |                         S. Grimme                         |     
     |          Mulliken Center for Theoretical Chemistry        |     
     |                    University of Bonn                     |     
      -----------------------------------------------------------      

   * xtb version 6.5.1 (579679a) compiled by 'ehlert@majestix' on 2022-07-11

   xtb is free software: you can redistribute it and/or modify it under
   the terms of the GNU Lesser General Public License as published by
   the Free Software Foundation, either version 3 of the License, or
   (at your option) any later version.
   
   xtb is distributed in the hope that it will be useful,
   but WITHOUT ANY WARRANTY; without even the implied warranty of
   MERCHANTABILITY or FITNESS FOR A PARTICULAR PURPOSE.  See the
   GNU Lesser General Public License for more details.
   
   Cite this work as:
   * C. Bannwarth, E. Caldeweyher, S. Ehlert, A. Hansen, P. Pracht,
     J. Seibert, S. Spicher, S. Grimme, WIREs Comput. Mol. Sci., 2020, 11,
     e01493. DOI: 10.1002/wcms.1493
   
   for GFN2-xTB:
   * C. Bannwarth, S. Ehlert and S. Grimme., J. Chem. Theory Comput., 2019,
     15, 1652-1671. DOI: 10.1021/acs.jctc.8b01176
   for GFN1-xTB:
   * S. Grimme, C. Bannwarth, P. Shushkov, J. Chem. Theory Comput., 2017,
     13, 1989-2009. DOI: 10.1021/acs.jctc.7b00118
   for GFN0-xTB:
   * P. Pracht, E. Caldeweyher, S. Ehlert, S. Grimme, ChemRxiv, 2019, preprint.
     DOI: 10.26434/chemrxiv.8326202.v1
   for GFN-FF:
   * S. Spicher and S. Grimme, Angew. Chem. Int. Ed., 2020, 59, 15665-15673.
     DOI: 10.1002/anie.202004239
   
   for ALPB and GBSA implicit solvation:
   * S. Ehlert, M. Stahn, S. Spicher, S. Grimme, J. Chem. Theory Comput.,
     2021, 17, 4250-4261. DOI: 10.1021/acs.jctc.1c00471
   
   for DFT-D4:
   * E. Caldeweyher, C. Bannwarth and S. Grimme, J. Chem. Phys., 2017,
     147, 034112. DOI: 10.1063/1.4993215
   * E. Caldeweyher, S. Ehlert, A. Hansen, H. Neugebauer, S. Spicher,
     C. Bannwarth and S. Grimme, J. Chem. Phys., 2019, 150, 154122.
     DOI: 10.1063/1.5090222
   * E. Caldeweyher, J.-M. Mewes, S. Ehlert and S. Grimme, Phys. Chem. Chem. Phys.
     2020, 22, 8499-8512. DOI: 10.1039/D0CP00502A
   
   for sTDA-xTB:
   * S. Grimme and C. Bannwarth, J. Chem. Phys., 2016, 145, 054103.
     DOI: 10.1063/1.4959605
   
   in the mass-spec context:
   * V. Asgeirsson, C. Bauer and S. Grimme, Chem. Sci., 2017, 8, 4879.
     DOI: 10.1039/c7sc00601b
   * J. Koopman and S. Grimme, ACS Omega 2019, 4, 12, 15120-15133.
     DOI: 10.1021/acsomega.9b02011
   
   for metadynamics refer to:
   * S. Grimme, J. Chem. Theory Comput., 2019, 155, 2847-2862
     DOI: 10.1021/acs.jctc.9b00143
   
   for SPH calculations refer to:
   * S. Spicher and S. Grimme, J. Chem. Theory Comput., 2021, 17, 1701-1714
     DOI: 10.1021/acs.jctc.0c01306
   
   with help from (in alphabetical order)
   P. Atkinson, C. Bannwarth, F. Bohle, G. Brandenburg, E. Caldeweyher
   M. Checinski, S. Dohm, S. Ehlert, S. Ehrlich, I. Gerasimov, C. Hölzer
   A. Katbashev, J. Koopman, C. Lavigne, S. Lehtola, F. März, M. Müller,
   F. Musil, H. Neugebauer, J. Pisarek, C. Plett, P. Pracht, F. Pultar,
   J. Seibert, P. Shushkov, S. Spicher, M. Stahn, M. Steiner, T. Strunk,
   J. Stückrath, T. Rose, and J. Unsleber
   
 * started run on 2023/06/20 at 18:04:10.408     

           -------------------------------------------------
          |                Calculation Setup                |
           -------------------------------------------------

          program call               : /lustre/hpc/kemi/ree/PhD/git/ReactivityQM/dep/xtb-6.5.1/bin/xtb --gfn 1 /lustre/hpc/kemi/ree/PhD/git/ReactivityQM/calculations/R02deprot/reac01prodE14/conf05/R02deprot_reac01prodE14_conf05_gfn1.xyz --opt --vfukui --chrg -2 --uhf 0 --alpb DMSO
          hostname                   : node308
          coordinate file            : /lustre/hpc/kemi/ree/PhD/git/ReactivityQM/calculations/R02deprot/reac01prodE14/conf05/R02deprot_reac01prodE14_conf05_gfn1.xyz
          omp threads                :                     1

   ID    Z sym.   atoms
    1    6 C      1, 3, 5, 7-10, 12, 14, 17, 18, 21, 23, 24
    2    8 O      2, 4, 13, 19, 22, 25
    3    7 N      6, 11, 15, 16, 20
    4    1 H      26-42

           -------------------------------------------------
          |                 G F N 1 - x T B                 |
           -------------------------------------------------

        Reference                      10.1021/acs.jctc.7b00118
      * Hamiltonian:
        H0-scaling (s, p, d)           1.850000    2.250000    2.000000
        zeta-weighting                 0.000000
      * Dispersion:
        s8                             2.400000
        a1                             0.630000
        a2                             5.000000
        s9                             0.000000
      * Repulsion:
        kExp                           1.500000
        rExp                           1.000000
      * Coulomb:
        alpha                          2.000000
        third order                    atomic
        anisotropic                    false
      * Halogen bond correction:
        rad-scale                      1.300000
        damping                        0.440000

      * Solvation model:               ALPB
        Solvent                        DMSO
        Parameter file                 internal GFN1-xTB/ALPB
        Dielectric constant                4.6680E+01
        Reference state                gsolv [1 M gas/solution]
        Free energy shift                  7.6243E-03 Eh       4.7843E+00 kcal/mol
        Temperature                        2.9815E+02 K
        Density                            1.1000E+00 kg/L
        Solvent mass                       7.8130E+01 g/mol
        Interaction kernel             P16
        Born radius scaling (c1)           1.7672E+00
        Born radii integrator          GBOBC
        Born offset                        0.0000E+00 a0       0.0000E+00 AA
        H-bond correction              true
        Ion screening                  false
        Surface tension                    1.0000E-05 Eh       1.5569E+01 dyn/cm
        Grid points                               230 per atom

          ...................................................
          :                      SETUP                      :
          :.................................................:
          :  # basis functions                 134          :
          :  # atomic orbitals                 134          :
          :  # shells                           84          :
          :  # electrons                       136          :
          :  # halogen bonds                     0          :
          :  max. iterations                   250          :
          :  Hamiltonian                  GFN1-xTB          :
          :  restarted?                      false          :
          :  GBSA solvation                   true          :
          :  PC potential                    false          :
          :  electronic temp.          300.0000000     K    :
          :  accuracy                    1.0000000          :
          :  -> integral cutoff          0.2500000E+02      :
          :  -> integral neglect         0.1000000E-07      :
          :  -> SCF convergence          0.1000000E-05 Eh   :
          :  -> wf. convergence          0.2000000E-04 e    :
          :  Broyden damping             0.4000000          :
          ...................................................

 iter      E             dE          RMSdq      gap      omega  full diag
   1    -84.0553077 -0.840553E+02  0.866E+00    1.21       0.0  T
   2    -84.0101572  0.451505E-01  0.537E+00    0.38       1.0  T
   3    -84.0077851  0.237210E-02  0.298E+00    0.36       1.0  T
   4    -84.2600961 -0.252311E+00  0.106E+00    1.72       1.0  T
   5    -84.2904618 -0.303657E-01  0.628E-01    1.26       1.0  T
   6    -84.0493640  0.241098E+00  0.136E+00    0.30       1.0  T
   7    -84.2932329 -0.243869E+00  0.536E-01    0.88       1.0  T
   8    -84.2971256 -0.389279E-02  0.458E-01    0.51       1.0  T
   9    -84.3175344 -0.204088E-01  0.147E-01    0.10       1.0  T
  10    -84.1198338  0.197701E+00  0.117E+00    0.11       1.0  T
  11    -84.2994865 -0.179653E+00  0.400E-01    0.30       1.0  T
  12    -84.3164604 -0.169739E-01  0.165E-01    0.10       1.0  T
  13    -84.3153438  0.111661E-02  0.187E-01    0.11       1.0  T
  14    -84.3194529 -0.410908E-02  0.808E-02    0.05       1.0  T
  15    -84.3194819 -0.290639E-04  0.799E-02    0.08       1.0  T
  16    -84.3202565 -0.774603E-03  0.327E-02    0.06       1.0  T
  17    -84.3204102 -0.153694E-03  0.463E-03    0.07       3.3  T
  18    -84.3204125 -0.228516E-05  0.241E-03    0.07       6.4  T
  19    -84.3204127 -0.222679E-06  0.207E-03    0.07       7.5  T
  20    -84.3204133 -0.605952E-06  0.338E-04    0.07      45.7  T
  21    -84.3204134 -0.136725E-07  0.150E-04    0.07     102.6  T
  22    -84.3204134 -0.325774E-08  0.811E-06    0.07    1902.3  T

   *** convergence criteria satisfied after 22 iterations ***

         #    Occupation            Energy/Eh            Energy/eV
      -------------------------------------------------------------
         1        2.0000           -0.8157424             -22.1975
       ...           ...                  ...                  ...
        62        2.0000           -0.4014646             -10.9244
        63        2.0000           -0.3939171             -10.7190
        64        2.0000           -0.3906221             -10.6294
        65        2.0000           -0.3764965             -10.2450
        66        2.0000           -0.3617700              -9.8443
        67        2.0000           -0.3305091              -8.9936
        68        1.5718           -0.2719618              -7.4005 (HOMO)
        69        0.4282           -0.2694908              -7.3332 (LUMO)
        70                         -0.2216961              -6.0327
        71                         -0.2082307              -5.6662
        72                         -0.1528507              -4.1593
        73                         -0.1510660              -4.1107
       ...                                ...                  ...
       134                          0.7868943              21.4125
      -------------------------------------------------------------
                  HL-Gap            0.0024709 Eh            0.0672 eV
             Fermi-level           -0.2707263 Eh           -7.3668 eV

 SCC (total)                   0 d,  0 h,  0 min,  0.236 sec
 SCC setup                      ...        0 min,  0.002 sec (  0.923%)
 Dispersion                     ...        0 min,  0.000 sec (  0.188%)
 classical contributions        ...        0 min,  0.000 sec (  0.062%)
 integral evaluation            ...        0 min,  0.072 sec ( 30.563%)
 iterations                     ...        0 min,  0.078 sec ( 33.281%)
 molecular gradient             ...        0 min,  0.081 sec ( 34.497%)
 printout                       ...        0 min,  0.001 sec (  0.464%)

         :::::::::::::::::::::::::::::::::::::::::::::::::::::
         ::                     SUMMARY                     ::
         :::::::::::::::::::::::::::::::::::::::::::::::::::::
         :: total energy             -83.586769187464 Eh    ::
         :: total w/o Gsasa/hb       -83.565854813511 Eh    ::
         :: gradient norm              0.212554002938 Eh/a0 ::
         :: HOMO-LUMO gap              0.067237955675 eV    ::
         ::.................................................::
         :: SCC energy               -84.320413356948 Eh    ::
         :: -> electrostatic           0.653149291860 Eh    ::
         :: -> Gsolv                  -0.261547268248 Eh    ::
         ::    -> Gelec               -0.240632894296 Eh    ::
         ::    -> Gsasa               -0.024300249034 Eh    ::
         ::    -> Ghb                 -0.004238403923 Eh    ::
         ::    -> Gshift               0.007624279005 Eh    ::
         :: repulsion energy           0.759270650964 Eh    ::
         :: dispersion energy         -0.025626481479 Eh    ::
         :: halogen bond corr.         0.000000000000 Eh    ::
         :: add. restraining           0.000000000000 Eh    ::
         :: total charge              -2.000000000000 e     ::
         :::::::::::::::::::::::::::::::::::::::::::::::::::::

      ----------------------------------------------------------- 
     |                   =====================                   |
     |                        A N C O P T                        |
     |                   =====================                   |
     |               Approximate Normal Coordinate               |
     |                Rational Function Optimizer                |
      ----------------------------------------------------------- 

          ...................................................
          :                      SETUP                      :
          :.................................................:
          :   optimization level            normal          :
          :   max. optcycles                   200          :
          :   ANC micro-cycles                  20          :
          :   degrees of freedom               120          :
          :.................................................:
          :   RF solver                   davidson          :
          :   write xtbopt.log                true          :
          :   linear?                        false          :
          :   energy convergence         0.5000000E-05 Eh   :
          :   grad. convergence          0.1000000E-02 Eh/α :
          :   maximium RF displ.         1.0000000          :
          :   Hlow (freq-cutoff)         0.1000000E-01      :
          :   Hmax (freq-cutoff)         5.0000000          :
          :   S6 in model hess.         20.0000000          :
          ...................................................

generating ANC from model Hessian ...
Using Lindh-Hessian (1995)
 Shifting diagonal of input Hessian by   9.841469796953505E-003
 Lowest  eigenvalues of input Hessian
    0.000000    0.000000    0.000000    0.000000    0.000000    0.000000
    0.010000    0.010185    0.010610    0.010910    0.011759    0.012257
    0.012643    0.013945    0.014653    0.015684    0.016091    0.016579
 Highest eigenvalues
    1.950062    2.084737    2.093086    2.238116    2.283274    2.294668
 

........................................................................
.............................. CYCLE    1 ..............................
........................................................................
   1    -84.3204134 -0.843204E+02  0.114E-05    0.07       0.0  T
   2    -84.3204134  0.372175E-08  0.160E-04    0.07      96.6  T
   3    -84.3204134 -0.374078E-08  0.917E-08    0.07  100000.0  T
     SCC iter.                  ...        0 min,  0.011 sec
     gradient                   ...        0 min,  0.082 sec
 * total energy  :   -83.5867692 Eh     change       -0.9421797E-11 Eh
   gradient norm :     0.2125550 Eh/α   predicted     0.0000000E+00 (-100.00%)
   displ. norm   :     0.2927751 α      lambda       -0.2906642E-01
   maximum displ.:     0.1239630 α      in ANC's #24, #31, #26, ...

........................................................................
.............................. CYCLE    2 ..............................
........................................................................
   1    -84.3098536 -0.843099E+02  0.373E-01    0.43       0.0  T
   2    -84.0046647  0.305189E+00  0.155E+00    0.51       1.0  T
   3    -84.3121547 -0.307490E+00  0.313E-01    0.27       1.0  T
   4    -84.3181202 -0.596548E-02  0.218E-01    0.16       1.0  T
   5    -84.3108126  0.730762E-02  0.310E-01    0.03       1.0  T
   6    -84.3246714 -0.138589E-01  0.187E-02    0.09       1.0  T
   7    -84.3230146  0.165682E-02  0.109E-01    0.06       1.0  T
   8    -84.3245626 -0.154800E-02  0.321E-02    0.09       1.0  T
   9    -84.3247089 -0.146283E-03  0.171E-03    0.08       9.0  T
  10    -84.3247077  0.115133E-05  0.331E-03    0.08       4.7  T
  11    -84.3247090 -0.130787E-05  0.133E-03    0.08      11.6  T
  12    -84.3247093 -0.248818E-06  0.141E-04    0.08     109.7  T
  13    -84.3247093 -0.279306E-08  0.901E-06    0.08    1713.3  T
     SCC iter.                  ...        0 min,  0.046 sec
     gradient                   ...        0 min,  0.082 sec
 * total energy  :   -83.6082687 Eh     change       -0.2149953E-01 Eh
   gradient norm :     0.1101393 Eh/α   predicted    -0.1578861E-01 ( -26.56%)
   displ. norm   :     0.3182404 α      lambda       -0.1669168E-01
   maximum displ.:     0.1500816 α      in ANC's #24, #31, #8, ...

........................................................................
.............................. CYCLE    3 ..............................
........................................................................
   1    -84.3334565 -0.843335E+02  0.315E-01    0.52       0.0  T
   2    -83.9933345  0.340122E+00  0.160E+00    0.22       1.0  T
   3    -84.3345772 -0.341243E+00  0.275E-01    0.44       1.0  T
   4    -84.3351865 -0.609340E-03  0.250E-01    0.36       1.0  T
   5    -84.3363255 -0.113891E-02  0.219E-01    0.26       1.0  T
   6    -84.3407502 -0.442474E-02  0.996E-02    0.14       1.0  T
   7    -84.3401720  0.578203E-03  0.115E-01    0.08       1.0  T
   8    -84.3404392 -0.267182E-03  0.110E-01    0.15       1.0  T
   9    -84.3420009 -0.156169E-02  0.582E-03    0.11       2.6  T
  10    -84.3420057 -0.483647E-05  0.316E-04    0.11      48.8  T
  11    -84.3420057 -0.714365E-09  0.305E-04    0.11      50.6  T
  12    -84.3420055  0.243489E-06  0.136E-03    0.11      11.3  T
  13    -84.3420057 -0.199745E-06  0.635E-04    0.11      24.3  T
  14    -84.3420057 -0.538121E-07  0.397E-06    0.11    3884.9  T
  15    -84.3420057  0.205489E-10  0.125E-05    0.11    1230.1  T
     SCC iter.                  ...        0 min,  0.052 sec
     gradient                   ...        0 min,  0.082 sec
 * total energy  :   -83.6181875 Eh     change       -0.9918781E-02 Eh
   gradient norm :     0.0320348 Eh/α   predicted    -0.9191094E-02 (  -7.34%)
   displ. norm   :     0.2784724 α      lambda       -0.2630711E-02
   maximum displ.:     0.1255101 α      in ANC's #8, #10, #24, ...

........................................................................
.............................. CYCLE    4 ..............................
........................................................................
   1    -84.3422700 -0.843423E+02  0.185E-01    0.28       0.0  T
   2    -83.9829930  0.359277E+00  0.164E+00    0.21       1.0  T
   3    -84.3434981 -0.360505E+00  0.153E-01    0.22       1.0  T
   4    -84.3445209 -0.102281E-02  0.121E-01    0.18       1.0  T
   5    -84.3460914 -0.157047E-02  0.495E-02    0.14       1.0  T
   6    -84.3463196 -0.228169E-03  0.259E-02    0.11       1.0  T
   7    -84.3463946 -0.750627E-04  0.110E-02    0.12       1.4  T
   8    -84.3464092 -0.145194E-04  0.326E-03    0.12       4.7  T
   9    -84.3464104 -0.119784E-05  0.119E-03    0.12      12.9  T
  10    -84.3464104 -0.718549E-07  0.965E-04    0.12      16.0  T
  11    -84.3464106 -0.120762E-06  0.133E-04    0.12     116.2  T
  12    -84.3464106 -0.127298E-08  0.831E-05    0.12     185.8  T
     SCC iter.                  ...        0 min,  0.042 sec
     gradient                   ...        0 min,  0.082 sec
 * total energy  :   -83.6201609 Eh     change       -0.1973372E-02 Eh
   gradient norm :     0.0222895 Eh/α   predicted    -0.1417364E-02 ( -28.18%)
   displ. norm   :     0.3919995 α      lambda       -0.2177258E-02
   maximum displ.:     0.1925967 α      in ANC's #8, #10, #21, ...

........................................................................
.............................. CYCLE    5 ..............................
........................................................................
   1    -84.3451930 -0.843452E+02  0.146E-01    0.29       0.0  T
   2    -84.0315067  0.313686E+00  0.153E+00    0.12       1.0  T
   3    -84.3461231 -0.314616E+00  0.119E-01    0.22       1.0  T
   4    -84.3466597 -0.536541E-03  0.969E-02    0.20       1.0  T
   5    -84.3475582 -0.898479E-03  0.497E-02    0.16       1.0  T
   6    -84.3478719 -0.313754E-03  0.619E-03    0.13       2.5  T
   7    -84.3478770 -0.509776E-05  0.905E-04    0.13      17.0  T
   8    -84.3478761  0.941268E-06  0.273E-03    0.13       5.7  T
   9    -84.3478770 -0.956134E-06  0.128E-04    0.13     120.1  T
  10    -84.3478770  0.298962E-07  0.493E-04    0.13      31.3  T
  11    -84.3478770 -0.199442E-07  0.290E-04    0.13      53.1  T
  12    -84.3478770 -0.101701E-07  0.594E-05    0.13     259.8  T
     SCC iter.                  ...        0 min,  0.040 sec
     gradient                   ...        0 min,  0.081 sec
 * total energy  :   -83.6216167 Eh     change       -0.1455826E-02 Eh
   gradient norm :     0.0170762 Eh/α   predicted    -0.1255920E-02 ( -13.73%)
   displ. norm   :     0.2849894 α      lambda       -0.8856794E-03
   maximum displ.:     0.1310682 α      in ANC's #8, #10, #2, ...

........................................................................
.............................. CYCLE    6 ..............................
........................................................................
   1    -84.3489584 -0.843490E+02  0.777E-02    0.19       0.0  T
   2    -84.2193788  0.129580E+00  0.979E-01    0.02       1.0  T
   3    -84.3494770 -0.130098E+00  0.480E-02    0.16       1.0  T
   4    -84.3496153 -0.138229E-03  0.340E-02    0.16       1.0  T
   5    -84.3497301 -0.114854E-03  0.167E-02    0.15       1.0  T
   6    -84.3497654 -0.352442E-04  0.132E-03    0.14      11.7  T
   7    -84.3497655 -0.166962E-06  0.280E-04    0.14      55.0  T
   8    -84.3497655  0.151678E-07  0.437E-04    0.14      35.3  T
   9    -84.3497655  0.415835E-08  0.451E-04    0.14      34.2  T
  10    -84.3497655 -0.181667E-07  0.243E-04    0.14      63.6  T
  11    -84.3497655 -0.579369E-08  0.113E-04    0.14     136.8  T
  12    -84.3497655 -0.153453E-08  0.215E-05    0.14     718.7  T
     SCC iter.                  ...        0 min,  0.040 sec
     gradient                   ...        0 min,  0.081 sec
 * total energy  :   -83.6222716 Eh     change       -0.6549114E-03 Eh
   gradient norm :     0.0150173 Eh/α   predicted    -0.4788107E-03 ( -26.89%)
   displ. norm   :     0.3126621 α      lambda       -0.8044132E-03
   maximum displ.:     0.1281899 α      in ANC's #2, #8, #6, ...

........................................................................
.............................. CYCLE    7 ..............................
........................................................................
   1    -84.3524119 -0.843524E+02  0.137E-02    0.14       0.0  T
   2    -84.3523012  0.110664E-03  0.292E-02    0.13       1.0  T
   3    -84.3523818 -0.805994E-04  0.194E-02    0.15       1.0  T
   4    -84.3524131 -0.313015E-04  0.923E-03    0.14       1.7  T
   5    -84.3524211 -0.799770E-05  0.231E-03    0.14       6.7  T
   6    -84.3524216 -0.465588E-06  0.257E-04    0.14      60.0  T
   7    -84.3524216 -0.317146E-08  0.973E-05    0.14     158.5  T
   8    -84.3524216 -0.483325E-09  0.431E-05    0.14     357.8  T
     SCC iter.                  ...        0 min,  0.027 sec
     gradient                   ...        0 min,  0.081 sec
 * total energy  :   -83.6228578 Eh     change       -0.5862146E-03 Eh
   gradient norm :     0.0123572 Eh/α   predicted    -0.4415282E-03 ( -24.68%)
   displ. norm   :     0.3157272 α      lambda       -0.5689043E-03
   maximum displ.:     0.1609087 α      in ANC's #2, #6, #8, ...

........................................................................
.............................. CYCLE    8 ..............................
........................................................................
   1    -84.3527986 -0.843528E+02  0.631E-02    0.11       0.0  T
   2    -84.3509978  0.180086E-02  0.146E-01    0.28       1.0  T
   3    -84.3529330 -0.193526E-02  0.579E-02    0.17       1.0  T
   4    -84.3533111 -0.378061E-03  0.155E-02    0.14       1.0  T
   5    -84.3533337 -0.226210E-04  0.461E-03    0.14       3.3  T
   6    -84.3533362 -0.247342E-05  0.250E-03    0.14       6.2  T
   7    -84.3533367 -0.525467E-06  0.118E-03    0.14      13.0  T
   8    -84.3533369 -0.164172E-06  0.388E-04    0.14      39.8  T
   9    -84.3533369 -0.192655E-07  0.214E-05    0.14     721.7  T
  10    -84.3533369  0.223110E-10  0.226E-05    0.14     681.5  T
     SCC iter.                  ...        0 min,  0.033 sec
     gradient                   ...        0 min,  0.081 sec
 * total energy  :   -83.6232789 Eh     change       -0.4211153E-03 Eh
   gradient norm :     0.0106675 Eh/α   predicted    -0.3128100E-03 ( -25.72%)
   displ. norm   :     0.3264351 α      lambda       -0.4587187E-03
   maximum displ.:     0.1903374 α      in ANC's #2, #6, #4, ...

........................................................................
.............................. CYCLE    9 ..............................
........................................................................
   1    -84.3529701 -0.843530E+02  0.103E-01    0.10       0.0  T
   2    -84.3509856  0.198446E-02  0.187E-01    0.38       1.0  T
   3    -84.3530575 -0.207187E-02  0.108E-01    0.21       1.0  T
   4    -84.3540689 -0.101143E-02  0.567E-02    0.16       1.0  T
   5    -84.3543995 -0.330560E-03  0.218E-02    0.13       1.0  T
   6    -84.3544600 -0.604981E-04  0.712E-03    0.14       2.2  T
   7    -84.3544640 -0.398319E-05  0.357E-03    0.13       4.3  T
   8    -84.3544657 -0.169408E-05  0.160E-04    0.13      96.4  T
   9    -84.3544656  0.168600E-07  0.395E-04    0.13      39.1  T
  10    -84.3544657 -0.198370E-07  0.355E-05    0.13     434.8  T
  11    -84.3544657 -0.100982E-09  0.184E-05    0.13     837.2  T
     SCC iter.                  ...        0 min,  0.037 sec
     gradient                   ...        0 min,  0.081 sec
 * total energy  :   -83.6236203 Eh     change       -0.3413076E-03 Eh
   gradient norm :     0.0088689 Eh/α   predicted    -0.2538029E-03 ( -25.64%)
   displ. norm   :     0.3775698 α      lambda       -0.4127674E-03
   maximum displ.:     0.2376340 α      in ANC's #2, #6, #4, ...

........................................................................
.............................. CYCLE   10 ..............................
........................................................................
   1    -84.3528727 -0.843529E+02  0.415E-02    0.12       0.0  T
   2    -84.3513893  0.148343E-02  0.117E-01    0.21       1.0  T
   3    -84.3530530 -0.166369E-02  0.687E-03    0.13       2.2  T
   4    -84.3530558 -0.280252E-05  0.286E-03    0.13       5.4  T
   5    -84.3530552  0.616626E-06  0.293E-03    0.13       5.3  T
   6    -84.3530544  0.741271E-06  0.332E-03    0.13       4.7  T
   7    -84.3530558 -0.142316E-05  0.399E-04    0.13      38.7  T
   8    -84.3530559 -0.174257E-07  0.128E-04    0.13     120.8  T
   9    -84.3530559 -0.172383E-08  0.418E-05    0.13     369.3  T
     SCC iter.                  ...        0 min,  0.030 sec
     gradient                   ...        0 min,  0.081 sec
 * total energy  :   -83.6238871 Eh     change       -0.2668892E-03 Eh
   gradient norm :     0.0110487 Eh/α   predicted    -0.2358069E-03 ( -11.65%)
   displ. norm   :     0.3498086 α      lambda       -0.4581606E-03
   maximum displ.:     0.2312428 α      in ANC's #2, #1, #6, ...

........................................................................
.............................. CYCLE   11 ..............................
........................................................................
   1    -84.3524075 -0.843524E+02  0.170E-01    0.08       0.0  T
   2    -84.3510077  0.139977E-02  0.250E-01    0.54       1.0  T
   3    -84.3535092 -0.250153E-02  0.166E-01    0.28       1.0  T
   4    -84.3550948 -0.158559E-02  0.109E-01    0.19       1.0  T
   5    -84.3556904 -0.595616E-03  0.803E-02    0.10       1.0  T
   6    -84.3563988 -0.708325E-03  0.359E-02    0.14       1.0  T
   7    -84.3564671 -0.683879E-04  0.260E-02    0.12       1.0  T
   8    -84.3565566 -0.894275E-04  0.215E-03    0.13       7.2  T
   9    -84.3565570 -0.450140E-06  0.103E-03    0.13      15.0  T
  10    -84.3565571 -0.729716E-07  0.706E-04    0.13      21.9  T
  11    -84.3565572 -0.641146E-07  0.136E-05    0.13    1134.4  T
  12    -84.3565572  0.140965E-08  0.105E-04    0.13     147.4  T
     SCC iter.                  ...        0 min,  0.037 sec
     gradient                   ...        0 min,  0.072 sec
 * total energy  :   -83.6241218 Eh     change       -0.2346900E-03 Eh
   gradient norm :     0.0126563 Eh/α   predicted    -0.2571124E-03 (   9.55%)
   displ. norm   :     0.3061054 α      lambda       -0.3114707E-03
   maximum displ.:     0.2055756 α      in ANC's #2, #1, #4, ...

........................................................................
.............................. CYCLE   12 ..............................
........................................................................
   1    -84.3543531 -0.843544E+02  0.435E-02    0.15       0.0  T
   2    -84.3200042  0.343489E-01  0.508E-01    0.03       1.0  T
   3    -84.3546127 -0.346085E-01  0.103E-02    0.13       1.5  T
   4    -84.3546235 -0.107673E-04  0.283E-03    0.13       5.5  T
   5    -84.3546207  0.275641E-05  0.569E-03    0.13       2.7  T
   6    -84.3546192  0.153164E-05  0.628E-03    0.13       2.5  T
   7    -84.3546231 -0.389874E-05  0.298E-03    0.13       5.2  T
   8    -84.3546241 -0.106195E-05  0.807E-04    0.13      19.1  T
   9    -84.3546242 -0.544863E-07  0.466E-04    0.13      33.1  T
  10    -84.3546242 -0.246329E-07  0.141E-04    0.13     109.4  T
  11    -84.3546242 -0.233214E-08  0.350E-05    0.13     441.0  T
     SCC iter.                  ...        0 min,  0.038 sec
     gradient                   ...        0 min,  0.080 sec
 * total energy  :   -83.6243568 Eh     change       -0.2349581E-03 Eh
   gradient norm :     0.0101526 Eh/α   predicted    -0.1703440E-03 ( -27.50%)
   displ. norm   :     0.3360590 α      lambda       -0.4488745E-03
   maximum displ.:     0.2322770 α      in ANC's #2, #1, #5, ...

........................................................................
.............................. CYCLE   13 ..............................
........................................................................
   1    -84.3555011 -0.843555E+02  0.683E-02    0.17       0.0  T
   2    -84.2455534  0.109948E+00  0.904E-01    0.01       1.0  T
   3    -84.3559782 -0.110425E+00  0.352E-02    0.15       1.0  T
   4    -84.3560705 -0.922936E-04  0.219E-02    0.14       1.0  T
   5    -84.3561269 -0.564171E-04  0.777E-03    0.14       2.0  T
   6    -84.3561332 -0.631073E-05  0.346E-03    0.13       4.5  T
   7    -84.3561339 -0.710156E-06  0.253E-03    0.13       6.1  T
   8    -84.3561347 -0.817955E-06  0.403E-04    0.13      38.3  T
   9    -84.3561347 -0.130409E-07  0.246E-04    0.13      62.7  T
  10    -84.3561347 -0.457382E-08  0.158E-04    0.13      97.9  T
  11    -84.3561347 -0.229328E-08  0.830E-05    0.13     186.0  T
     SCC iter.                  ...        0 min,  0.037 sec
     gradient                   ...        0 min,  0.080 sec
 * total energy  :   -83.6246631 Eh     change       -0.3063253E-03 Eh
   gradient norm :     0.0109088 Eh/α   predicted    -0.2497925E-03 ( -18.46%)
   displ. norm   :     0.4483691 α      lambda       -0.4270489E-03
   maximum displ.:     0.3036755 α      in ANC's #2, #1, #4, ...

........................................................................
.............................. CYCLE   14 ..............................
........................................................................
   1    -84.3515571 -0.843516E+02  0.548E-02    0.17       0.0  T
   2    -84.3035150  0.480422E-01  0.600E-01    0.02       1.0  T
   3    -84.3518370 -0.483221E-01  0.285E-02    0.15       1.0  T
   4    -84.3519114 -0.744161E-04  0.148E-02    0.14       1.0  T
   5    -84.3519376 -0.261409E-04  0.320E-03    0.14       4.8  T
   6    -84.3519381 -0.516028E-06  0.209E-03    0.14       7.4  T
   7    -84.3519386 -0.488847E-06  0.862E-04    0.14      17.9  T
   8    -84.3519387 -0.903966E-07  0.219E-04    0.14      70.6  T
   9    -84.3519387 -0.630351E-08  0.247E-05    0.14     624.7  T
  10    -84.3519387 -0.220126E-10  0.191E-05    0.14     807.6  T
     SCC iter.                  ...        0 min,  0.034 sec
     gradient                   ...        0 min,  0.077 sec
 * total energy  :   -83.6249327 Eh     change       -0.2695952E-03 Eh
   gradient norm :     0.0114838 Eh/α   predicted    -0.2564556E-03 (  -4.87%)
   displ. norm   :     0.3336352 α      lambda       -0.3603812E-03
   maximum displ.:     0.2273985 α      in ANC's #2, #1, #12, ...

........................................................................
.............................. CYCLE   15 ..............................
........................................................................
   1    -84.3538335 -0.843538E+02  0.301E-02    0.15       0.0  T
   2    -84.3497828  0.405067E-02  0.177E-01    0.09       1.0  T
   3    -84.3538522 -0.406942E-02  0.240E-02    0.15       1.0  T
   4    -84.3539001 -0.479268E-04  0.132E-02    0.15       1.2  T
   5    -84.3539166 -0.164865E-04  0.506E-03    0.14       3.0  T
   6    -84.3539194 -0.275648E-05  0.319E-04    0.14      48.4  T
   7    -84.3539194 -0.295955E-09  0.193E-04    0.14      80.0  T
   8    -84.3539194 -0.145458E-08  0.128E-04    0.14     120.3  T
     SCC iter.                  ...        0 min,  0.027 sec
     gradient                   ...        0 min,  0.079 sec
 * total energy  :   -83.6251665 Eh     change       -0.2338247E-03 Eh
   gradient norm :     0.0117585 Eh/α   predicted    -0.2002531E-03 ( -14.36%)
   displ. norm   :     0.3773474 α      lambda       -0.3352184E-03
   maximum displ.:     0.2714184 α      in ANC's #2, #6, #1, ...

........................................................................
.............................. CYCLE   16 ..............................
........................................................................
   1    -84.3534967 -0.843535E+02  0.128E-02    0.14       0.0  T
   2    -84.3533228  0.173919E-03  0.376E-02    0.13       1.0  T
   3    -84.3534946 -0.171852E-03  0.124E-02    0.15       1.2  T
   4    -84.3535082 -0.135683E-04  0.442E-03    0.14       3.5  T
   5    -84.3535096 -0.135414E-05  0.112E-03    0.14      13.8  T
   6    -84.3535096 -0.475602E-07  0.220E-04    0.14      70.1  T
   7    -84.3535096 -0.256897E-08  0.582E-05    0.14     265.2  T
   8    -84.3535096 -0.116771E-09  0.255E-05    0.14     606.2  T
     SCC iter.                  ...        0 min,  0.027 sec
     gradient                   ...        0 min,  0.071 sec
 * total energy  :   -83.6254090 Eh     change       -0.2424278E-03 Eh
   gradient norm :     0.0079982 Eh/α   predicted    -0.1914797E-03 ( -21.02%)
   displ. norm   :     0.3579430 α      lambda       -0.3053297E-03
   maximum displ.:     0.2594936 α      in ANC's #2, #6, #1, ...

........................................................................
.............................. CYCLE   17 ..............................
........................................................................
   1    -84.3557554 -0.843558E+02  0.197E-02    0.14       0.0  T
   2    -84.3557399  0.155308E-04  0.204E-02    0.15       1.0  T
   3    -84.3556400  0.998498E-04  0.327E-02    0.13       1.0  T
   4    -84.3557745 -0.134499E-03  0.721E-03    0.14       2.1  T
   5    -84.3557788 -0.424559E-05  0.183E-03    0.14       8.4  T
   6    -84.3557788 -0.779724E-07  0.370E-04    0.14      41.8  T
   7    -84.3557788 -0.747221E-08  0.105E-04    0.14     146.7  T
   8    -84.3557788 -0.539330E-09  0.470E-05    0.14     328.5  T
     SCC iter.                  ...        0 min,  0.023 sec
     gradient                   ...        0 min,  0.071 sec
 * total energy  :   -83.6255690 Eh     change       -0.1600892E-03 Eh
   gradient norm :     0.0080185 Eh/α   predicted    -0.1722297E-03 (   7.58%)
   displ. norm   :     0.3414339 α      lambda       -0.2154882E-03
   maximum displ.:     0.2522248 α      in ANC's #2, #6, #1, ...

........................................................................
.............................. CYCLE   18 ..............................
........................................................................
   1    -84.3566361 -0.843566E+02  0.241E-02    0.16       0.0  T
   2    -84.3540748  0.256130E-02  0.141E-01    0.10       1.0  T
   3    -84.3566899 -0.261506E-02  0.973E-03    0.15       1.6  T
   4    -84.3566982 -0.833568E-05  0.388E-03    0.15       4.0  T
   5    -84.3566992 -0.994586E-06  0.139E-03    0.14      11.1  T
   6    -84.3566994 -0.156599E-06  0.655E-04    0.14      23.5  T
   7    -84.3566994 -0.518598E-07  0.794E-05    0.14     194.2  T
   8    -84.3566994 -0.463487E-09  0.398E-05    0.14     388.0  T
     SCC iter.                  ...        0 min,  0.020 sec
     gradient                   ...        0 min,  0.043 sec
 * total energy  :   -83.6257126 Eh     change       -0.1435593E-03 Eh
   gradient norm :     0.0065932 Eh/α   predicted    -0.1203105E-03 ( -16.19%)
   displ. norm   :     0.5670197 α      lambda       -0.2313968E-03
   maximum displ.:     0.4231458 α      in ANC's #2, #6, #1, ...

........................................................................
.............................. CYCLE   19 ..............................
........................................................................
   1    -84.3513630 -0.843514E+02  0.436E-02    0.18       0.0  T
   2    -84.3354234  0.159395E-01  0.350E-01    0.06       1.0  T
   3    -84.3515880 -0.161645E-01  0.153E-02    0.16       1.0  T
   4    -84.3516135 -0.255529E-04  0.518E-03    0.15       3.0  T
   5    -84.3516112  0.229529E-05  0.666E-03    0.15       2.3  T
   6    -84.3516133 -0.211731E-05  0.493E-03    0.15       3.1  T
   7    -84.3516160 -0.268777E-05  0.175E-03    0.15       8.8  T
   8    -84.3516164 -0.373832E-06  0.312E-04    0.15      49.4  T
   9    -84.3516164 -0.226392E-08  0.272E-04    0.15      56.7  T
  10    -84.3516164 -0.730057E-08  0.118E-04    0.15     131.2  T
  11    -84.3516164 -0.162002E-08  0.241E-05    0.15     639.9  T
     SCC iter.                  ...        0 min,  0.027 sec
     gradient                   ...        0 min,  0.043 sec
 * total energy  :   -83.6258426 Eh     change       -0.1299676E-03 Eh
   gradient norm :     0.0098495 Eh/α   predicted    -0.1529005E-03 (  17.65%)
   displ. norm   :     0.3176523 α      lambda       -0.3589392E-03
   maximum displ.:     0.2179774 α      in ANC's #2, #6, #7, ...

........................................................................
.............................. CYCLE   20 ..............................
........................................................................
   1    -84.3592756 -0.843593E+02  0.175E-02    0.15       0.0  T
   2    -84.3591073  0.168297E-03  0.386E-02    0.13       1.0  T
   3    -84.3592665 -0.159175E-03  0.143E-02    0.16       1.1  T
   4    -84.3592882 -0.216998E-04  0.357E-03    0.15       4.3  T
   5    -84.3592882  0.208030E-08  0.124E-03    0.15      12.4  T
   6    -84.3592883 -0.127435E-06  0.205E-04    0.15      75.1  T
   7    -84.3592883 -0.132741E-08  0.558E-05    0.15     276.3  T
   8    -84.3592883  0.703437E-11  0.281E-05    0.15     549.6  T
     SCC iter.                  ...        0 min,  0.019 sec
     gradient                   ...        0 min,  0.043 sec
 * total energy  :   -83.6260006 Eh     change       -0.1579766E-03 Eh
   gradient norm :     0.0086540 Eh/α   predicted    -0.1975797E-03 (  25.07%)
   displ. norm   :     0.2633436 α      lambda       -0.1998808E-03
   maximum displ.:     0.1993505 α      in ANC's #2, #6, #7, ...
 * RMSD in coord.:     0.8522225 α      energy gain  -0.3923137E-01 Eh

generating ANC from model Hessian ...
Using Lindh-Hessian (1995)
 Shifting diagonal of input Hessian by   9.836385416232088E-003
 Lowest  eigenvalues of input Hessian
    0.000000    0.000000    0.000000    0.000000    0.000000    0.000000
    0.010000    0.010157    0.010579    0.011069    0.011702    0.012278
    0.012558    0.013557    0.014204    0.015457    0.016358    0.016834
 Highest eigenvalues
    2.009967    2.072162    2.161611    2.180772    2.228960    2.378711
 

........................................................................
.............................. CYCLE   21 ..............................
........................................................................
   1    -84.3587062 -0.843587E+02  0.177E-02    0.14       0.0  T
   2    -84.3583815  0.324712E-03  0.556E-02    0.18       1.0  T
   3    -84.3587331 -0.351561E-03  0.106E-02    0.15       1.5  T
   4    -84.3587417 -0.860722E-05  0.323E-03    0.15       4.8  T
   5    -84.3587414  0.295751E-06  0.197E-03    0.15       7.8  T
   6    -84.3587417 -0.348057E-06  0.121E-03    0.15      12.8  T
   7    -84.3587419 -0.177632E-06  0.108E-04    0.15     142.8  T
   8    -84.3587419 -0.715445E-09  0.653E-05    0.15     236.3  T
     SCC iter.                  ...        0 min,  0.019 sec
     gradient                   ...        0 min,  0.043 sec
 * total energy  :   -83.6261133 Eh     change       -0.1127647E-03 Eh
   gradient norm :     0.0050680 Eh/α   predicted     0.0000000E+00 (-100.00%)
   displ. norm   :     0.0622539 α      lambda       -0.1063430E-03
   maximum displ.:     0.0244408 α      in ANC's #9, #19, #16, ...

........................................................................
.............................. CYCLE   22 ..............................
........................................................................
   1    -84.3584600 -0.843585E+02  0.549E-03    0.15       0.0  T
   2    -84.3584368  0.231792E-04  0.145E-02    0.16       1.1  T
   3    -84.3584613 -0.245398E-04  0.255E-03    0.15       6.1  T
   4    -84.3584618 -0.411240E-06  0.152E-03    0.15      10.2  T
   5    -84.3584619 -0.161215E-06  0.291E-04    0.15      53.1  T
   6    -84.3584619 -0.418638E-08  0.509E-05    0.15     303.2  T
   7    -84.3584619 -0.208686E-09  0.188E-05    0.15     822.3  T
     SCC iter.                  ...        0 min,  0.017 sec
     gradient                   ...        0 min,  0.053 sec
 * total energy  :   -83.6261913 Eh     change       -0.7799684E-04 Eh
   gradient norm :     0.0022351 Eh/α   predicted    -0.5343444E-04 ( -31.49%)
   displ. norm   :     0.1255156 α      lambda       -0.1128996E-03
   maximum displ.:     0.0532253 α      in ANC's #1, #16, #9, ...

........................................................................
.............................. CYCLE   23 ..............................
........................................................................
   1    -84.3579057 -0.843579E+02  0.659E-03    0.15       0.0  T
   2    -84.3578754  0.303132E-04  0.168E-02    0.16       1.0  T
   3    -84.3579078 -0.324060E-04  0.290E-03    0.15       5.3  T
   4    -84.3579080 -0.280612E-06  0.232E-03    0.15       6.7  T
   5    -84.3579085 -0.411834E-06  0.529E-04    0.15      29.1  T
   6    -84.3579085 -0.190579E-07  0.693E-05    0.15     222.6  T
   7    -84.3579085 -0.262403E-09  0.324E-05    0.15     476.1  T
     SCC iter.                  ...        0 min,  0.021 sec
     gradient                   ...        0 min,  0.046 sec
 * total energy  :   -83.6262656 Eh     change       -0.7430371E-04 Eh
   gradient norm :     0.0027413 Eh/α   predicted    -0.5734758E-04 ( -22.82%)
   displ. norm   :     0.1297522 α      lambda       -0.6808589E-04
   maximum displ.:     0.0620538 α      in ANC's #1, #16, #4, ...

........................................................................
.............................. CYCLE   24 ..............................
........................................................................
   1    -84.3575429 -0.843575E+02  0.309E-03    0.15       0.0  T
   2    -84.3575375  0.537880E-05  0.723E-03    0.15       2.1  T
   3    -84.3575433 -0.577415E-05  0.155E-03    0.15      10.0  T
   4    -84.3575434 -0.768085E-07  0.137E-03    0.15      11.3  T
   5    -84.3575435 -0.136681E-06  0.467E-04    0.15      33.0  T
   6    -84.3575435 -0.185020E-07  0.482E-05    0.15     320.2  T
   7    -84.3575435 -0.372040E-10  0.178E-05    0.15     866.0  T
     SCC iter.                  ...        0 min,  0.018 sec
     gradient                   ...        0 min,  0.045 sec
 * total energy  :   -83.6263191 Eh     change       -0.5352821E-04 Eh
   gradient norm :     0.0034766 Eh/α   predicted    -0.3461768E-04 ( -35.33%)
   displ. norm   :     0.2159680 α      lambda       -0.9960834E-04
   maximum displ.:     0.1092634 α      in ANC's #1, #16, #4, ...

........................................................................
.............................. CYCLE   25 ..............................
........................................................................
   1    -84.3571840 -0.843572E+02  0.373E-03    0.15       0.0  T
   2    -84.3571824  0.160458E-05  0.412E-03    0.15       3.7  T
   3    -84.3571804  0.197678E-05  0.590E-03    0.15       2.6  T
   4    -84.3571844 -0.398216E-05  0.999E-04    0.15      15.5  T
   5    -84.3571844 -0.369107E-07  0.286E-04    0.15      53.9  T
   6    -84.3571845 -0.358449E-08  0.706E-05    0.15     218.5  T
   7    -84.3571845 -0.194078E-09  0.166E-05    0.15     928.1  T
     SCC iter.                  ...        0 min,  0.025 sec
     gradient                   ...        0 min,  0.080 sec
 * total energy  :   -83.6263922 Eh     change       -0.7304365E-04 Eh
   gradient norm :     0.0033269 Eh/α   predicted    -0.5212867E-04 ( -28.63%)
   displ. norm   :     0.1985323 α      lambda       -0.7515227E-04
   maximum displ.:     0.1073949 α      in ANC's #1, #4, #2, ...

........................................................................
.............................. CYCLE   26 ..............................
........................................................................
   1    -84.3573916 -0.843574E+02  0.544E-03    0.15       0.0  T
   2    -84.3573452  0.463294E-04  0.196E-02    0.14       1.0  T
   3    -84.3573937 -0.484520E-04  0.225E-03    0.15       6.9  T
   4    -84.3573941 -0.439141E-06  0.797E-04    0.15      19.4  T
   5    -84.3573941  0.996903E-08  0.378E-04    0.15      40.8  T
   6    -84.3573941 -0.153414E-07  0.502E-05    0.15     307.5  T
   7    -84.3573941 -0.206342E-10  0.213E-05    0.15     723.3  T
     SCC iter.                  ...        0 min,  0.024 sec
     gradient                   ...        0 min,  0.054 sec
 * total energy  :   -83.6264478 Eh     change       -0.5563736E-04 Eh
   gradient norm :     0.0028502 Eh/α   predicted    -0.3906359E-04 ( -29.79%)
   displ. norm   :     0.1773325 α      lambda       -0.6444629E-04
   maximum displ.:     0.1008697 α      in ANC's #1, #4, #2, ...

........................................................................
.............................. CYCLE   27 ..............................
........................................................................
   1    -84.3582179 -0.843582E+02  0.654E-03    0.15       0.0  T
   2    -84.3581385  0.793501E-04  0.257E-02    0.14       1.0  T
   3    -84.3582218 -0.832638E-04  0.218E-03    0.15       7.1  T
   4    -84.3582222 -0.424473E-06  0.789E-04    0.15      19.6  T
   5    -84.3582222  0.439990E-07  0.683E-04    0.15      22.6  T
   6    -84.3582222 -0.500039E-07  0.725E-05    0.15     212.9  T
   7    -84.3582222 -0.253024E-09  0.221E-05    0.15     697.9  T
     SCC iter.                  ...        0 min,  0.017 sec
     gradient                   ...        0 min,  0.043 sec
 * total energy  :   -83.6264980 Eh     change       -0.5012381E-04 Eh
   gradient norm :     0.0024943 Eh/α   predicted    -0.3324317E-04 ( -33.68%)
   displ. norm   :     0.2037475 α      lambda       -0.6691430E-04
   maximum displ.:     0.1191535 α      in ANC's #1, #4, #2, ...

........................................................................
.............................. CYCLE   28 ..............................
........................................................................
   1    -84.3587121 -0.843587E+02  0.768E-03    0.15       0.0  T
   2    -84.3585741  0.138011E-03  0.338E-02    0.13       1.0  T
   3    -84.3587190 -0.144933E-03  0.155E-03    0.15      10.0  T
   4    -84.3587191 -0.937952E-07  0.979E-04    0.15      15.8  T
   5    -84.3587191  0.423820E-07  0.890E-04    0.15      17.3  T
   6    -84.3587192 -0.794373E-07  0.976E-05    0.15     158.1  T
   7    -84.3587192 -0.709463E-09  0.227E-05    0.15     680.5  T
     SCC iter.                  ...        0 min,  0.017 sec
     gradient                   ...        0 min,  0.043 sec
 * total energy  :   -83.6265497 Eh     change       -0.5173124E-04 Eh
   gradient norm :     0.0026325 Eh/α   predicted    -0.3484677E-04 ( -32.64%)
   displ. norm   :     0.2210408 α      lambda       -0.6173662E-04
   maximum displ.:     0.1332527 α      in ANC's #1, #4, #2, ...

........................................................................
.............................. CYCLE   29 ..............................
........................................................................
   1    -84.3585938 -0.843586E+02  0.694E-03    0.15       0.0  T
   2    -84.3584824  0.111480E-03  0.304E-02    0.14       1.0  T
   3    -84.3585997 -0.117334E-03  0.137E-03    0.15      11.3  T
   4    -84.3585997  0.785619E-08  0.999E-04    0.15      15.4  T
   5    -84.3585997 -0.221789E-09  0.658E-04    0.15      23.4  T
   6    -84.3585997 -0.400276E-07  0.604E-05    0.15     255.3  T
   7    -84.3585997 -0.112905E-09  0.195E-05    0.15     790.1  T
     SCC iter.                  ...        0 min,  0.017 sec
     gradient                   ...        0 min,  0.043 sec
 * total energy  :   -83.6265985 Eh     change       -0.4877053E-04 Eh
   gradient norm :     0.0027697 Eh/α   predicted    -0.3237914E-04 ( -33.61%)
   displ. norm   :     0.2450322 α      lambda       -0.6508428E-04
   maximum displ.:     0.1542606 α      in ANC's #1, #4, #5, ...

........................................................................
.............................. CYCLE   30 ..............................
........................................................................
   1    -84.3582791 -0.843583E+02  0.699E-03    0.15       0.0  T
   2    -84.3581708  0.108313E-03  0.299E-02    0.14       1.0  T
   3    -84.3582848 -0.114067E-03  0.149E-03    0.15      10.3  T
   4    -84.3582849 -0.168399E-07  0.843E-04    0.15      18.3  T
   5    -84.3582849  0.500407E-09  0.375E-04    0.15      41.1  T
   6    -84.3582849 -0.902367E-08  0.519E-05    0.15     297.3  T
   7    -84.3582849 -0.264038E-10  0.191E-05    0.15     808.6  T
     SCC iter.                  ...        0 min,  0.017 sec
     gradient                   ...        0 min,  0.043 sec
 * total energy  :   -83.6266492 Eh     change       -0.5073935E-04 Eh
   gradient norm :     0.0030332 Eh/α   predicted    -0.3451767E-04 ( -31.97%)
   displ. norm   :     0.2433561 α      lambda       -0.6457682E-04
   maximum displ.:     0.1599071 α      in ANC's #1, #4, #5, ...

........................................................................
.............................. CYCLE   31 ..............................
........................................................................
   1    -84.3579139 -0.843579E+02  0.424E-03    0.15       0.0  T
   2    -84.3578945  0.193984E-04  0.128E-02    0.14       1.2  T
   3    -84.3579150 -0.204991E-04  0.213E-03    0.15       7.2  T
   4    -84.3579153 -0.263715E-06  0.876E-04    0.15      17.6  T
   5    -84.3579153 -0.161789E-07  0.299E-04    0.15      51.6  T
   6    -84.3579153 -0.580205E-08  0.668E-05    0.15     230.9  T
   7    -84.3579153 -0.235730E-09  0.205E-05    0.15     754.0  T
     SCC iter.                  ...        0 min,  0.017 sec
     gradient                   ...        0 min,  0.043 sec
 * total energy  :   -83.6266999 Eh     change       -0.5073392E-04 Eh
   gradient norm :     0.0031888 Eh/α   predicted    -0.3420123E-04 ( -32.59%)
   displ. norm   :     0.2077700 α      lambda       -0.6466551E-04
   maximum displ.:     0.1440153 α      in ANC's #1, #4, #16, ...

........................................................................
.............................. CYCLE   32 ..............................
........................................................................
   1    -84.3580435 -0.843580E+02  0.359E-03    0.15       0.0  T
   2    -84.3580402  0.324806E-05  0.598E-03    0.15       2.6  T
   3    -84.3580429 -0.265593E-05  0.309E-03    0.15       5.0  T
   4    -84.3580438 -0.986274E-06  0.158E-03    0.15       9.8  T
   5    -84.3580440 -0.182396E-06  0.421E-04    0.15      36.6  T
   6    -84.3580440 -0.145669E-07  0.872E-05    0.15     177.0  T
   7    -84.3580440 -0.569756E-09  0.170E-05    0.15     906.5  T
     SCC iter.                  ...        0 min,  0.017 sec
     gradient                   ...        0 min,  0.043 sec
 * total energy  :   -83.6267494 Eh     change       -0.4949253E-04 Eh
   gradient norm :     0.0030839 Eh/α   predicted    -0.3373575E-04 ( -31.84%)
   displ. norm   :     0.1953657 α      lambda       -0.6561185E-04
   maximum displ.:     0.1389712 α      in ANC's #1, #4, #5, ...

........................................................................
.............................. CYCLE   33 ..............................
........................................................................
   1    -84.3577530 -0.843578E+02  0.614E-03    0.15       0.0  T
   2    -84.3577124  0.405899E-04  0.190E-02    0.16       1.0  T
   3    -84.3577565 -0.441180E-04  0.150E-03    0.15      10.3  T
   4    -84.3577565  0.248284E-07  0.135E-03    0.15      11.5  T
   5    -84.3577566 -0.121812E-06  0.358E-04    0.15      43.1  T
   6    -84.3577566 -0.622339E-08  0.608E-05    0.15     253.6  T
   7    -84.3577566 -0.775771E-10  0.197E-05    0.15     782.6  T
     SCC iter.                  ...        0 min,  0.017 sec
     gradient                   ...        0 min,  0.043 sec
 * total energy  :   -83.6267976 Eh     change       -0.4815005E-04 Eh
   gradient norm :     0.0029053 Eh/α   predicted    -0.3406201E-04 ( -29.26%)
   displ. norm   :     0.1402480 α      lambda       -0.5622102E-04
   maximum displ.:     0.1010055 α      in ANC's #1, #7, #16, ...

........................................................................
.............................. CYCLE   34 ..............................
........................................................................
   1    -84.3599339 -0.843599E+02  0.127E-02    0.14       0.0  T
   2    -84.3597412  0.192637E-03  0.417E-02    0.17       1.0  T
   3    -84.3599514 -0.210199E-03  0.414E-03    0.15       3.7  T
   4    -84.3599523 -0.898295E-06  0.213E-03    0.15       7.2  T
   5    -84.3599525 -0.173042E-06  0.733E-04    0.15      21.0  T
   6    -84.3599526 -0.585160E-07  0.231E-04    0.15      66.7  T
   7    -84.3599526 -0.608459E-08  0.240E-05    0.15     641.8  T
   8    -84.3599526 -0.162856E-10  0.618E-06    0.15    2497.6  T
     SCC iter.                  ...        0 min,  0.019 sec
     gradient                   ...        0 min,  0.043 sec
 * total energy  :   -83.6268294 Eh     change       -0.3182742E-04 Eh
   gradient norm :     0.0033378 Eh/α   predicted    -0.2866571E-04 (  -9.93%)
   displ. norm   :     0.1731149 α      lambda       -0.5004549E-04
   maximum displ.:     0.1290622 α      in ANC's #1, #4, #5, ...

........................................................................
.............................. CYCLE   35 ..............................
........................................................................
   1    -84.3581571 -0.843582E+02  0.502E-03    0.15       0.0  T
   2    -84.3581563  0.752918E-06  0.421E-03    0.15       3.7  T
   3    -84.3581514  0.496502E-05  0.703E-03    0.15       2.2  T
   4    -84.3581575 -0.611473E-05  0.195E-03    0.15       7.9  T
   5    -84.3581577 -0.255387E-06  0.466E-04    0.15      33.1  T
   6    -84.3581578 -0.142836E-07  0.109E-04    0.15     141.5  T
   7    -84.3581578 -0.717108E-09  0.235E-05    0.15     657.6  T
     SCC iter.                  ...        0 min,  0.017 sec
     gradient                   ...        0 min,  0.043 sec
 * total energy  :   -83.6268572 Eh     change       -0.2776578E-04 Eh
   gradient norm :     0.0030898 Eh/α   predicted    -0.2577306E-04 (  -7.18%)
   displ. norm   :     0.0684414 α      lambda       -0.2751274E-04
   maximum displ.:     0.0555437 α      in ANC's #1, #3, #14, ...

........................................................................
.............................. CYCLE   36 ..............................
........................................................................
   1    -84.3584900 -0.843585E+02  0.369E-03    0.15       0.0  T
   2    -84.3584740  0.159547E-04  0.117E-02    0.15       1.3  T
   3    -84.3584913 -0.172603E-04  0.120E-03    0.15      12.9  T
   4    -84.3584914 -0.965385E-07  0.383E-04    0.15      40.3  T
   5    -84.3584914  0.708681E-08  0.319E-04    0.15      48.4  T
   6    -84.3584914 -0.823856E-08  0.377E-05    0.15     409.8  T
   7    -84.3584914 -0.647020E-10  0.851E-06    0.15    1812.6  T
     SCC iter.                  ...        0 min,  0.023 sec
     gradient                   ...        0 min,  0.045 sec
 * total energy  :   -83.6268814 Eh     change       -0.2422140E-04 Eh
   gradient norm :     0.0025041 Eh/α   predicted    -0.1382258E-04 ( -42.93%)
   displ. norm   :     0.1759992 α      lambda       -0.7066510E-04
   maximum displ.:     0.1385868 α      in ANC's #1, #3, #9, ...

........................................................................
.............................. CYCLE   37 ..............................
........................................................................
   1    -84.3591948 -0.843592E+02  0.542E-03    0.15       0.0  T
   2    -84.3591856  0.920713E-05  0.942E-03    0.15       1.6  T
   3    -84.3591926 -0.693309E-05  0.610E-03    0.15       2.5  T
   4    -84.3591967 -0.416969E-05  0.965E-04    0.15      16.0  T
   5    -84.3591967  0.844372E-07  0.978E-04    0.15      15.8  T
   6    -84.3591967 -0.906035E-07  0.699E-05    0.15     220.8  T
   7    -84.3591967 -0.785434E-10  0.201E-05    0.15     768.7  T
     SCC iter.                  ...        0 min,  0.017 sec
     gradient                   ...        0 min,  0.044 sec
 * total energy  :   -83.6269336 Eh     change       -0.5218121E-04 Eh
   gradient norm :     0.0022575 Eh/α   predicted    -0.3642836E-04 ( -30.19%)
   displ. norm   :     0.2268130 α      lambda       -0.5551139E-04
   maximum displ.:     0.1814425 α      in ANC's #1, #3, #11, ...

........................................................................
.............................. CYCLE   38 ..............................
........................................................................
   1    -84.3587705 -0.843588E+02  0.501E-03    0.15       0.0  T
   2    -84.3587677  0.281427E-05  0.605E-03    0.15       2.5  T
   3    -84.3587656  0.205310E-05  0.723E-03    0.15       2.1  T
   4    -84.3587719 -0.629032E-05  0.879E-04    0.15      17.5  T
   5    -84.3587719  0.191633E-07  0.647E-04    0.15      23.8  T
   6    -84.3587719 -0.341760E-07  0.719E-05    0.15     214.7  T
   7    -84.3587719 -0.132871E-09  0.204E-05    0.15     756.3  T
     SCC iter.                  ...        0 min,  0.017 sec
     gradient                   ...        0 min,  0.043 sec
 * total energy  :   -83.6269774 Eh     change       -0.4379713E-04 Eh
   gradient norm :     0.0040998 Eh/α   predicted    -0.2918862E-04 ( -33.35%)
   displ. norm   :     0.2278052 α      lambda       -0.5750601E-04
   maximum displ.:     0.1815930 α      in ANC's #1, #3, #11, ...

........................................................................
.............................. CYCLE   39 ..............................
........................................................................
   1    -84.3584674 -0.843585E+02  0.455E-03    0.15       0.0  T
   2    -84.3584389  0.284222E-04  0.155E-02    0.14       1.0  T
   3    -84.3584691 -0.301438E-04  0.181E-03    0.15       8.5  T
   4    -84.3584693 -0.250592E-06  0.675E-04    0.15      22.9  T
   5    -84.3584693  0.659693E-08  0.390E-04    0.15      39.6  T
   6    -84.3584693 -0.112461E-07  0.365E-05    0.15     423.0  T
   7    -84.3584693 -0.180336E-10  0.110E-05    0.15    1407.9  T
     SCC iter.                  ...        0 min,  0.017 sec
     gradient                   ...        0 min,  0.043 sec
 * total energy  :   -83.6270273 Eh     change       -0.4998505E-04 Eh
   gradient norm :     0.0040523 Eh/α   predicted    -0.3024848E-04 ( -39.48%)
   displ. norm   :     0.3044952 α      lambda       -0.8217152E-04
   maximum displ.:     0.2428701 α      in ANC's #1, #3, #11, ...

........................................................................
.............................. CYCLE   40 ..............................
........................................................................
   1    -84.3575077 -0.843575E+02  0.104E-02    0.16       0.0  T
   2    -84.3572199  0.287771E-03  0.484E-02    0.13       1.0  T
   3    -84.3575212 -0.301325E-03  0.191E-03    0.15       8.1  T
   4    -84.3575214 -0.141649E-06  0.916E-04    0.15      16.8  T
   5    -84.3575214  0.777449E-08  0.479E-04    0.15      32.2  T
   6    -84.3575214 -0.151892E-07  0.991E-05    0.15     155.7  T
   7    -84.3575214 -0.849582E-09  0.218E-05    0.15     708.6  T
     SCC iter.                  ...        0 min,  0.017 sec
     gradient                   ...        0 min,  0.044 sec
 * total energy  :   -83.6270954 Eh     change       -0.6804694E-04 Eh
   gradient norm :     0.0049109 Eh/α   predicted    -0.4489783E-04 ( -34.02%)
   displ. norm   :     0.3928470 α      lambda       -0.1169017E-03
   maximum displ.:     0.3175650 α      in ANC's #1, #3, #11, ...

........................................................................
.............................. CYCLE   41 ..............................
........................................................................
   1    -84.3570405 -0.843570E+02  0.127E-02    0.16       0.0  T
   2    -84.3566720  0.368483E-03  0.546E-02    0.13       1.0  T
   3    -84.3570576 -0.385589E-03  0.361E-03    0.15       4.3  T
   4    -84.3570583 -0.682999E-06  0.164E-03    0.15       9.4  T
   5    -84.3570584 -0.168365E-06  0.441E-04    0.15      35.0  T
   6    -84.3570584 -0.259166E-08  0.106E-04    0.15     145.9  T
   7    -84.3570584 -0.282654E-09  0.242E-05    0.15     636.9  T
     SCC iter.                  ...        0 min,  0.017 sec
     gradient                   ...        0 min,  0.046 sec
 * total energy  :   -83.6271777 Eh     change       -0.8233711E-04 Eh
   gradient norm :     0.0034862 Eh/α   predicted    -0.6747485E-04 ( -18.05%)
   displ. norm   :     0.4377571 α      lambda       -0.9333030E-04
   maximum displ.:     0.3601831 α      in ANC's #1, #3, #19, ...

........................................................................
.............................. CYCLE   42 ..............................
........................................................................
   1    -84.3553398 -0.843553E+02  0.130E-02    0.16       0.0  T
   2    -84.3550343  0.305492E-03  0.502E-02    0.13       1.0  T
   3    -84.3553549 -0.320564E-03  0.452E-03    0.15       3.4  T
   4    -84.3553558 -0.985487E-06  0.153E-03    0.15      10.1  T
   5    -84.3553558  0.972864E-08  0.522E-04    0.15      29.6  T
   6    -84.3553559 -0.219276E-07  0.136E-04    0.15     113.9  T
   7    -84.3553559 -0.113847E-08  0.406E-05    0.15     379.9  T
     SCC iter.                  ...        0 min,  0.017 sec
     gradient                   ...        0 min,  0.043 sec
 * total energy  :   -83.6272182 Eh     change       -0.4051463E-04 Eh
   gradient norm :     0.0096787 Eh/α   predicted    -0.5560871E-04 (  37.26%)
   displ. norm   :     0.1846478 α      lambda       -0.1221334E-03
   maximum displ.:     0.1565245 α      in ANC's #1, #3, #5, ...
 * RMSD in coord.:     0.5851685 α      energy gain  -0.1217693E-02 Eh

generating ANC from model Hessian ...
Using Lindh-Hessian (1995)
 Shifting diagonal of input Hessian by   9.823625568518258E-003
 Lowest  eigenvalues of input Hessian
    0.000000    0.000000    0.000000    0.000000    0.000000    0.000000
    0.010000    0.010242    0.010563    0.010938    0.011670    0.012302
    0.012536    0.013579    0.014199    0.015593    0.016312    0.016889
 Highest eigenvalues
    2.011005    2.064259    2.156958    2.178383    2.226454    2.383036
 

........................................................................
.............................. CYCLE   43 ..............................
........................................................................
   1    -84.3578105 -0.843578E+02  0.718E-03    0.15       0.0  T
   2    -84.3578113 -0.791724E-06  0.384E-03    0.15       4.0  T
   3    -84.3578083  0.298817E-05  0.518E-03    0.15       3.0  T
   4    -84.3578095 -0.116658E-05  0.437E-03    0.16       3.5  T
   5    -84.3578116 -0.206457E-05  0.508E-04    0.15      30.4  T
   6    -84.3578116 -0.845195E-08  0.103E-04    0.15     149.1  T
   7    -84.3578116 -0.237847E-09  0.251E-05    0.15     614.7  T
     SCC iter.                  ...        0 min,  0.017 sec
     gradient                   ...        0 min,  0.052 sec
 * total energy  :   -83.6272986 Eh     change       -0.8040263E-04 Eh
   gradient norm :     0.0050160 Eh/α   predicted     0.0000000E+00 (-100.00%)
   displ. norm   :     0.0390581 α      lambda       -0.6145315E-04
   maximum displ.:     0.0132893 α      in ANC's #5, #20, #39, ...

........................................................................
.............................. CYCLE   44 ..............................
........................................................................
   1    -84.3590304 -0.843590E+02  0.138E-02    0.14       0.0  T
   2    -84.3588035  0.226900E-03  0.454E-02    0.18       1.0  T
   3    -84.3590534 -0.249882E-03  0.525E-03    0.15       2.9  T
   4    -84.3590564 -0.299188E-05  0.108E-03    0.15      14.2  T
   5    -84.3590564  0.735422E-08  0.568E-04    0.15      27.2  T
   6    -84.3590564 -0.177222E-07  0.331E-04    0.15      46.6  T
   7    -84.3590564 -0.138094E-07  0.258E-05    0.15     597.3  T
   8    -84.3590564 -0.265317E-10  0.156E-05    0.15     988.0  T
     SCC iter.                  ...        0 min,  0.028 sec
     gradient                   ...        0 min,  0.049 sec
 * total energy  :   -83.6273521 Eh     change       -0.5340408E-04 Eh
   gradient norm :     0.0027773 Eh/α   predicted    -0.3504741E-04 ( -34.37%)
   displ. norm   :     0.1093600 α      lambda       -0.1148243E-03
   maximum displ.:     0.0370615 α      in ANC's #5, #20, #1, ...

........................................................................
.............................. CYCLE   45 ..............................
........................................................................
   1    -84.3603758 -0.843604E+02  0.374E-02    0.13       0.0  T
   2    -84.3595168  0.858983E-03  0.951E-02    0.23       1.0  T
   3    -84.3604980 -0.981175E-03  0.236E-02    0.16       1.0  T
   4    -84.3605667 -0.686900E-04  0.186E-03    0.15       8.3  T
   5    -84.3605668 -0.138231E-06  0.895E-04    0.15      17.2  T
   6    -84.3605667  0.122101E-06  0.101E-03    0.15      15.3  T
   7    -84.3605668 -0.123447E-06  0.721E-05    0.15     213.9  T
   8    -84.3605668 -0.509715E-09  0.154E-05    0.15    1000.4  T
     SCC iter.                  ...        0 min,  0.020 sec
     gradient                   ...        0 min,  0.044 sec
 * total energy  :   -83.6274344 Eh     change       -0.8231341E-04 Eh
   gradient norm :     0.0028772 Eh/α   predicted    -0.5811572E-04 ( -29.40%)
   displ. norm   :     0.1758574 α      lambda       -0.1205857E-03
   maximum displ.:     0.0578010 α      in ANC's #1, #5, #20, ...

........................................................................
.............................. CYCLE   46 ..............................
........................................................................
   1    -84.3598286 -0.843598E+02  0.442E-02    0.13       0.0  T
   2    -84.3587729  0.105563E-02  0.107E-01    0.25       1.0  T
   3    -84.3599830 -0.121003E-02  0.287E-02    0.16       1.0  T
   4    -84.3600864 -0.103442E-03  0.229E-03    0.15       6.7  T
   5    -84.3600860  0.446611E-06  0.248E-03    0.15       6.2  T
   6    -84.3600863 -0.321110E-06  0.171E-03    0.15       9.0  T
   7    -84.3600867 -0.361600E-06  0.231E-04    0.15      66.8  T
   8    -84.3600867 -0.634398E-08  0.302E-05    0.15     510.6  T
   9    -84.3600867 -0.875389E-11  0.215E-05    0.15     718.1  T
     SCC iter.                  ...        0 min,  0.030 sec
     gradient                   ...        0 min,  0.078 sec
 * total energy  :   -83.6275166 Eh     change       -0.8223794E-04 Eh
   gradient norm :     0.0085978 Eh/α   predicted    -0.6215789E-04 ( -24.42%)
   displ. norm   :     0.1536260 α      lambda       -0.1078625E-03
   maximum displ.:     0.0578645 α      in ANC's #1, #18, #5, ...

........................................................................
.............................. CYCLE   47 ..............................
........................................................................
   1    -84.3587507 -0.843588E+02  0.205E-02    0.14       0.0  T
   2    -84.3582828  0.467968E-03  0.648E-02    0.19       1.0  T
   3    -84.3587985 -0.515699E-03  0.516E-03    0.15       3.0  T
   4    -84.3587993 -0.824557E-06  0.441E-03    0.14       3.5  T
   5    -84.3588015 -0.220224E-05  0.746E-04    0.15      20.7  T
   6    -84.3588015 -0.309394E-07  0.399E-04    0.15      38.7  T
   7    -84.3588015 -0.190954E-07  0.749E-05    0.15     205.9  T
   8    -84.3588015 -0.598220E-09  0.183E-05    0.15     842.1  T
     SCC iter.                  ...        0 min,  0.019 sec
     gradient                   ...        0 min,  0.043 sec
 * total energy  :   -83.6275934 Eh     change       -0.7681836E-04 Eh
   gradient norm :     0.0124436 Eh/α   predicted    -0.5522477E-04 ( -28.11%)
   displ. norm   :     0.1996099 α      lambda       -0.2572144E-03
   maximum displ.:     0.0891515 α      in ANC's #1, #18, #5, ...

........................................................................
.............................. CYCLE   48 ..............................
........................................................................
   1    -84.3567725 -0.843568E+02  0.993E-03    0.15       0.0  T
   2    -84.3567576  0.148593E-04  0.134E-02    0.14       1.2  T
   3    -84.3567590 -0.139187E-05  0.123E-02    0.15       1.3  T
   4    -84.3567775 -0.184633E-04  0.282E-03    0.15       5.5  T
   5    -84.3567780 -0.493056E-06  0.644E-04    0.15      24.0  T
   6    -84.3567780  0.974310E-09  0.251E-04    0.15      61.6  T
   7    -84.3567780 -0.567518E-08  0.390E-05    0.15     395.5  T
   8    -84.3567780 -0.402594E-10  0.132E-05    0.15    1166.4  T
     SCC iter.                  ...        0 min,  0.019 sec
     gradient                   ...        0 min,  0.049 sec
 * total energy  :   -83.6277699 Eh     change       -0.1764709E-03 Eh
   gradient norm :     0.0099560 Eh/α   predicted    -0.1337327E-03 ( -24.22%)
   displ. norm   :     0.1614201 α      lambda       -0.1740328E-03
   maximum displ.:     0.0850025 α      in ANC's #1, #18, #19, ...

........................................................................
.............................. CYCLE   49 ..............................
........................................................................
   1    -84.3567142 -0.843567E+02  0.127E-02    0.15       0.0  T
   2    -84.3562461  0.468085E-03  0.611E-02    0.12       1.0  T
   3    -84.3567340 -0.487942E-03  0.229E-03    0.15       6.7  T
   4    -84.3567342 -0.183595E-06  0.123E-03    0.15      12.6  T
   5    -84.3567343 -0.673953E-07  0.460E-04    0.15      33.6  T
   6    -84.3567343 -0.929320E-08  0.115E-04    0.15     134.7  T
   7    -84.3567343 -0.234849E-09  0.292E-05    0.15     528.9  T
     SCC iter.                  ...        0 min,  0.017 sec
     gradient                   ...        0 min,  0.043 sec
 * total energy  :   -83.6279067 Eh     change       -0.1367933E-03 Eh
   gradient norm :     0.0072405 Eh/α   predicted    -0.8928571E-04 ( -34.73%)
   displ. norm   :     0.3852294 α      lambda       -0.2850073E-03
   maximum displ.:     0.2041112 α      in ANC's #1, #18, #5, ...

........................................................................
.............................. CYCLE   50 ..............................
........................................................................
   1    -84.3541206 -0.843541E+02  0.195E-02    0.15       0.0  T
   2    -84.3539316  0.188996E-03  0.400E-02    0.13       1.0  T
   3    -84.3541093 -0.177722E-03  0.161E-02    0.16       1.0  T
   4    -84.3541314 -0.220647E-04  0.552E-03    0.15       2.8  T
   5    -84.3541337 -0.225848E-05  0.112E-03    0.15      13.8  T
   6    -84.3541337 -0.624990E-07  0.310E-04    0.15      49.8  T
   7    -84.3541337 -0.473906E-08  0.904E-05    0.15     170.7  T
   8    -84.3541337 -0.351392E-09  0.451E-05    0.15     342.2  T
     SCC iter.                  ...        0 min,  0.028 sec
     gradient                   ...        0 min,  0.081 sec
 * total energy  :   -83.6279107 Eh     change       -0.4006551E-05 Eh
   gradient norm :     0.0233614 Eh/α   predicted    -0.1637711E-03 (3987.58%)
   displ. norm   :     0.1093856 α      lambda       -0.7598729E-03
   maximum displ.:     0.0675604 α      in ANC's #1, #3, #27, ...

........................................................................
.............................. CYCLE   51 ..............................
........................................................................
   1    -84.3613568 -0.843614E+02  0.381E-02    0.17       0.0  T
   2    -84.3577694  0.358745E-02  0.167E-01    0.10       1.0  T
   3    -84.3614011 -0.363171E-02  0.248E-02    0.16       1.0  T
   4    -84.3614486 -0.475549E-04  0.960E-03    0.16       1.6  T
   5    -84.3614572 -0.850798E-05  0.246E-03    0.15       6.3  T
   6    -84.3614577 -0.588248E-06  0.312E-04    0.15      49.5  T
   7    -84.3614577 -0.361496E-08  0.963E-05    0.15     160.2  T
   8    -84.3614577 -0.141071E-09  0.648E-05    0.15     238.0  T
     SCC iter.                  ...        0 min,  0.028 sec
     gradient                   ...        0 min,  0.125 sec
 * total energy  :   -83.6281885 Eh     change       -0.2777854E-03 Eh
   gradient norm :     0.0100623 Eh/α   predicted    -0.3844831E-03 (  38.41%)
   displ. norm   :     0.1649148 α      lambda       -0.2091392E-03
   maximum displ.:     0.1037816 α      in ANC's #1, #5, #19, ...

........................................................................
.............................. CYCLE   52 ..............................
........................................................................
   1    -84.3600775 -0.843601E+02  0.125E-02    0.15       0.0  T
   2    -84.3599456  0.131923E-03  0.342E-02    0.17       1.0  T
   3    -84.3600902 -0.144566E-03  0.354E-03    0.15       4.4  T
   4    -84.3600902  0.513270E-08  0.169E-03    0.15       9.1  T
   5    -84.3600903 -0.940381E-07  0.758E-04    0.15      20.4  T
   6    -84.3600903 -0.397063E-07  0.298E-04    0.15      51.8  T
   7    -84.3600903 -0.103849E-07  0.281E-05    0.15     548.9  T
   8    -84.3600903  0.751754E-11  0.168E-05    0.15     917.9  T
     SCC iter.                  ...        0 min,  0.028 sec
     gradient                   ...        0 min,  0.048 sec
 * total energy  :   -83.6283570 Eh     change       -0.1685212E-03 Eh
   gradient norm :     0.0084454 Eh/α   predicted    -0.1074169E-03 ( -36.26%)
   displ. norm   :     0.3308913 α      lambda       -0.3117410E-03
   maximum displ.:     0.2269775 α      in ANC's #1, #5, #25, ...

........................................................................
.............................. CYCLE   53 ..............................
........................................................................
   1    -84.3572264 -0.843572E+02  0.357E-02    0.13       0.0  T
   2    -84.3564824  0.744012E-03  0.863E-02    0.22       1.0  T
   3    -84.3573442 -0.861774E-03  0.136E-02    0.16       1.1  T
   4    -84.3573294  0.147679E-04  0.165E-02    0.14       1.0  T
   5    -84.3573625 -0.330247E-04  0.145E-03    0.15      10.7  T
   6    -84.3573625 -0.731292E-07  0.465E-04    0.15      33.2  T
   7    -84.3573625  0.722891E-08  0.390E-04    0.15      39.6  T
   8    -84.3573625 -0.164867E-07  0.136E-04    0.15     113.5  T
   9    -84.3573626 -0.237281E-08  0.181E-05    0.15     852.9  T
     SCC iter.                  ...        0 min,  0.022 sec
     gradient                   ...        0 min,  0.059 sec
 * total energy  :   -83.6284169 Eh     change       -0.5994169E-04 Eh
   gradient norm :     0.0218055 Eh/α   predicted    -0.1729401E-03 ( 188.51%)
   displ. norm   :     0.1522442 α      lambda       -0.3686563E-03
   maximum displ.:     0.0694076 α      in ANC's #18, #1, #19, ...

........................................................................
.............................. CYCLE   54 ..............................
........................................................................
   1    -84.3595778 -0.843596E+02  0.294E-02    0.14       0.0  T
   2    -84.3589303  0.647453E-03  0.780E-02    0.20       1.0  T
   3    -84.3596608 -0.730488E-03  0.998E-03    0.15       1.5  T
   4    -84.3596471  0.137295E-04  0.134E-02    0.14       1.2  T
   5    -84.3596680 -0.209438E-04  0.303E-03    0.15       5.1  T
   6    -84.3596690 -0.985744E-06  0.740E-04    0.15      20.8  T
   7    -84.3596691 -0.628907E-07  0.122E-04    0.15     126.7  T
   8    -84.3596691 -0.930228E-09  0.532E-05    0.15     290.0  T
     SCC iter.                  ...        0 min,  0.027 sec
     gradient                   ...        0 min,  0.062 sec
 * total energy  :   -83.6285873 Eh     change       -0.1703955E-03 Eh
   gradient norm :     0.0076627 Eh/α   predicted    -0.1886029E-03 (  10.69%)
   displ. norm   :     0.1046341 α      lambda       -0.1124833E-03
   maximum displ.:     0.0824411 α      in ANC's #1, #3, #19, ...

........................................................................
.............................. CYCLE   55 ..............................
........................................................................
   1    -84.3607165 -0.843607E+02  0.353E-03    0.15       0.0  T
   2    -84.3607165 -0.609310E-08  0.280E-03    0.15       5.5  T
   3    -84.3607146  0.191596E-05  0.444E-03    0.15       3.5  T
[...]
C5-C3-O2=115.60                C5-C3-O4=127.09                N6-C5-C3=114.59                C23-C5-C3=128.80               
C23-C5-N6=116.35               C7-N6-C5=118.91                C8-C7-N6=117.46                N20-C7-N6=126.83               
N20-C7-C8=115.45               C9-C8-C7=110.32                C10-C8-C7=109.05               C10-C8-C9=110.40               
N11-C8-C7=106.95               N11-C8-C9=110.33               N11-C8-C10=109.73              H29-C9-C8=108.64               
H30-C9-C8=111.31               H30-C9-H29=109.15              H31-C9-C8=110.05               H31-C9-H29=108.64              
H31-C9-H30=109.01              H32-C10-C8=111.09              H33-C10-C8=108.99              H33-C10-H32=108.91             
H34-C10-C8=110.03              H34-C10-H32=108.94             H34-C10-H33=108.84             
 
 selected dihedral angles (degree)
 ---------------------------------
C3-O2-C1-H26=178.92           C3-O2-C1-H27=298.37           C3-O2-C1-H28= 59.52           O4-C3-O2-C1=  0.10            
C5-C3-O2-C1=179.02            N6-C5-C3-O2=178.63            N6-C5-C3-O4=357.43            C23-C5-C3-O2=  4.73           
C23-C5-C3-O4=183.53           C7-N6-C5-C3=167.12            C7-N6-C5-C23=341.81           C8-C7-N6-C5=175.68            
N20-C7-N6-C5=349.62           C9-C8-C7-N6= 36.42            C9-C8-C7-N20=221.80           C10-C8-C7-N6=275.02           
C10-C8-C7-N20=100.39          N11-C8-C7-N6=156.43           N11-C8-C7-N20=341.80          H29-C9-C8-C7=307.28           
H29-C9-C8-C10= 67.88          H29-C9-C8-N11=189.33          H30-C9-C8-C7=187.06           H30-C9-C8-C10=307.66          
H30-C9-C8-N11= 69.11          H31-C9-C8-C7= 66.10           H31-C9-C8-C10=186.70          H31-C9-C8-N11=308.15          
H32-C10-C8-C7=179.08          H32-C10-C8-C9= 57.72          H32-C10-C8-N11=295.91         H33-C10-C8-C7= 59.07          
H33-C10-C8-C9=297.72          H33-C10-C8-N11=175.91         H34-C10-C8-C7=299.80          H34-C10-C8-C9=178.44          
H34-C10-C8-N11= 56.64         
           -------------------------------------------------
          |                Final Singlepoint                |
           -------------------------------------------------

          ...................................................
          :                      SETUP                      :
          :.................................................:
          :  # basis functions                 134          :
          :  # atomic orbitals                 134          :
          :  # shells                           84          :
          :  # electrons                       136          :
          :  # halogen bonds                     0          :
          :  max. iterations                   250          :
          :  Hamiltonian                  GFN1-xTB          :
          :  restarted?                      false          :
          :  GBSA solvation                   true          :
          :  PC potential                    false          :
          :  electronic temp.          300.0000000     K    :
          :  accuracy                    1.0000000          :
          :  -> integral cutoff          0.2500000E+02      :
          :  -> integral neglect         0.1000000E-07      :
          :  -> SCF convergence          0.1000000E-05 Eh   :
          :  -> wf. convergence          0.2000000E-04 e    :
          :  Broyden damping             0.4000000          :
          ...................................................

 iter      E             dE          RMSdq      gap      omega  full diag
   1    -84.3623495 -0.843623E+02  0.957E-06    0.15       0.0  T
   2    -84.3623495  0.108258E-09  0.296E-05    0.15     521.9  T
   3    -84.3623495 -0.110504E-09  0.651E-06    0.15    2370.5  T

   *** convergence criteria satisfied after 3 iterations ***

         #    Occupation            Energy/Eh            Energy/eV
      -------------------------------------------------------------
         1        2.0000           -0.8422140             -22.9178
       ...           ...                  ...                  ...
        62        2.0000           -0.4082605             -11.1093
        63        2.0000           -0.3917876             -10.6611
        64        2.0000           -0.3798135             -10.3353
        65        2.0000           -0.3559181              -9.6850
        66        2.0000           -0.3513097              -9.5596
        67        2.0000           -0.3267578              -8.8915
        68        1.8867           -0.2891496              -7.8682 (HOMO)
        69        0.1133           -0.2838050              -7.7227 (LUMO)
        70                         -0.2390511              -6.5049
        71                         -0.1975769              -5.3763
        72                         -0.1694574              -4.6112
        73                         -0.1354044              -3.6845
       ...                                ...                  ...
       134                          0.7243731              19.7112
      -------------------------------------------------------------
                  HL-Gap            0.0053446 Eh            0.1454 eV
             Fermi-level           -0.2864773 Eh           -7.7954 eV

 SCC (total)                   0 d,  0 h,  0 min,  0.132 sec
 SCC setup                      ...        0 min,  0.002 sec (  1.471%)
 Dispersion                     ...        0 min,  0.000 sec (  0.250%)
 classical contributions        ...        0 min,  0.000 sec (  0.082%)
 integral evaluation            ...        0 min,  0.035 sec ( 26.449%)
 iterations                     ...        0 min,  0.012 sec (  9.366%)
 molecular gradient             ...        0 min,  0.081 sec ( 61.635%)
 printout                       ...        0 min,  0.001 sec (  0.701%)

         :::::::::::::::::::::::::::::::::::::::::::::::::::::
         ::                     SUMMARY                     ::
         :::::::::::::::::::::::::::::::::::::::::::::::::::::
         :: total energy             -83.630145627158 Eh    ::
         :: total w/o Gsasa/hb       -83.608364005397 Eh    ::
         :: gradient norm              0.000241704125 Eh/a0 ::
         :: HOMO-LUMO gap              0.145433808032 eV    ::
         ::.................................................::
         :: SCC energy               -84.362349476492 Eh    ::
         :: -> electrostatic           0.697777569876 Eh    ::
         :: -> Gsolv                  -0.276718355383 Eh    ::
         ::    -> Gelec               -0.254936733622 Eh    ::
         ::    -> Gsasa               -0.024605723137 Eh    ::
         ::    -> Ghb                 -0.004800177628 Eh    ::
         ::    -> Gshift               0.007624279005 Eh    ::
         :: repulsion energy           0.757969261437 Eh    ::
         :: dispersion energy         -0.025765412102 Eh    ::
         :: halogen bond corr.         0.000000000000 Eh    ::
         :: add. restraining           0.000000000000 Eh    ::
         :: total charge              -2.000000000000 e     ::
         :::::::::::::::::::::::::::::::::::::::::::::::::::::

           -------------------------------------------------
          |                Property Printout                |
           -------------------------------------------------

    * Orbital Energies and Occupations

         #    Occupation            Energy/Eh            Energy/eV
      -------------------------------------------------------------
         1        2.0000           -0.8422140             -22.9178
       ...           ...                  ...                  ...
        56        2.0000           -0.4358881             -11.8611
        57        2.0000           -0.4316687             -11.7463
        58        2.0000           -0.4256402             -11.5823
        59        2.0000           -0.4221843             -11.4882
        60        2.0000           -0.4208823             -11.4528
        61        2.0000           -0.4154217             -11.3042
        62        2.0000           -0.4082605             -11.1093
        63        2.0000           -0.3917876             -10.6611
        64        2.0000           -0.3798135             -10.3353
        65        2.0000           -0.3559181              -9.6850
        66        2.0000           -0.3513097              -9.5596
        67        2.0000           -0.3267578              -8.8915
        68        1.8867           -0.2891496              -7.8682 (HOMO)
        69        0.1133           -0.2838050              -7.7227 (LUMO)
        70                         -0.2390511              -6.5049
        71                         -0.1975769              -5.3763
        72                         -0.1694574              -4.6112
        73                         -0.1354044              -3.6845
        74                         -0.1319621              -3.5909
        75                         -0.1139368              -3.1004
        76                         -0.1013686              -2.7584
        77                         -0.0947185              -2.5774
        78                         -0.0906620              -2.4670
        79                         -0.0685030              -1.8641
       ...                                ...                  ...
       134                          0.7243731              19.7112
      -------------------------------------------------------------
                  HL-Gap            0.0053446 Eh            0.1454 eV
             Fermi-level           -0.2864773 Eh           -7.7954 eV

  Mulliken/CM5 charges         n(s)   n(p)   n(d)
     1C     0.18627  0.06831   0.961  2.852  0.000
     2O    -0.49061 -0.57918   1.704  4.787  0.000
     3C     0.47240  0.53067   0.977  2.550  0.000
     4O    -0.70771 -0.74969   1.748  4.960  0.000
     5C    -0.05931  0.01123   1.031  3.028  0.000
     6N    -0.43849 -0.61993   1.549  3.889  0.000
     7C     0.24128  0.39540   1.001  2.757  0.000
     8C     0.15113  0.19273   1.064  2.785  0.000
     9C    -0.08770 -0.22557   1.010  3.077  0.000
    10C    -0.09058 -0.22959   1.013  3.078  0.000
    11N    -0.32225 -0.66833   1.434  3.888  0.000
    12C     0.44198  0.55240   0.971  2.587  0.000
    13O    -0.62690 -0.66906   1.734  4.893  0.000
    14C     0.31833  0.44176   1.015  2.667  0.000
    15N    -0.26000 -0.36181   1.572  3.688  0.000
    16N    -0.28847 -0.39620   1.568  3.720  0.000
    17C     0.38068  0.48944   1.002  2.617  0.000
    18C    -0.10892 -0.24634   1.010  3.099  0.000
    19O    -0.36490 -0.42016   1.698  4.666  0.000
    20N    -0.55026 -0.73143   1.541  4.009  0.000
    21C     0.43632  0.54828   1.002  2.562  0.000
    22O    -0.69892 -0.73788   1.753  4.946  0.000
    23C     0.19963  0.21546   1.057  2.744  0.000
    24C    -0.08810 -0.22870   1.010  3.079  0.000
    25O    -0.62613 -0.82231   1.715  4.911  0.000
    26H     0.01111  0.07110   0.989  0.000  0.000
    27H     0.01152  0.07269   0.988  0.000  0.000
    28H     0.01313  0.07465   0.987  0.000  0.000
    29H     0.02509  0.08423   0.975  0.000  0.000
    30H     0.02442  0.08316   0.976  0.000  0.000
    31H     0.01923  0.07635   0.981  0.000  0.000
    32H     0.02745  0.08602   0.973  0.000  0.000
    33H     0.02458  0.07999   0.975  0.000  0.000
    34H     0.02314  0.07989   0.977  0.000  0.000
    35H     0.23432  0.44763   0.766  0.000  0.000
    36H     0.07048  0.12489   0.930  0.000  0.000
    37H     0.05974  0.11571   0.940  0.000  0.000
    38H     0.07076  0.12516   0.929  0.000  0.000
    39H     0.01222  0.07272   0.988  0.000  0.000
    40H     0.01596  0.07580   0.984  0.000  0.000
    41H     0.00898  0.06644   0.991  0.000  0.000
    42H     0.32908  0.50410   0.671  0.000  0.000

Wiberg/Mayer (AO) data.
largest (>0.10) Wiberg bond orders for each atom

 ---------------------------------------------------------------------------
     #   Z sym  total        # sym  WBO       # sym  WBO       # sym  WBO
 ---------------------------------------------------------------------------
     1   6 C    3.921 --    26 H    0.987    27 H    0.980    28 H    0.980
                             2 O    0.952
     2   8 O    2.065 --     1 C    0.952     3 C    0.914
     3   6 C    3.846 --     4 O    1.434     5 C    1.368     2 O    0.914
     4   8 O    1.729 --     3 C    1.434     5 C    0.119
     5   6 C    3.810 --     3 C    1.368     6 N    1.132    23 C    0.988
                             4 O    0.119
     6   7 N    3.005 --     7 C    1.572     5 C    1.132    20 N    0.103
     7   6 C    3.927 --     6 N    1.572    20 N    1.189     8 C    0.960
     8   6 C    3.918 --     9 C    0.991    10 C    0.981     7 C    0.960
                            11 N    0.916
     9   6 C    3.994 --     8 C    0.991    31 H    0.987    30 H    0.985
                            29 H    0.982
    10   6 C    3.990 --    34 H    0.987    33 H    0.987    32 H    0.985
                             8 C    0.981
    11   7 N    3.372 --    12 C    1.305     8 C    0.916    35 H    0.871
                            13 O    0.180
    12   6 C    3.896 --    13 O    1.513    11 N    1.305    14 C    1.003
    13   8 O    1.820 --    12 C    1.513    11 N    0.180
    14   6 C    3.814 --    15 N    1.582    19 O    1.033    12 C    1.003
    15   7 N    2.933 --    14 C    1.582    16 N    1.188
    16   7 N    2.979 --    17 C    1.621    15 N    1.188
    17   6 C    3.860 --    16 N    1.621    19 O    1.069    18 C    1.028
    18   6 C    3.990 --    17 C    1.028    37 H    0.984    38 H    0.966
                            36 H    0.966
    19   8 O    2.287 --    17 C    1.069    14 C    1.033
    20   7 N    2.971 --    21 C    1.375     7 C    1.189    22 O    0.135
                             6 N    0.103
    21   6 C    3.899 --    22 O    1.477    20 N    1.375    23 C    0.900
    22   8 O    1.761 --    21 C    1.477    20 N    0.135
    23   6 C    3.891 --    24 C    0.995     5 C    0.988    21 C    0.900
                            25 O    0.887
    24   6 C    3.996 --    23 C    0.995    41 H    0.986    39 H    0.985
                            40 H    0.983
    25   8 O    1.858 --    23 C    0.887    42 H    0.883
    26   1 H    1.020 --     1 C    0.987
    27   1 H    1.022 --     1 C    0.980
    28   1 H    1.023 --     1 C    0.980
    29   1 H    1.029 --     9 C    0.982
    30   1 H    1.016 --     9 C    0.985
    31   1 H    1.010 --     9 C    0.987
    32   1 H    1.014 --    10 C    0.985
    33   1 H    1.013 --    10 C    0.987
    34   1 H    1.009 --    10 C    0.987
    35   1 H    0.988 --    11 N    0.871
    36   1 H    0.999 --    18 C    0.966
    37   1 H    1.001 --    18 C    0.984
    38   1 H    0.998 --    18 C    0.966
    39   1 H    1.024 --    24 C    0.985
    40   1 H    1.028 --    24 C    0.983
    41   1 H    1.019 --    24 C    0.986
    42   1 H    0.910 --    25 O    0.883
 ---------------------------------------------------------------------------

Topologies differ in total number of bonds
Writing topology from bond orders to xtbtopo.mol

 dipole moment from electron density (au)
     X       Y       Z   
   1.0718   0.6914   2.5771  total (Debye):    7.309

           -------------------------------------------------
          |                Geometry Summary                 |
           -------------------------------------------------

      molecular mass/u    :      351.3152409
   center of mass at/Å    :        0.3352636      -0.0709246      -0.2020787
  moments of inertia/u·Å² :        0.1149262E+04   0.4729203E+04   0.5398250E+04
rotational constants/cm⁻¹ :        0.1466822E-01   0.3564582E-02   0.3122796E-02

 * 33 selected distances

     #   Z          #   Z                                           value/Å
     1   6 C        2   8 O                                       1.4109937
     3   6 C        5   6 C                                       1.3959654
     6   7 N        7   6 C                                       1.2942327
     8   6 C        9   6 C                                       1.5337987
     8   6 C       10   6 C                                       1.5380018 (max)
     8   6 C       11   7 N                                       1.4647841
    11   7 N       12   6 C                                       1.3348777
    12   6 C       13   8 O                                       1.2342578
    14   6 C       15   7 N                                       1.3060450
    16   7 N       17   6 C                                       1.2956648
    17   6 C       18   6 C                                       1.4807519
    14   6 C       19   8 O                                       1.3573059
    17   6 C       19   8 O                                       1.3448647
     7   6 C       20   7 N                                       1.3661449
    20   7 N       21   6 C                                       1.3279118
    23   6 C       24   6 C                                       1.5334505
     1   6 C       26   1 H                                       1.0915729
     1   6 C       27   1 H                                       1.0984613
     1   6 C       28   1 H                                       1.0979792
     9   6 C       29   1 H                                       1.0907859
     9   6 C       30   1 H                                       1.0891212
     9   6 C       31   1 H                                       1.0901646
    10   6 C       32   1 H                                       1.0895944
    10   6 C       33   1 H                                       1.0895288
    10   6 C       34   1 H                                       1.0900027
    11   7 N       35   1 H                                       1.0222989
    18   6 C       36   1 H                                       1.0899951
    18   6 C       37   1 H                                       1.0866669
    18   6 C       38   1 H                                       1.0899680
    24   6 C       39   1 H                                       1.0878371
    24   6 C       40   1 H                                       1.0915988
    24   6 C       41   1 H                                       1.0894530
    25   8 O       42   1 H                                       0.9624372 (min)

 * 6 distinct bonds (by element types)

   Z      Z             #   av. dist./Å        max./Å        min./Å
   1 H    6 C          15     1.0908487     1.0984613     1.0866669
   6 C    6 C           5     1.4963936     1.5380018     1.3959654
   1 H    7 N           1     1.0222989     1.0222989     1.0222989
   6 C    7 N           7     1.3413801     1.4647841     1.2942327
   1 H    8 O           1     0.9624372     0.9624372     0.9624372
   6 C    8 O           4     1.3368555     1.4109937     1.2342578


optimized geometry written to: xtbopt.xyz


           -------------------------------------------------
          | TOTAL ENERGY              -83.630145627158 Eh   |
          | GRADIENT NORM               0.000241704125 Eh/α |
          | HOMO-LUMO GAP               0.145433808032 eV   |
           -------------------------------------------------

------------------------------------------------------------------------
 * finished run on 2023/06/20 at 18:04:20.918     
------------------------------------------------------------------------
 total:
 * wall-time:     0 d,  0 h,  0 min, 10.510 sec
 *  cpu-time:     0 d,  0 h,  0 min, 10.277 sec
 * ratio c/w:     0.978 speedup
 SCF:
 * wall-time:     0 d,  0 h,  0 min,  0.237 sec
 *  cpu-time:     0 d,  0 h,  0 min,  0.198 sec
 * ratio c/w:     0.838 speedup
 ANC optimizer:
 * wall-time:     0 d,  0 h,  0 min, 10.194 sec
 *  cpu-time:     0 d,  0 h,  0 min, 10.027 sec
 * ratio c/w:     0.984 speedup

