47
 energy: -80.227304820439 gnorm: 0.000503350139 xtb: 6.5.1 (579679a)
C           -3.76426552887399       -1.61948550933081       -0.46366575078274
N           -2.44219227173397       -1.05379940772732       -0.72758478869359
C           -1.42838745023883       -1.94163310166947       -0.76989771103337
O           -1.60155053070171       -3.15217159886722       -0.56835079618172
C           -0.02485392512930       -1.44013857579499       -1.13299977787987
C            0.14250651609786       -1.60810752534073       -2.66478375006546
O            0.89392157437489       -2.30991241742462       -0.47145755558632
C            0.15033782488441        0.00221213123603       -0.70882363448403
C            1.39761834944293        0.66794438112995       -0.62773914135827
O            1.54209647727631        1.87693695276627       -0.33768530270162
N            2.54762996910556       -0.08945419420256       -0.97280182082125
C            3.82964802774726        0.43530220602881       -0.51523503700033
C            4.00361954583539        0.20336463066639        0.97151356115821
C            3.57116695444177        1.15640422649121        1.89244891651344
C            3.68181758609164        0.92719860070370        3.25656766893352
C            4.22851586614967       -0.27127487356565        3.67721028022591
F            4.34010507240997       -0.50237691912980        5.00153372441893
C            4.66994587799518       -1.24026854873094        2.79579618374299
C            4.55024149822788       -0.99200853586620        1.43478952763529
N           -0.96058647679032        0.77569825185346       -0.56492122505426
C           -2.17123880833200        0.35117807250653       -0.62972340448937
C           -3.29397794465166        1.37324449610554       -0.52770396821857
C           -2.70629113724232        2.77201928208316       -0.79350565144743
C           -3.93547240601799        1.36873570274370        0.87053551408452
N           -4.34061593083044        1.09552276775021       -1.51977401923057
H           -3.82028809788672       -2.60106910510202       -0.93692209255263
H           -3.92541541500492       -1.73998001150851        0.61062194606883
H           -4.53663936117828       -0.97899890541518       -0.88329983583884
H           -0.59700023473082       -0.99976988165399       -3.18298171981168
H            1.14059360163101       -1.28668356469150       -2.95907635060815
H            0.00722153383778       -2.65276412232475       -2.94170579672159
H            0.45733399954317       -3.17355894913021       -0.37540788035729
H            2.46674115853192       -1.08124914810478       -0.78141310083649
H            3.87414601485680        1.50549629730385       -0.74408752941862
H            4.62269089769343       -0.07510698260905       -1.07064728782866
H            3.14165674875496        2.08769485487123        1.53844227141458
H            3.35552654402826        1.66089785518045        3.98242296569249
H            5.09836008995782       -2.16209113158323        3.16615369651476
H            4.89387937863137       -1.73900346160978        0.72818511347964
H           -3.49864793796955        3.51818863383196       -0.75467739332098
H           -2.24324449237489        2.80206897144815       -1.77961467215081
H           -1.95034561793734        3.01467694320330       -0.04605013615287
H           -4.46830240982591        0.43814807831337        1.05601895764277
H           -3.16621545205166        1.49148433451244        1.63321341076630
H           -4.64708658523781        2.18994180469401        0.95613904587229
H           -3.97880532712085        1.25762336067093       -2.45104633242342
H           -5.10589776568048        1.73892363528856       -1.37858632110923
