      -----------------------------------------------------------      
     |                   =====================                   |     
     |                           x T B                           |     
     |                   =====================                   |     
     |                         S. Grimme                         |     
     |          Mulliken Center for Theoretical Chemistry        |     
     |                    University of Bonn                     |     
      -----------------------------------------------------------      

   * xtb version 6.5.1 (579679a) compiled by 'ehlert@majestix' on 2022-07-11

   xtb is free software: you can redistribute it and/or modify it under
   the terms of the GNU Lesser General Public License as published by
   the Free Software Foundation, either version 3 of the License, or
   (at your option) any later version.
   
   xtb is distributed in the hope that it will be useful,
   but WITHOUT ANY WARRANTY; without even the implied warranty of
   MERCHANTABILITY or FITNESS FOR A PARTICULAR PURPOSE.  See the
   GNU Lesser General Public License for more details.
   
   Cite this work as:
   * C. Bannwarth, E. Caldeweyher, S. Ehlert, A. Hansen, P. Pracht,
     J. Seibert, S. Spicher, S. Grimme, WIREs Comput. Mol. Sci., 2020, 11,
     e01493. DOI: 10.1002/wcms.1493
   
   for GFN2-xTB:
   * C. Bannwarth, S. Ehlert and S. Grimme., J. Chem. Theory Comput., 2019,
     15, 1652-1671. DOI: 10.1021/acs.jctc.8b01176
   for GFN1-xTB:
   * S. Grimme, C. Bannwarth, P. Shushkov, J. Chem. Theory Comput., 2017,
     13, 1989-2009. DOI: 10.1021/acs.jctc.7b00118
   for GFN0-xTB:
   * P. Pracht, E. Caldeweyher, S. Ehlert, S. Grimme, ChemRxiv, 2019, preprint.
     DOI: 10.26434/chemrxiv.8326202.v1
   for GFN-FF:
   * S. Spicher and S. Grimme, Angew. Chem. Int. Ed., 2020, 59, 15665-15673.
     DOI: 10.1002/anie.202004239
   
   for ALPB and GBSA implicit solvation:
   * S. Ehlert, M. Stahn, S. Spicher, S. Grimme, J. Chem. Theory Comput.,
     2021, 17, 4250-4261. DOI: 10.1021/acs.jctc.1c00471
   
   for DFT-D4:
   * E. Caldeweyher, C. Bannwarth and S. Grimme, J. Chem. Phys., 2017,
     147, 034112. DOI: 10.1063/1.4993215
   * E. Caldeweyher, S. Ehlert, A. Hansen, H. Neugebauer, S. Spicher,
     C. Bannwarth and S. Grimme, J. Chem. Phys., 2019, 150, 154122.
     DOI: 10.1063/1.5090222
   * E. Caldeweyher, J.-M. Mewes, S. Ehlert and S. Grimme, Phys. Chem. Chem. Phys.
     2020, 22, 8499-8512. DOI: 10.1039/D0CP00502A
   
   for sTDA-xTB:
   * S. Grimme and C. Bannwarth, J. Chem. Phys., 2016, 145, 054103.
     DOI: 10.1063/1.4959605
   
   in the mass-spec context:
   * V. Asgeirsson, C. Bauer and S. Grimme, Chem. Sci., 2017, 8, 4879.
     DOI: 10.1039/c7sc00601b
   * J. Koopman and S. Grimme, ACS Omega 2019, 4, 12, 15120-15133.
     DOI: 10.1021/acsomega.9b02011
   
   for metadynamics refer to:
   * S. Grimme, J. Chem. Theory Comput., 2019, 155, 2847-2862
     DOI: 10.1021/acs.jctc.9b00143
   
   for SPH calculations refer to:
   * S. Spicher and S. Grimme, J. Chem. Theory Comput., 2021, 17, 1701-1714
     DOI: 10.1021/acs.jctc.0c01306
   
   with help from (in alphabetical order)
   P. Atkinson, C. Bannwarth, F. Bohle, G. Brandenburg, E. Caldeweyher
   M. Checinski, S. Dohm, S. Ehlert, S. Ehrlich, I. Gerasimov, C. Hölzer
   A. Katbashev, J. Koopman, C. Lavigne, S. Lehtola, F. März, M. Müller,
   F. Musil, H. Neugebauer, J. Pisarek, C. Plett, P. Pracht, F. Pultar,
   J. Seibert, P. Shushkov, S. Spicher, M. Stahn, M. Steiner, T. Strunk,
   J. Stückrath, T. Rose, and J. Unsleber
   
 * started run on 2023/06/21 at 17:02:20.393     

           -------------------------------------------------
          |                Calculation Setup                |
           -------------------------------------------------

          program call               : /lustre/hpc/kemi/ree/PhD/git/ReactivityQM/dep/xtb-6.5.1/bin/xtb --gfn 1 /lustre/hpc/kemi/ree/PhD/git/ReactivityQM/calculations/R02oxygendeprot/reac01prodE02/conf07/R02oxygendeprot_reac01prodE02_conf07_gfn1.xyz --opt --vfukui --chrg -2 --uhf 0 --alpb DMSO
          hostname                   : node070
          coordinate file            : /lustre/hpc/kemi/ree/PhD/git/ReactivityQM/calculations/R02oxygendeprot/reac01prodE02/conf07/R02oxygendeprot_reac01prodE02_conf07_gfn1.xyz
          omp threads                :                     1

   ID    Z sym.   atoms
    1    6 C      1, 3, 4, 6, 8-11, 13, 15, 18, 19, 22, 24
    2    8 O      2, 5, 14, 20, 23, 25
    3    7 N      7, 12, 16, 17, 21
    4    1 H      26-42

           -------------------------------------------------
          |                 G F N 1 - x T B                 |
           -------------------------------------------------

        Reference                      10.1021/acs.jctc.7b00118
      * Hamiltonian:
        H0-scaling (s, p, d)           1.850000    2.250000    2.000000
        zeta-weighting                 0.000000
      * Dispersion:
        s8                             2.400000
        a1                             0.630000
        a2                             5.000000
        s9                             0.000000
      * Repulsion:
        kExp                           1.500000
        rExp                           1.000000
      * Coulomb:
        alpha                          2.000000
        third order                    atomic
        anisotropic                    false
      * Halogen bond correction:
        rad-scale                      1.300000
        damping                        0.440000

      * Solvation model:               ALPB
        Solvent                        DMSO
        Parameter file                 internal GFN1-xTB/ALPB
        Dielectric constant                4.6680E+01
        Reference state                gsolv [1 M gas/solution]
        Free energy shift                  7.6243E-03 Eh       4.7843E+00 kcal/mol
        Temperature                        2.9815E+02 K
        Density                            1.1000E+00 kg/L
        Solvent mass                       7.8130E+01 g/mol
        Interaction kernel             P16
        Born radius scaling (c1)           1.7672E+00
        Born radii integrator          GBOBC
        Born offset                        0.0000E+00 a0       0.0000E+00 AA
        H-bond correction              true
        Ion screening                  false
        Surface tension                    1.0000E-05 Eh       1.5569E+01 dyn/cm
        Grid points                               230 per atom

          ...................................................
          :                      SETUP                      :
          :.................................................:
          :  # basis functions                 134          :
          :  # atomic orbitals                 134          :
          :  # shells                           84          :
          :  # electrons                       136          :
          :  # halogen bonds                     0          :
          :  max. iterations                   250          :
          :  Hamiltonian                  GFN1-xTB          :
          :  restarted?                      false          :
          :  GBSA solvation                   true          :
          :  PC potential                    false          :
          :  electronic temp.          300.0000000     K    :
          :  accuracy                    1.0000000          :
          :  -> integral cutoff          0.2500000E+02      :
          :  -> integral neglect         0.1000000E-07      :
          :  -> SCF convergence          0.1000000E-05 Eh   :
          :  -> wf. convergence          0.2000000E-04 e    :
          :  Broyden damping             0.4000000          :
          ...................................................

 iter      E             dE          RMSdq      gap      omega  full diag
   1    -83.9898003 -0.839898E+02  0.866E+00    2.54       0.0  T
   2    -84.2975372 -0.307737E+00  0.520E+00    1.06       1.0  T
   3    -83.6003628  0.697174E+00  0.316E+00    0.32       1.0  T
   4    -84.2539182 -0.653555E+00  0.137E+00    2.16       1.0  T
   5    -84.3081603 -0.542422E-01  0.658E-01    1.31       1.0  T
   6    -84.3141763 -0.601598E-02  0.473E-01    1.02       1.0  T
   7    -84.3197607 -0.558442E-02  0.301E-01    0.65       1.0  T
   8    -84.3218446 -0.208386E-02  0.191E-01    0.36       1.0  T
   9    -83.7365717  0.585273E+00  0.234E+00    0.24       1.0  T
  10    -84.3214566 -0.584885E+00  0.204E-01    0.41       1.0  T
  11    -84.3213842  0.724355E-04  0.206E-01    0.42       1.0  T
  12    -84.3219523 -0.568117E-03  0.172E-01    0.33       1.0  T
  13    -84.3224249 -0.472626E-03  0.148E-01    0.27       1.0  T
  14    -84.3225896 -0.164692E-03  0.140E-01    0.25       1.0  T
  15    -84.3224073  0.182295E-03  0.149E-01    0.27       1.0  T
  16    -84.3226671 -0.259799E-03  0.137E-01    0.25       1.0  T
  17    -84.3243312 -0.166408E-02  0.273E-02    0.15       1.0  T
  18    -84.3234908  0.840421E-03  0.954E-02    0.20       1.0  T
  19    -84.3202656  0.322517E-02  0.191E-01    0.10       1.0  T
  20    -84.3229115 -0.264589E-02  0.123E-01    0.23       1.0  T
  21    -84.3241941 -0.128257E-02  0.418E-02    0.13       1.0  T
  22    -84.3243810 -0.186971E-03  0.110E-02    0.15       1.4  T
  23    -84.3243158  0.651966E-04  0.262E-02    0.14       1.0  T
  24    -84.3243923 -0.765004E-04  0.121E-03    0.15      12.8  T
  25    -84.3243774  0.149099E-04  0.117E-02    0.14       1.3  T
  26    -84.3243919 -0.144919E-04  0.233E-03    0.15       6.6  T
  27    -84.3243925 -0.588999E-06  0.184E-04    0.15      83.8  T
  28    -84.3243925 -0.275048E-08  0.859E-05    0.15     179.7  T

   *** convergence criteria satisfied after 28 iterations ***

         #    Occupation            Energy/Eh            Energy/eV
      -------------------------------------------------------------
         1        2.0000           -0.8435103             -22.9531
       ...           ...                  ...                  ...
        62        2.0000           -0.4048071             -11.0154
        63        2.0000           -0.3873111             -10.5393
        64        2.0000           -0.3813386             -10.3768
        65        2.0000           -0.3419723              -9.3055
        66        2.0000           -0.3261462              -8.8749
        67        1.9999           -0.3112027              -8.4683
        68        1.8891           -0.3040516              -8.2737 (HOMO)
        69        0.1110           -0.2986654              -8.1271 (LUMO)
        70                         -0.2474946              -6.7347
        71                         -0.2167369              -5.8977
        72                         -0.1988732              -5.4116
        73                         -0.1827450              -4.9727
       ...                                ...                  ...
       134                          0.8223519              22.3773
      -------------------------------------------------------------
                  HL-Gap            0.0053862 Eh            0.1466 eV
             Fermi-level           -0.3013582 Eh           -8.2004 eV

 SCC (total)                   0 d,  0 h,  0 min,  0.184 sec
 SCC setup                      ...        0 min,  0.001 sec (  0.680%)
 Dispersion                     ...        0 min,  0.000 sec (  0.097%)
 classical contributions        ...        0 min,  0.000 sec (  0.043%)
 integral evaluation            ...        0 min,  0.016 sec (  8.440%)
 iterations                     ...        0 min,  0.109 sec ( 59.119%)
 molecular gradient             ...        0 min,  0.057 sec ( 30.917%)
 printout                       ...        0 min,  0.001 sec (  0.690%)

         :::::::::::::::::::::::::::::::::::::::::::::::::::::
         ::                     SUMMARY                     ::
         :::::::::::::::::::::::::::::::::::::::::::::::::::::
         :: total energy             -83.596097515910 Eh    ::
         :: total w/o Gsasa/hb       -83.577042697804 Eh    ::
         :: gradient norm              0.139083252050 Eh/a0 ::
         :: HOMO-LUMO gap              0.146566684943 eV    ::
         ::.................................................::
         :: SCC energy               -84.324392506409 Eh    ::
         :: -> electrostatic           0.760893386448 Eh    ::
         :: -> Gsolv                  -0.303499767764 Eh    ::
         ::    -> Gelec               -0.284444949658 Eh    ::
         ::    -> Gsasa               -0.023960134370 Eh    ::
         ::    -> Ghb                 -0.002718962741 Eh    ::
         ::    -> Gshift               0.007624279005 Eh    ::
         :: repulsion energy           0.753830001021 Eh    ::
         :: dispersion energy         -0.025535010522 Eh    ::
         :: halogen bond corr.         0.000000000000 Eh    ::
         :: add. restraining           0.000000000000 Eh    ::
         :: total charge              -1.999999999998 e     ::
         :::::::::::::::::::::::::::::::::::::::::::::::::::::

      ----------------------------------------------------------- 
     |                   =====================                   |
     |                        A N C O P T                        |
     |                   =====================                   |
     |               Approximate Normal Coordinate               |
     |                Rational Function Optimizer                |
      ----------------------------------------------------------- 

          ...................................................
          :                      SETUP                      :
          :.................................................:
          :   optimization level            normal          :
          :   max. optcycles                   200          :
          :   ANC micro-cycles                  20          :
          :   degrees of freedom               120          :
          :.................................................:
          :   RF solver                   davidson          :
          :   write xtbopt.log                true          :
          :   linear?                        false          :
          :   energy convergence         0.5000000E-05 Eh   :
          :   grad. convergence          0.1000000E-02 Eh/α :
          :   maximium RF displ.         1.0000000          :
          :   Hlow (freq-cutoff)         0.1000000E-01      :
          :   Hmax (freq-cutoff)         5.0000000          :
          :   S6 in model hess.         20.0000000          :
          ...................................................

generating ANC from model Hessian ...
Using Lindh-Hessian (1995)
 Shifting diagonal of input Hessian by   9.822380755003662E-003
 Lowest  eigenvalues of input Hessian
    0.000000    0.000000    0.000000    0.000000    0.000000    0.000000
    0.010000    0.010099    0.010649    0.010879    0.011696    0.011824
    0.013054    0.013560    0.014333    0.014679    0.015011    0.017509
 Highest eigenvalues
    1.977964    2.038911    2.051308    2.251162    2.312752    2.409562
 

........................................................................
.............................. CYCLE    1 ..............................
........................................................................
   1    -84.3243925 -0.843244E+02  0.107E-04    0.15       0.0  T
   2    -84.3243925  0.421867E-07  0.628E-04    0.15      24.6  T
   3    -84.3243925 -0.434344E-07  0.326E-06    0.15    4737.9  T
   4    -84.3243925 -0.738964E-12  0.995E-07    0.15   15509.6  T
     SCC iter.                  ...        0 min,  0.014 sec
     gradient                   ...        0 min,  0.045 sec
 * total energy  :   -83.5960975 Eh     change       -0.7668177E-09 Eh
   gradient norm :     0.1390855 Eh/α   predicted     0.0000000E+00 (-100.00%)
   displ. norm   :     0.3245244 α      lambda       -0.1871492E-01
   maximum displ.:     0.1781954 α      in ANC's #20, #19, #5, ...

........................................................................
.............................. CYCLE    2 ..............................
........................................................................
   1    -84.3291415 -0.843291E+02  0.147E-01    0.38       0.0  T
   2    -84.2966723  0.324692E-01  0.568E-01    0.06       1.0  T
   3    -84.3302417 -0.335694E-01  0.109E-01    0.33       1.0  T
   4    -84.3305810 -0.339301E-03  0.776E-02    0.27       1.0  T
   5    -84.3308899 -0.308920E-03  0.504E-02    0.22       1.0  T
   6    -84.3311152 -0.225268E-03  0.129E-02    0.17       1.2  T
   7    -84.3311319 -0.167042E-04  0.181E-03    0.18       8.5  T
   8    -84.3311304  0.146491E-05  0.383E-03    0.18       4.0  T
   9    -84.3311320 -0.155714E-05  0.247E-04    0.18      62.5  T
  10    -84.3311320 -0.377513E-08  0.129E-04    0.18     119.2  T
  11    -84.3311320 -0.139552E-08  0.229E-05    0.18     672.6  T
     SCC iter.                  ...        0 min,  0.058 sec
     gradient                   ...        0 min,  0.055 sec
 * total energy  :   -83.6097323 Eh     change       -0.1363480E-01 Eh
   gradient norm :     0.0723060 Eh/α   predicted    -0.1036521E-01 ( -23.98%)
   displ. norm   :     0.3766624 α      lambda       -0.9898775E-02
   maximum displ.:     0.2366687 α      in ANC's #20, #19, #5, ...

........................................................................
.............................. CYCLE    3 ..............................
........................................................................
   1    -84.3441054 -0.843441E+02  0.117E-01    0.39       0.0  T
   2    -84.3448621 -0.756716E-03  0.621E-02    0.24       1.0  T
   3    -84.3450294 -0.167300E-03  0.198E-02    0.26       1.0  T
   4    -84.3450316 -0.227620E-05  0.119E-02    0.24       1.3  T
   5    -84.3450346 -0.298573E-05  0.677E-03    0.25       2.3  T
   6    -84.3450360 -0.140480E-05  0.160E-03    0.24       9.6  T
   7    -84.3450361 -0.575921E-07  0.927E-04    0.24      16.6  T
   8    -84.3450361 -0.474986E-07  0.161E-04    0.24      95.8  T
   9    -84.3450361 -0.664571E-09  0.622E-05    0.24     248.2  T
     SCC iter.                  ...        0 min,  0.048 sec
     gradient                   ...        0 min,  0.057 sec
 * total energy  :   -83.6158587 Eh     change       -0.6126377E-02 Eh
   gradient norm :     0.0285726 Eh/α   predicted    -0.5651577E-02 (  -7.75%)
   displ. norm   :     0.2884961 α      lambda       -0.2098492E-02
   maximum displ.:     0.1548424 α      in ANC's #20, #5, #19, ...

........................................................................
.............................. CYCLE    4 ..............................
........................................................................
   1    -84.3504113 -0.843504E+02  0.393E-02    0.31       0.0  T
   2    -84.3504897 -0.784288E-04  0.178E-02    0.30       1.0  T
   3    -84.3504978 -0.807455E-05  0.759E-03    0.30       2.0  T
   4    -84.3504981 -0.322354E-06  0.373E-03    0.30       4.1  T
   5    -84.3504982 -0.656391E-07  0.750E-04    0.30      20.6  T
   6    -84.3504982 -0.135020E-07  0.232E-04    0.30      66.5  T
   7    -84.3504982 -0.140291E-08  0.902E-05    0.30     171.1  T
   8    -84.3504982 -0.853930E-10  0.335E-05    0.30     461.1  T
     SCC iter.                  ...        0 min,  0.043 sec
     gradient                   ...        0 min,  0.056 sec
 * total energy  :   -83.6173937 Eh     change       -0.1535042E-02 Eh
   gradient norm :     0.0198231 Eh/α   predicted    -0.1136686E-02 ( -25.95%)
   displ. norm   :     0.3595380 α      lambda       -0.1475069E-02
   maximum displ.:     0.1920642 α      in ANC's #5, #20, #6, ...

........................................................................
.............................. CYCLE    5 ..............................
........................................................................
   1    -84.3539904 -0.843540E+02  0.369E-02    0.33       0.0  T
   2    -84.3540628 -0.724901E-04  0.154E-02    0.36       1.0  T
   3    -84.3540703 -0.744704E-05  0.671E-03    0.36       2.3  T
   4    -84.3540708 -0.515154E-06  0.374E-03    0.36       4.1  T
   5    -84.3540709 -0.775343E-07  0.885E-04    0.36      17.4  T
   6    -84.3540709 -0.162312E-07  0.209E-04    0.36      73.9  T
   7    -84.3540709 -0.895668E-09  0.766E-05    0.36     201.3  T
   8    -84.3540709 -0.631246E-10  0.248E-05    0.36     622.6  T
     SCC iter.                  ...        0 min,  0.044 sec
     gradient                   ...        0 min,  0.056 sec
 * total energy  :   -83.6184329 Eh     change       -0.1039150E-02 Eh
   gradient norm :     0.0126132 Eh/α   predicted    -0.8328753E-03 ( -19.85%)
   displ. norm   :     0.3488065 α      lambda       -0.8046299E-03
   maximum displ.:     0.2080032 α      in ANC's #5, #1, #6, ...

........................................................................
.............................. CYCLE    6 ..............................
........................................................................
   1    -84.3557260 -0.843557E+02  0.244E-02    0.37       0.0  T
   2    -84.3557570 -0.309458E-04  0.794E-03    0.39       1.9  T
   3    -84.3557589 -0.193201E-05  0.419E-03    0.39       3.7  T
   4    -84.3557593 -0.394777E-06  0.212E-03    0.40       7.3  T
   5    -84.3557593 -0.244068E-07  0.530E-04    0.40      29.1  T
   6    -84.3557593 -0.296725E-08  0.151E-04    0.40     102.5  T
   7    -84.3557593 -0.400931E-09  0.576E-05    0.40     267.9  T
     SCC iter.                  ...        0 min,  0.039 sec
     gradient                   ...        0 min,  0.056 sec
 * total energy  :   -83.6190403 Eh     change       -0.6074371E-03 Eh
   gradient norm :     0.0108675 Eh/α   predicted    -0.4513002E-03 ( -25.70%)
   displ. norm   :     0.3849668 α      lambda       -0.6498187E-03
   maximum displ.:     0.2314373 α      in ANC's #5, #1, #2, ...

........................................................................
.............................. CYCLE    7 ..............................
........................................................................
   1    -84.3567407 -0.843567E+02  0.200E-02    0.40       0.0  T
   2    -84.3567605 -0.197423E-04  0.572E-03    0.42       2.7  T
   3    -84.3567611 -0.601031E-06  0.261E-03    0.42       5.9  T
   4    -84.3567611 -0.593716E-07  0.151E-03    0.42      10.2  T
   5    -84.3567611 -0.116495E-07  0.331E-04    0.42      46.6  T
   6    -84.3567611 -0.365429E-08  0.114E-04    0.42     135.2  T
   7    -84.3567611 -0.323979E-09  0.464E-05    0.42     332.3  T
     SCC iter.                  ...        0 min,  0.037 sec
     gradient                   ...        0 min,  0.056 sec
 * total energy  :   -83.6195489 Eh     change       -0.5085741E-03 Eh
   gradient norm :     0.0094967 Eh/α   predicted    -0.3730928E-03 ( -26.64%)
   displ. norm   :     0.4199195 α      lambda       -0.5404655E-03
   maximum displ.:     0.2413783 α      in ANC's #5, #1, #2, ...

........................................................................
.............................. CYCLE    8 ..............................
........................................................................
   1    -84.3571859 -0.843572E+02  0.198E-02    0.42       0.0  T
   2    -84.3572051 -0.192102E-04  0.868E-03    0.44       1.8  T
   3    -84.3572077 -0.253936E-05  0.270E-03    0.44       5.7  T
   4    -84.3572078 -0.998962E-07  0.176E-03    0.44       8.8  T
   5    -84.3572078 -0.316109E-07  0.549E-04    0.44      28.1  T
   6    -84.3572078 -0.395941E-08  0.907E-05    0.44     170.1  T
   7    -84.3572078 -0.172690E-09  0.425E-05    0.44     362.9  T
     SCC iter.                  ...        0 min,  0.037 sec
     gradient                   ...        0 min,  0.056 sec
 * total energy  :   -83.6199612 Eh     change       -0.4123330E-03 Eh
   gradient norm :     0.0084189 Eh/α   predicted    -0.3178839E-03 ( -22.91%)
   displ. norm   :     0.3861625 α      lambda       -0.3828609E-03
   maximum displ.:     0.2114120 α      in ANC's #5, #1, #2, ...

........................................................................
.............................. CYCLE    9 ..............................
........................................................................
   1    -84.3574871 -0.843575E+02  0.153E-02    0.44       0.0  T
   2    -84.3574990 -0.118717E-04  0.821E-03    0.46       1.9  T
   3    -84.3575019 -0.285645E-05  0.218E-03    0.46       7.1  T
   4    -84.3575019 -0.186997E-07  0.132E-03    0.46      11.7  T
   5    -84.3575019 -0.173207E-07  0.443E-04    0.46      34.8  T
   6    -84.3575019 -0.172084E-08  0.644E-05    0.46     239.7  T
   7    -84.3575019 -0.105260E-09  0.271E-05    0.46     569.3  T
     SCC iter.                  ...        0 min,  0.037 sec
     gradient                   ...        0 min,  0.056 sec
 * total energy  :   -83.6202634 Eh     change       -0.3021293E-03 Eh
   gradient norm :     0.0081888 Eh/α   predicted    -0.2199773E-03 ( -27.19%)
   displ. norm   :     0.4030733 α      lambda       -0.3646037E-03
   maximum displ.:     0.2170803 α      in ANC's #1, #5, #2, ...

........................................................................
.............................. CYCLE   10 ..............................
........................................................................
   1    -84.3576958 -0.843577E+02  0.117E-02    0.46       0.0  T
   2    -84.3577032 -0.735778E-05  0.685E-03    0.47       2.3  T
   3    -84.3577053 -0.214940E-05  0.198E-03    0.47       7.8  T
   4    -84.3577053 -0.438817E-08  0.108E-03    0.47      14.3  T
   5    -84.3577053 -0.926100E-08  0.287E-04    0.47      53.7  T
   6    -84.3577053 -0.821103E-09  0.549E-05    0.47     281.0  T
   7    -84.3577053 -0.101565E-09  0.153E-05    0.47    1010.8  T
     SCC iter.                  ...        0 min,  0.037 sec
     gradient                   ...        0 min,  0.056 sec
 * total energy  :   -83.6205609 Eh     change       -0.2975299E-03 Eh
   gradient norm :     0.0084437 Eh/α   predicted    -0.2119206E-03 ( -28.77%)
   displ. norm   :     0.4584216 α      lambda       -0.4031970E-03
   maximum displ.:     0.2571136 α      in ANC's #1, #2, #5, ...

........................................................................
.............................. CYCLE   11 ..............................
........................................................................
   1    -84.3575990 -0.843576E+02  0.105E-02    0.48       0.0  T
   2    -84.3576054 -0.638328E-05  0.515E-03    0.48       3.0  T
   3    -84.3576065 -0.107615E-05  0.208E-03    0.48       7.4  T
   4    -84.3576065 -0.220942E-07  0.116E-03    0.48      13.3  T
   5    -84.3576065 -0.760828E-08  0.308E-04    0.48      50.0  T
   6    -84.3576065 -0.105065E-08  0.562E-05    0.48     274.5  T
   7    -84.3576065 -0.925979E-10  0.215E-05    0.48     716.6  T
     SCC iter.                  ...        0 min,  0.037 sec
     gradient                   ...        0 min,  0.056 sec
 * total energy  :   -83.6208926 Eh     change       -0.3316784E-03 Eh
   gradient norm :     0.0086143 Eh/α   predicted    -0.2439667E-03 ( -26.44%)
   displ. norm   :     0.4948874 α      lambda       -0.4039713E-03
   maximum displ.:     0.2918833 α      in ANC's #1, #2, #5, ...

........................................................................
.............................. CYCLE   12 ..............................
........................................................................
   1    -84.3572577 -0.843573E+02  0.128E-02    0.48       0.0  T
   2    -84.3572666 -0.892804E-05  0.407E-03    0.48       3.8  T
   3    -84.3572669 -0.262362E-06  0.226E-03    0.47       6.8  T
   4    -84.3572669 -0.181649E-07  0.122E-03    0.47      12.7  T
   5    -84.3572669 -0.130270E-07  0.316E-04    0.47      48.8  T
   6    -84.3572669 -0.241597E-08  0.617E-05    0.48     250.1  T
   7    -84.3572669 -0.117424E-09  0.276E-05    0.48     558.5  T
     SCC iter.                  ...        0 min,  0.037 sec
     gradient                   ...        0 min,  0.056 sec
 * total energy  :   -83.6212106 Eh     change       -0.3180383E-03 Eh
   gradient norm :     0.0081384 Eh/α   predicted    -0.2514644E-03 ( -20.93%)
   displ. norm   :     0.4698120 α      lambda       -0.3355977E-03
   maximum displ.:     0.2917550 α      in ANC's #1, #2, #5, ...

........................................................................
.............................. CYCLE   13 ..............................
........................................................................
   1    -84.3573941 -0.843574E+02  0.133E-02    0.48       0.0  T
   2    -84.3574031 -0.905597E-05  0.406E-03    0.47       3.8  T
   3    -84.3574034 -0.274004E-06  0.207E-03    0.47       7.5  T
   4    -84.3574034 -0.266781E-07  0.125E-03    0.47      12.4  T
   5    -84.3574034 -0.125806E-07  0.259E-04    0.47      59.7  T
   6    -84.3574034 -0.267548E-08  0.559E-05    0.47     275.9  T
   7    -84.3574034 -0.814566E-10  0.277E-05    0.47     557.7  T
     SCC iter.                  ...        0 min,  0.040 sec
     gradient                   ...        0 min,  0.058 sec
 * total energy  :   -83.6214809 Eh     change       -0.2702789E-03 Eh
   gradient norm :     0.0067242 Eh/α   predicted    -0.2048366E-03 ( -24.21%)
   displ. norm   :     0.4577953 α      lambda       -0.2999832E-03
   maximum displ.:     0.2998447 α      in ANC's #1, #2, #7, ...

........................................................................
.............................. CYCLE   14 ..............................
........................................................................
   1    -84.3579743 -0.843580E+02  0.117E-02    0.48       0.0  T
   2    -84.3579808 -0.650946E-05  0.422E-03    0.47       3.7  T
   3    -84.3579812 -0.415101E-06  0.207E-03    0.47       7.5  T
   4    -84.3579812 -0.377658E-07  0.121E-03    0.47      12.7  T
   5    -84.3579812 -0.104807E-07  0.252E-04    0.47      61.3  T
   6    -84.3579812 -0.186024E-08  0.550E-05    0.47     280.6  T
   7    -84.3579812 -0.699600E-10  0.252E-05    0.47     612.5  T
     SCC iter.                  ...        0 min,  0.040 sec
     gradient                   ...        0 min,  0.056 sec
 * total energy  :   -83.6217254 Eh     change       -0.2445277E-03 Eh
   gradient norm :     0.0056943 Eh/α   predicted    -0.1814268E-03 ( -25.81%)
   displ. norm   :     0.4456429 α      lambda       -0.2672612E-03
   maximum displ.:     0.3027319 α      in ANC's #1, #2, #7, ...

........................................................................
.............................. CYCLE   15 ..............................
........................................................................
   1    -84.3583291 -0.843583E+02  0.740E-03    0.47       0.0  T
   2    -84.3583313 -0.224646E-05  0.285E-03    0.47       5.4  T
   3    -84.3583315 -0.210234E-06  0.126E-03    0.47      12.3  T
   4    -84.3583315 -0.135739E-07  0.653E-04    0.47      23.6  T
   5    -84.3583315 -0.434545E-08  0.178E-04    0.47      86.5  T
   6    -84.3583315 -0.457831E-09  0.464E-05    0.47     332.2  T
     SCC iter.                  ...        0 min,  0.034 sec
     gradient                   ...        0 min,  0.058 sec
 * total energy  :   -83.6219407 Eh     change       -0.2153341E-03 Eh
   gradient norm :     0.0063350 Eh/α   predicted    -0.1601742E-03 ( -25.62%)
   displ. norm   :     0.4074902 α      lambda       -0.2507306E-03
   maximum displ.:     0.2919999 α      in ANC's #1, #2, #7, ...

........................................................................
.............................. CYCLE   16 ..............................
........................................................................
   1    -84.3606824 -0.843607E+02  0.786E-03    0.47       0.0  T
   2    -84.3606840 -0.160527E-05  0.414E-03    0.47       3.7  T
   3    -84.3606840 -0.804765E-07  0.237E-03    0.47       6.5  T
   4    -84.3606840 -0.774224E-08  0.680E-04    0.47      22.7  T
   5    -84.3606841 -0.739315E-08  0.132E-04    0.47     116.8  T
   6    -84.3606841 -0.754966E-09  0.436E-05    0.47     354.1  T
     SCC iter.                  ...        0 min,  0.033 sec
     gradient                   ...        0 min,  0.056 sec
 * total energy  :   -83.6220972 Eh     change       -0.1564717E-03 Eh
   gradient norm :     0.0078790 Eh/α   predicted    -0.1461864E-03 (  -6.57%)
   displ. norm   :     0.4135452 α      lambda       -0.2509647E-03
   maximum displ.:     0.2846146 α      in ANC's #1, #2, #7, ...

........................................................................
.............................. CYCLE   17 ..............................
........................................................................
   1    -84.3578722 -0.843579E+02  0.125E-02    0.47       0.0  T
   2    -84.3578779 -0.574220E-05  0.533E-03    0.48       2.9  T
   3    -84.3578784 -0.415461E-06  0.292E-03    0.48       5.3  T
   4    -84.3578784 -0.269963E-07  0.124E-03    0.48      12.4  T
   5    -84.3578784 -0.751528E-08  0.298E-04    0.48      51.8  T
   6    -84.3578784 -0.413296E-08  0.661E-05    0.48     233.3  T
   7    -84.3578784 -0.104009E-09  0.247E-05    0.48     625.8  T
     SCC iter.                  ...        0 min,  0.039 sec
     gradient                   ...        0 min,  0.057 sec
 * total energy  :   -83.6222633 Eh     change       -0.1660628E-03 Eh
   gradient norm :     0.0076092 Eh/α   predicted    -0.1469460E-03 ( -11.51%)
   displ. norm   :     0.2901080 α      lambda       -0.1564730E-03
   maximum displ.:     0.2145247 α      in ANC's #1, #2, #15, ...

........................................................................
.............................. CYCLE   18 ..............................
........................................................................
   1    -84.3591781 -0.843592E+02  0.101E-02    0.50       0.0  T
   2    -84.3591806 -0.249160E-05  0.453E-03    0.51       3.4  T
   3    -84.3591807 -0.105764E-06  0.266E-03    0.51       5.8  T
   4    -84.3591808 -0.168090E-07  0.784E-04    0.51      19.7  T
   5    -84.3591808 -0.112122E-07  0.205E-04    0.51      75.4  T
   6    -84.3591808 -0.197754E-08  0.489E-05    0.51     315.7  T
   7    -84.3591808 -0.402736E-10  0.187E-05    0.51     824.2  T
     SCC iter.                  ...        0 min,  0.037 sec
     gradient                   ...        0 min,  0.057 sec
 * total energy  :   -83.6223699 Eh     change       -0.1066160E-03 Eh
   gradient norm :     0.0068682 Eh/α   predicted    -0.8482301E-04 ( -20.44%)
   displ. norm   :     0.3336050 α      lambda       -0.1827979E-03
   maximum displ.:     0.2500867 α      in ANC's #1, #2, #15, ...

........................................................................
.............................. CYCLE   19 ..............................
........................................................................
   1    -84.3586985 -0.843587E+02  0.136E-02    0.50       0.0  T
   2    -84.3587057 -0.716676E-05  0.489E-03    0.51       3.2  T
   3    -84.3587064 -0.748833E-06  0.170E-03    0.51       9.1  T
   4    -84.3587064 -0.174459E-07  0.810E-04    0.51      19.1  T
   5    -84.3587064 -0.373782E-08  0.318E-04    0.51      48.6  T
   6    -84.3587064 -0.248794E-08  0.517E-05    0.51     298.2  T
   7    -84.3587064 -0.571561E-10  0.218E-05    0.51     708.1  T
     SCC iter.                  ...        0 min,  0.037 sec
     gradient                   ...        0 min,  0.057 sec
 * total energy  :   -83.6225035 Eh     change       -0.1336367E-03 Eh
   gradient norm :     0.0041851 Eh/α   predicted    -0.1015720E-03 ( -23.99%)
   displ. norm   :     0.3102988 α      lambda       -0.1143341E-03
   maximum displ.:     0.2346707 α      in ANC's #1, #2, #15, ...

........................................................................
.............................. CYCLE   20 ..............................
........................................................................
   1    -84.3595302 -0.843595E+02  0.893E-03    0.51       0.0  T
   2    -84.3595339 -0.373761E-05  0.287E-03    0.52       5.4  T
   3    -84.3595341 -0.175790E-06  0.121E-03    0.53      12.7  T
   4    -84.3595341 -0.124029E-07  0.707E-04    0.53      21.8  T
   5    -84.3595341 -0.194237E-08  0.110E-04    0.53     140.2  T
   6    -84.3595341 -0.230997E-09  0.420E-05    0.53     367.5  T
     SCC iter.                  ...        0 min,  0.033 sec
     gradient                   ...        0 min,  0.058 sec
 * total energy  :   -83.6225949 Eh     change       -0.9138013E-04 Eh
   gradient norm :     0.0040785 Eh/α   predicted    -0.6267529E-04 ( -31.41%)
   displ. norm   :     0.3542860 α      lambda       -0.1046966E-03
   maximum displ.:     0.2657616 α      in ANC's #1, #2, #15, ...
 * RMSD in coord.:     1.0052227 α      energy gain  -0.2649740E-01 Eh

generating ANC from model Hessian ...
Using Lindh-Hessian (1995)
 Shifting diagonal of input Hessian by   9.758409230337484E-003
 Lowest  eigenvalues of input Hessian
    0.000000    0.000000    0.000000    0.000000    0.000000    0.000000
    0.010000    0.010192    0.010627    0.010629    0.011247    0.011801
    0.013086    0.013181    0.013794    0.014816    0.015386    0.016726
 Highest eigenvalues
    2.012247    2.045668    2.140151    2.221305    2.308599    2.425343
 

........................................................................
.............................. CYCLE   21 ..............................
........................................................................
   1    -84.3592987 -0.843593E+02  0.814E-03    0.53       0.0  T
   2    -84.3593013 -0.257005E-05  0.255E-03    0.54       6.0  T
   3    -84.3593015 -0.141486E-06  0.123E-03    0.54      12.6  T
   4    -84.3593015 -0.100672E-07  0.580E-04    0.54      26.6  T
   5    -84.3593015 -0.101824E-08  0.105E-04    0.54     146.6  T
   6    -84.3593015 -0.126548E-09  0.340E-05    0.54     454.3  T
     SCC iter.                  ...        0 min,  0.032 sec
     gradient                   ...        0 min,  0.057 sec
 * total energy  :   -83.6226833 Eh     change       -0.8835932E-04 Eh
   gradient norm :     0.0044094 Eh/α   predicted     0.0000000E+00 (-100.00%)
   displ. norm   :     0.0430058 α      lambda       -0.3209651E-04
   maximum displ.:     0.0311747 α      in ANC's #1, #5, #2, ...

........................................................................
.............................. CYCLE   22 ..............................
........................................................................
   1    -84.3603009 -0.843603E+02  0.396E-03    0.54       0.0  T
   2    -84.3603015 -0.566436E-06  0.148E-03    0.54      10.4  T
   3    -84.3603015 -0.355282E-07  0.709E-04    0.54      21.8  T
   4    -84.3603015 -0.752024E-09  0.259E-04    0.54      59.7  T
   5    -84.3603015 -0.471530E-09  0.556E-05    0.54     277.6  T
   6    -84.3603015 -0.609077E-10  0.150E-05    0.54    1028.0  T
     SCC iter.                  ...        0 min,  0.033 sec
     gradient                   ...        0 min,  0.059 sec
 * total energy  :   -83.6227190 Eh     change       -0.3577550E-04 Eh
   gradient norm :     0.0022357 Eh/α   predicted    -0.2219503E-04 ( -37.96%)
   displ. norm   :     0.1053019 α      lambda       -0.6473565E-04
   maximum displ.:     0.0755997 α      in ANC's #1, #5, #2, ...

........................................................................
.............................. CYCLE   23 ..............................
........................................................................
   1    -84.3614010 -0.843614E+02  0.685E-03    0.55       0.0  T
   2    -84.3614030 -0.195228E-05  0.230E-03    0.54       6.7  T
   3    -84.3614031 -0.981327E-07  0.102E-03    0.54      15.1  T
   4    -84.3614031 -0.364419E-08  0.498E-04    0.54      31.0  T
   5    -84.3614031 -0.135749E-08  0.108E-04    0.54     143.4  T
   6    -84.3614031 -0.223622E-09  0.275E-05    0.54     560.7  T
     SCC iter.                  ...        0 min,  0.034 sec
     gradient                   ...        0 min,  0.059 sec
 * total energy  :   -83.6227663 Eh     change       -0.4728856E-04 Eh
   gradient norm :     0.0021866 Eh/α   predicted    -0.3272713E-04 ( -30.79%)
   displ. norm   :     0.1177763 α      lambda       -0.4553197E-04
   maximum displ.:     0.0853247 α      in ANC's #1, #5, #2, ...

........................................................................
.............................. CYCLE   24 ..............................
........................................................................
   1    -84.3615574 -0.843616E+02  0.510E-03    0.54       0.0  T
   2    -84.3615587 -0.126520E-05  0.146E-03    0.54      10.5  T
   3    -84.3615587 -0.389772E-07  0.671E-04    0.54      23.0  T
   4    -84.3615587 -0.306841E-08  0.390E-04    0.54      39.6  T
   5    -84.3615587 -0.973444E-09  0.849E-05    0.54     181.7  T
   6    -84.3615587 -0.107960E-09  0.246E-05    0.54     627.5  T
     SCC iter.                  ...        0 min,  0.033 sec
     gradient                   ...        0 min,  0.059 sec
 * total energy  :   -83.6228049 Eh     change       -0.3856373E-04 Eh
   gradient norm :     0.0034468 Eh/α   predicted    -0.2314637E-04 ( -39.98%)
   displ. norm   :     0.1473063 α      lambda       -0.5524405E-04
   maximum displ.:     0.1044861 α      in ANC's #1, #2, #5, ...

........................................................................
.............................. CYCLE   25 ..............................
........................................................................
   1    -84.3611441 -0.843611E+02  0.474E-03    0.54       0.0  T
   2    -84.3611453 -0.122077E-05  0.134E-03    0.54      11.5  T
   3    -84.3611453 -0.381868E-07  0.709E-04    0.54      21.8  T
   4    -84.3611453 -0.511100E-08  0.396E-04    0.54      39.0  T
   5    -84.3611453 -0.140200E-08  0.111E-04    0.54     138.4  T
   6    -84.3611453 -0.176215E-09  0.301E-05    0.54     513.2  T
     SCC iter.                  ...        0 min,  0.034 sec
     gradient                   ...        0 min,  0.059 sec
 * total energy  :   -83.6228545 Eh     change       -0.4955420E-04 Eh
   gradient norm :     0.0035644 Eh/α   predicted    -0.2822220E-04 ( -43.05%)
   displ. norm   :     0.1965765 α      lambda       -0.7329180E-04
   maximum displ.:     0.1373452 α      in ANC's #1, #2, #5, ...

........................................................................
.............................. CYCLE   26 ..............................
........................................................................
   1    -84.3603813 -0.843604E+02  0.518E-03    0.54       0.0  T
   2    -84.3603827 -0.143345E-05  0.170E-03    0.53       9.1  T
   3    -84.3603828 -0.758830E-07  0.856E-04    0.53      18.0  T
   4    -84.3603828 -0.850594E-08  0.436E-04    0.53      35.4  T
   5    -84.3603828 -0.122438E-08  0.155E-04    0.53      99.5  T
   6    -84.3603828 -0.381306E-09  0.361E-05    0.53     427.5  T
     SCC iter.                  ...        0 min,  0.033 sec
     gradient                   ...        0 min,  0.059 sec
 * total energy  :   -83.6229179 Eh     change       -0.6346451E-04 Eh
   gradient norm :     0.0030679 Eh/α   predicted    -0.3806365E-04 ( -40.02%)
   displ. norm   :     0.2215960 α      lambda       -0.7639643E-04
   maximum displ.:     0.1541951 α      in ANC's #1, #2, #5, ...

........................................................................
.............................. CYCLE   27 ..............................
........................................................................
   1    -84.3597090 -0.843597E+02  0.495E-03    0.53       0.0  T
   2    -84.3597101 -0.112576E-05  0.192E-03    0.53       8.0  T
   3    -84.3597102 -0.995256E-07  0.821E-04    0.53      18.8  T
   4    -84.3597102 -0.511828E-08  0.375E-04    0.53      41.1  T
   5    -84.3597102 -0.112193E-08  0.148E-04    0.53     104.5  T
   6    -84.3597102 -0.348592E-09  0.351E-05    0.53     440.0  T
     SCC iter.                  ...        0 min,  0.033 sec
     gradient                   ...        0 min,  0.060 sec
 * total energy  :   -83.6229826 Eh     change       -0.6468068E-04 Eh
   gradient norm :     0.0029580 Eh/α   predicted    -0.4007479E-04 ( -38.04%)
   displ. norm   :     0.2263563 α      lambda       -0.7481947E-04
   maximum displ.:     0.1572034 α      in ANC's #1, #2, #5, ...

........................................................................
.............................. CYCLE   28 ..............................
........................................................................
   1    -84.3594259 -0.843594E+02  0.455E-03    0.53       0.0  T
   2    -84.3594267 -0.767112E-06  0.193E-03    0.53       8.0  T
   3    -84.3594268 -0.908007E-07  0.764E-04    0.53      20.2  T
   4    -84.3594268 -0.274650E-08  0.297E-04    0.53      51.9  T
   5    -84.3594268 -0.688260E-09  0.103E-04    0.53     149.6  T
   6    -84.3594268 -0.145505E-09  0.300E-05    0.53     515.0  T
     SCC iter.                  ...        0 min,  0.032 sec
     gradient                   ...        0 min,  0.059 sec
 * total energy  :   -83.6230471 Eh     change       -0.6448790E-04 Eh
   gradient norm :     0.0032058 Eh/α   predicted    -0.3932722E-04 ( -39.02%)
   displ. norm   :     0.2604870 α      lambda       -0.8602688E-04
   maximum displ.:     0.1803757 α      in ANC's #1, #2, #5, ...

........................................................................
.............................. CYCLE   29 ..............................
........................................................................
   1    -84.3595034 -0.843595E+02  0.516E-03    0.53       0.0  T
   2    -84.3595044 -0.940436E-06  0.212E-03    0.53       7.3  T
   3    -84.3595045 -0.102297E-06  0.892E-04    0.53      17.3  T
   4    -84.3595045 -0.443404E-08  0.378E-04    0.53      40.8  T
   5    -84.3595045 -0.895753E-09  0.964E-05    0.53     160.0  T
   6    -84.3595045 -0.159261E-09  0.362E-05    0.53     426.3  T
     SCC iter.                  ...        0 min,  0.033 sec
     gradient                   ...        0 min,  0.060 sec
 * total energy  :   -83.6231203 Eh     change       -0.7323308E-04 Eh
   gradient norm :     0.0035172 Eh/α   predicted    -0.4593406E-04 ( -37.28%)
   displ. norm   :     0.3173103 α      lambda       -0.9979579E-04
   maximum displ.:     0.2200905 α      in ANC's #1, #2, #8, ...

........................................................................
.............................. CYCLE   30 ..............................
........................................................................
   1    -84.3597309 -0.843597E+02  0.617E-03    0.53       0.0  T
   2    -84.3597323 -0.141882E-05  0.231E-03    0.53       6.7  T
   3    -84.3597324 -0.117888E-06  0.112E-03    0.53      13.8  T
   4    -84.3597324 -0.114027E-07  0.524E-04    0.53      29.4  T
   5    -84.3597324 -0.216669E-08  0.145E-04    0.53     106.2  T
   6    -84.3597324 -0.470223E-09  0.452E-05    0.53     341.4  T
     SCC iter.                  ...        0 min,  0.033 sec
     gradient                   ...        0 min,  0.060 sec
 * total energy  :   -83.6232038 Eh     change       -0.8344033E-04 Eh
   gradient norm :     0.0038746 Eh/α   predicted    -0.5492638E-04 ( -34.17%)
   displ. norm   :     0.3562804 α      lambda       -0.1025613E-03
   maximum displ.:     0.2493300 α      in ANC's #1, #2, #8, ...

........................................................................
.............................. CYCLE   31 ..............................
........................................................................
   1    -84.3599809 -0.843600E+02  0.633E-03    0.54       0.0  T
   2    -84.3599823 -0.146078E-05  0.223E-03    0.54       6.9  T
   3    -84.3599824 -0.879960E-07  0.123E-03    0.54      12.6  T
   4    -84.3599825 -0.174354E-07  0.557E-04    0.54      27.7  T
   5    -84.3599825 -0.321749E-08  0.145E-04    0.54     106.8  T
   6    -84.3599825 -0.374911E-09  0.454E-05    0.54     340.2  T
     SCC iter.                  ...        0 min,  0.032 sec
     gradient                   ...        0 min,  0.060 sec
 * total energy  :   -83.6232858 Eh     change       -0.8200240E-04 Eh
   gradient norm :     0.0040163 Eh/α   predicted    -0.5779141E-04 ( -29.52%)
   displ. norm   :     0.3495343 α      lambda       -0.9269253E-04
   maximum displ.:     0.2493648 α      in ANC's #1, #2, #8, ...

........................................................................
.............................. CYCLE   32 ..............................
........................................................................
   1    -84.3605259 -0.843605E+02  0.505E-03    0.54       0.0  T
   2    -84.3605269 -0.966371E-06  0.191E-03    0.54       8.1  T
   3    -84.3605270 -0.644090E-07  0.105E-03    0.54      14.7  T
   4    -84.3605270 -0.113601E-07  0.447E-04    0.54      34.5  T
   5    -84.3605270 -0.189770E-08  0.120E-04    0.54     128.7  T
   6    -84.3605270 -0.275463E-09  0.384E-05    0.54     402.1  T
     SCC iter.                  ...        0 min,  0.032 sec
     gradient                   ...        0 min,  0.060 sec
 * total energy  :   -83.6233619 Eh     change       -0.7615899E-04 Eh
   gradient norm :     0.0033132 Eh/α   predicted    -0.5201074E-04 ( -31.71%)
   displ. norm   :     0.4249429 α      lambda       -0.9427201E-04
   maximum displ.:     0.3052301 α      in ANC's #1, #2, #8, ...

........................................................................
.............................. CYCLE   33 ..............................
........................................................................
   1    -84.3598259 -0.843598E+02  0.683E-03    0.55       0.0  T
   2    -84.3598268 -0.920812E-06  0.294E-03    0.54       5.3  T
   3    -84.3598269 -0.901805E-07  0.153E-03    0.54      10.1  T
   4    -84.3598269 -0.232107E-07  0.403E-04    0.54      38.3  T
   5    -84.3598269 -0.139185E-08  0.124E-04    0.54     124.2  T
   6    -84.3598269 -0.157300E-09  0.501E-05    0.54     308.1  T
     SCC iter.                  ...        0 min,  0.032 sec
     gradient                   ...        0 min,  0.059 sec
 * total energy  :   -83.6234371 Eh     change       -0.7519170E-04 Eh
   gradient norm :     0.0035366 Eh/α   predicted    -0.5564909E-04 ( -25.99%)
   displ. norm   :     0.3992788 α      lambda       -0.1145673E-03
   maximum displ.:     0.2951016 α      in ANC's #1, #2, #8, ...

........................................................................
.............................. CYCLE   34 ..............................
........................................................................
   1    -84.3610870 -0.843611E+02  0.721E-03    0.55       0.0  T
   2    -84.3610886 -0.156441E-05  0.321E-03    0.54       4.8  T
   3    -84.3610888 -0.177658E-06  0.165E-03    0.54       9.3  T
   4    -84.3610888 -0.114868E-07  0.494E-04    0.54      31.3  T
   5    -84.3610888 -0.179283E-08  0.902E-05    0.54     171.1  T
   6    -84.3610888 -0.121531E-09  0.292E-05    0.54     527.7  T
     SCC iter.                  ...        0 min,  0.032 sec
     gradient                   ...        0 min,  0.060 sec
 * total energy  :   -83.6235069 Eh     change       -0.6980814E-04 Eh
   gradient norm :     0.0037407 Eh/α   predicted    -0.6642576E-04 (  -4.85%)
   displ. norm   :     0.2785545 α      lambda       -0.5323636E-04
   maximum displ.:     0.2040661 α      in ANC's #1, #8, #5, ...

........................................................................
.............................. CYCLE   35 ..............................
........................................................................
   1    -84.3600082 -0.843600E+02  0.659E-03    0.54       0.0  T
   2    -84.3600094 -0.121756E-05  0.250E-03    0.53       6.2  T
   3    -84.3600094 -0.349000E-07  0.114E-03    0.53      13.5  T
   4    -84.3600094 -0.614902E-08  0.462E-04    0.53      33.4  T
   5    -84.3600094 -0.261667E-08  0.969E-05    0.53     159.3  T
   6    -84.3600094 -0.122881E-09  0.406E-05    0.53     380.0  T
     SCC iter.                  ...        0 min,  0.033 sec
     gradient                   ...        0 min,  0.059 sec
 * total energy  :   -83.6235397 Eh     change       -0.3280705E-04 Eh
   gradient norm :     0.0039322 Eh/α   predicted    -0.2868480E-04 ( -12.57%)
   displ. norm   :     0.1551806 α      lambda       -0.6369801E-04
   maximum displ.:     0.1134622 α      in ANC's #1, #3, #5, ...

........................................................................
.............................. CYCLE   36 ..............................
........................................................................
   1    -84.3615701 -0.843616E+02  0.848E-03    0.52       0.0  T
   2    -84.3615735 -0.338882E-05  0.262E-03    0.52       5.9  T
   3    -84.3615736 -0.104461E-06  0.149E-03    0.52      10.4  T
   4    -84.3615736 -0.133284E-07  0.769E-04    0.52      20.1  T
   5    -84.3615737 -0.593246E-08  0.180E-04    0.52      85.7  T
   6    -84.3615737 -0.843201E-09  0.393E-05    0.52     392.6  T
     SCC iter.                  ...        0 min,  0.033 sec
     gradient                   ...        0 min,  0.061 sec
 * total energy  :   -83.6235861 Eh     change       -0.4640134E-04 Eh
   gradient norm :     0.0033731 Eh/α   predicted    -0.3262266E-04 ( -29.69%)
   displ. norm   :     0.2270602 α      lambda       -0.6158886E-04
   maximum displ.:     0.1619338 α      in ANC's #1, #3, #5, ...

........................................................................
.............................. CYCLE   37 ..............................
........................................................................
   1    -84.3612850 -0.843613E+02  0.915E-03    0.51       0.0  T
   2    -84.3612896 -0.462085E-05  0.221E-03    0.50       7.0  T
   3    -84.3612897 -0.135923E-06  0.138E-03    0.50      11.2  T
   4    -84.3612897 -0.257081E-07  0.740E-04    0.50      20.9  T
   5    -84.3612897 -0.249192E-08  0.172E-04    0.50      89.9  T
   6    -84.3612897 -0.505779E-09  0.515E-05    0.50     299.8  T
     SCC iter.                  ...        0 min,  0.032 sec
     gradient                   ...        0 min,  0.060 sec
 * total energy  :   -83.6236298 Eh     change       -0.4371074E-04 Eh
   gradient norm :     0.0026365 Eh/α   predicted    -0.3238365E-04 ( -25.91%)
   displ. norm   :     0.2024347 α      lambda       -0.4377255E-04
   maximum displ.:     0.1383817 α      in ANC's #1, #3, #5, ...

........................................................................
.............................. CYCLE   38 ..............................
........................................................................
   1    -84.3609747 -0.843610E+02  0.691E-03    0.49       0.0  T
   2    -84.3609772 -0.250613E-05  0.214E-03    0.48       7.2  T
   3    -84.3609773 -0.102729E-06  0.106E-03    0.48      14.6  T
   4    -84.3609774 -0.186530E-07  0.607E-04    0.48      25.4  T
   5    -84.3609774 -0.217719E-08  0.120E-04    0.48     128.1  T
   6    -84.3609774 -0.587747E-09  0.370E-05    0.48     416.5  T
     SCC iter.                  ...        0 min,  0.033 sec
     gradient                   ...        0 min,  0.060 sec
 * total energy  :   -83.6236626 Eh     change       -0.3275411E-04 Eh
   gradient norm :     0.0026311 Eh/α   predicted    -0.2278458E-04 ( -30.44%)
   displ. norm   :     0.2201168 α      lambda       -0.4187995E-04
   maximum displ.:     0.1454970 α      in ANC's #1, #3, #5, ...

........................................................................
.............................. CYCLE   39 ..............................
........................................................................
   1    -84.3602062 -0.843602E+02  0.478E-03    0.47       0.0  T
   2    -84.3602072 -0.101374E-05  0.160E-03    0.47       9.7  T
   3    -84.3602073 -0.590533E-07  0.803E-04    0.47      19.2  T
   4    -84.3602073 -0.955063E-08  0.401E-04    0.47      38.5  T
   5    -84.3602073 -0.542173E-09  0.911E-05    0.47     169.3  T
   6    -84.3602073 -0.318920E-09  0.290E-05    0.47     532.2  T
     SCC iter.                  ...        0 min,  0.032 sec
     gradient                   ...        0 min,  0.061 sec
 * total energy  :   -83.6236949 Eh     change       -0.3233893E-04 Eh
   gradient norm :     0.0034832 Eh/α   predicted    -0.2195912E-04 ( -32.10%)
   displ. norm   :     0.2385037 α      lambda       -0.4841530E-04
   maximum displ.:     0.1472366 α      in ANC's #1, #3, #5, ...

........................................................................
.............................. CYCLE   40 ..............................
........................................................................
   1    -84.3599836 -0.843600E+02  0.366E-03    0.46       0.0  T
   2    -84.3599840 -0.405923E-06  0.173E-03    0.46       8.9  T
   3    -84.3599841 -0.917343E-07  0.885E-04    0.46      17.4  T
   4    -84.3599841 -0.113272E-07  0.297E-04    0.46      51.9  T
   5    -84.3599841 -0.270447E-09  0.712E-05    0.46     216.6  T
   6    -84.3599841 -0.803198E-10  0.229E-05    0.46     672.4  T
     SCC iter.                  ...        0 min,  0.032 sec
     gradient                   ...        0 min,  0.061 sec
 * total energy  :   -83.6237331 Eh     change       -0.3820895E-04 Eh
   gradient norm :     0.0039419 Eh/α   predicted    -0.2558682E-04 ( -33.03%)
   displ. norm   :     0.3141717 α      lambda       -0.5754995E-04
   maximum displ.:     0.1941330 α      in ANC's #1, #3, #5, ...

........................................................................
.............................. CYCLE   41 ..............................
........................................................................
   1    -84.3593307 -0.843593E+02  0.561E-03    0.46       0.0  T
   2    -84.3593316 -0.901768E-06  0.232E-03    0.46       6.7  T
   3    -84.3593317 -0.743525E-07  0.137E-03    0.46      11.3  T
   4    -84.3593317 -0.238940E-07  0.524E-04    0.46      29.4  T
   5    -84.3593317 -0.225224E-08  0.132E-04    0.46     117.2  T
   6    -84.3593317 -0.312454E-09  0.377E-05    0.46     409.7  T
     SCC iter.                  ...        0 min,  0.032 sec
     gradient                   ...        0 min,  0.059 sec
 * total energy  :   -83.6237729 Eh     change       -0.3975895E-04 Eh
   gradient norm :     0.0043957 Eh/α   predicted    -0.3161736E-04 ( -20.48%)
   displ. norm   :     0.1688495 α      lambda       -0.5700147E-04
   maximum displ.:     0.1003091 α      in ANC's #2, #3, #1, ...

........................................................................
.............................. CYCLE   42 ..............................
........................................................................
   1    -84.3618033 -0.843618E+02  0.876E-03    0.46       0.0  T
   2    -84.3618069 -0.369139E-05  0.293E-03    0.47       5.3  T
   3    -84.3618071 -0.159087E-06  0.160E-03    0.47       9.7  T
   4    -84.3618071 -0.195294E-07  0.780E-04    0.47      19.8  T
   5    -84.3618071 -0.178422E-08  0.148E-04    0.47     104.3  T
   6    -84.3618071 -0.413479E-09  0.411E-05    0.47     375.6  T
     SCC iter.                  ...        0 min,  0.031 sec
     gradient                   ...        0 min,  0.059 sec
 * total energy  :   -83.6237988 Eh     change       -0.2590362E-04 Eh
   gradient norm :     0.0034330 Eh/α   predicted    -0.2931375E-04 (  13.16%)
   displ. norm   :     0.2116831 α      lambda       -0.4050235E-04
   maximum displ.:     0.1381122 α      in ANC's #1, #3, #5, ...
 * RMSD in coord.:     0.7078618 α      energy gain  -0.1203893E-02 Eh

generating ANC from model Hessian ...
Using Lindh-Hessian (1995)
 Shifting diagonal of input Hessian by   9.802888809074350E-003
 Lowest  eigenvalues of input Hessian
    0.000000    0.000000    0.000000    0.000000    0.000000    0.000000
    0.010000    0.010390    0.010627    0.010699    0.011334    0.011861
    0.013173    0.013317    0.013941    0.015078    0.015521    0.017157
 Highest eigenvalues
    2.014404    2.046337    2.142864    2.222722    2.308164    2.430350
 

........................................................................
.............................. CYCLE   43 ..............................
........................................................................
   1    -84.3607464 -0.843607E+02  0.649E-03    0.48       0.0  T
   2    -84.3607473 -0.843312E-06  0.276E-03    0.48       5.6  T
   3    -84.3607473 -0.683115E-07  0.141E-03    0.48      10.9  T
   4    -84.3607474 -0.147673E-07  0.424E-04    0.48      36.4  T
   5    -84.3607474 -0.857028E-09  0.860E-05    0.48     179.3  T
   6    -84.3607474 -0.114767E-09  0.315E-05    0.48     490.4  T
     SCC iter.                  ...        0 min,  0.032 sec
     gradient                   ...        0 min,  0.058 sec
 * total energy  :   -83.6238226 Eh     change       -0.2381115E-04 Eh
   gradient norm :     0.0026566 Eh/α   predicted     0.0000000E+00 (-100.00%)
   displ. norm   :     0.0287777 α      lambda       -0.2520271E-04
   maximum displ.:     0.0137846 α      in ANC's #9, #10, #3, ...

........................................................................
.............................. CYCLE   44 ..............................
........................................................................
   1    -84.3612558 -0.843613E+02  0.259E-03    0.48       0.0  T
   2    -84.3612559 -0.139688E-06  0.117E-03    0.48      13.2  T
   3    -84.3612559 -0.777487E-08  0.685E-04    0.48      22.5  T
   4    -84.3612559 -0.166321E-08  0.210E-04    0.48      73.3  T
   5    -84.3612559 -0.981814E-09  0.480E-05    0.48     321.8  T
   6    -84.3612559 -0.913474E-10  0.139E-05    0.48    1113.0  T
     SCC iter.                  ...        0 min,  0.034 sec
     gradient                   ...        0 min,  0.060 sec
 * total energy  :   -83.6238427 Eh     change       -0.2005840E-04 Eh
   gradient norm :     0.0012843 Eh/α   predicted    -0.1264655E-04 ( -36.95%)
   displ. norm   :     0.1298336 α      lambda       -0.4194267E-04
   maximum displ.:     0.0666799 α      in ANC's #9, #3, #10, ...

........................................................................
.............................. CYCLE   45 ..............................
........................................................................
   1    -84.3619523 -0.843620E+02  0.740E-03    0.48       0.0  T
   2    -84.3619542 -0.193071E-05  0.274E-03    0.47       5.6  T
   3    -84.3619544 -0.162421E-06  0.164E-03    0.47       9.4  T
   4    -84.3619544 -0.320494E-07  0.721E-04    0.47      21.4  T
   5    -84.3619544 -0.350154E-08  0.191E-04    0.47      80.6  T
   6    -84.3619544 -0.664585E-09  0.497E-05    0.47     310.3  T
     SCC iter.                  ...        0 min,  0.032 sec
     gradient                   ...        0 min,  0.060 sec
 * total energy  :   -83.6238812 Eh     change       -0.3850134E-04 Eh
   gradient norm :     0.0026833 Eh/α   predicted    -0.2112961E-04 ( -45.12%)
   displ. norm   :     0.1057195 α      lambda       -0.3353618E-04
   maximum displ.:     0.0566871 α      in ANC's #9, #3, #8, ...

........................................................................
.............................. CYCLE   46 ..............................
........................................................................
   1    -84.3616662 -0.843617E+02  0.434E-03    0.47       0.0  T
   2    -84.3616668 -0.591052E-06  0.165E-03    0.47       9.4  T
   3    -84.3616668 -0.322985E-07  0.865E-04    0.47      17.8  T
   4    -84.3616668 -0.169835E-07  0.342E-04    0.47      45.1  T
   5    -84.3616668 -0.128668E-08  0.827E-05    0.47     186.5  T
   6    -84.3616668 -0.580798E-10  0.306E-05    0.47     504.7  T
     SCC iter.                  ...        0 min,  0.032 sec
     gradient                   ...        0 min,  0.045 sec
 * total energy  :   -83.6239117 Eh     change       -0.3053073E-04 Eh
   gradient norm :     0.0028229 Eh/α   predicted    -0.1695662E-04 ( -44.46%)
   displ. norm   :     0.4508483 α      lambda       -0.1309080E-03
   maximum displ.:     0.2463195 α      in ANC's #9, #3, #8, ...

........................................................................
.............................. CYCLE   47 ..............................
........................................................................
   1    -84.3577569 -0.843578E+02  0.226E-02    0.46       0.0  T
   2    -84.3577660 -0.906272E-05  0.967E-03    0.45       1.6  T
   3    -84.3577662 -0.207463E-06  0.420E-03    0.45       3.7  T
   4    -84.3577665 -0.286838E-06  0.176E-03    0.45       8.8  T
   5    -84.3577666 -0.617219E-07  0.355E-04    0.45      43.4  T
   6    -84.3577666 -0.895199E-09  0.138E-04    0.45     111.4  T
   7    -84.3577666 -0.200671E-09  0.270E-05    0.45     572.3  T
     SCC iter.                  ...        0 min,  0.023 sec
     gradient                   ...        0 min,  0.038 sec
 * total energy  :   -83.6238468 Eh     change        0.6490506E-04 Eh
   gradient norm :     0.0106900 Eh/α   predicted    -0.7876923E-04 (-221.36%)
   displ. norm   :     0.2797165 α      lambda       -0.3456501E-03
   maximum displ.:     0.1582315 α      in ANC's #9, #8, #10, ...

........................................................................
.............................. CYCLE   48 ..............................
........................................................................
   1    -84.3613414 -0.843613E+02  0.179E-02    0.45       0.0  T
   2    -84.3613464 -0.503385E-05  0.778E-03    0.46       2.0  T
   3    -84.3613465 -0.102290E-06  0.341E-03    0.46       4.5  T
   4    -84.3613467 -0.180707E-06  0.137E-03    0.46      11.2  T
   5    -84.3613467 -0.349502E-07  0.266E-04    0.46      58.1  T
   6    -84.3613467 -0.783885E-09  0.100E-04    0.46     154.0  T
   7    -84.3613467 -0.112777E-09  0.196E-05    0.46     789.2  T
     SCC iter.                  ...        0 min,  0.028 sec
     gradient                   ...        0 min,  0.064 sec
 * total energy  :   -83.6239626 Eh     change       -0.1157899E-03 Eh
   gradient norm :     0.0021373 Eh/α   predicted    -0.1863566E-03 (  60.94%)
   displ. norm   :     0.0607923 α      lambda       -0.1904083E-04
   maximum displ.:     0.0306240 α      in ANC's #9, #3, #5, ...

........................................................................
.............................. CYCLE   49 ..............................
........................................................................
   1    -84.3611826 -0.843612E+02  0.204E-03    0.46       0.0  T
   2    -84.3611827 -0.737582E-07  0.923E-04    0.46      16.7  T
   3    -84.3611827 -0.673502E-08  0.491E-04    0.46      31.4  T
   4    -84.3611827 -0.366536E-08  0.135E-04    0.46     114.7  T
   5    -84.3611827 -0.270802E-09  0.442E-05    0.46     348.9  T
     SCC iter.                  ...        0 min,  0.026 sec
     gradient                   ...        0 min,  0.056 sec
 * total energy  :   -83.6239801 Eh     change       -0.1753729E-04 Eh
   gradient norm :     0.0018815 Eh/α   predicted    -0.9558741E-05 ( -45.49%)
   displ. norm   :     0.4927871 α      lambda       -0.9029482E-04
   maximum displ.:     0.2464355 α      in ANC's #9, #5, #3, ...

........................................................................
.............................. CYCLE   50 ..............................
........................................................................
   1    -84.3573430 -0.843573E+02  0.204E-02    0.45       0.0  T
   2    -84.3573468 -0.380354E-05  0.983E-03    0.45       1.6  T
   3    -84.3573469 -0.997097E-07  0.467E-03    0.45       3.3  T
   4    -84.3573473 -0.417170E-06  0.122E-03    0.45      12.6  T
   5    -84.3573473 -0.221614E-07  0.373E-04    0.45      41.4  T
   6    -84.3573473 -0.230015E-08  0.138E-04    0.45     112.1  T
   7    -84.3573473 -0.284132E-09  0.298E-05    0.45     517.9  T
     SCC iter.                  ...        0 min,  0.035 sec
     gradient                   ...        0 min,  0.056 sec
 * total energy  :   -83.6238968 Eh     change        0.8328271E-04 Eh
   gradient norm :     0.0107265 Eh/α   predicted    -0.5002359E-04 (-160.06%)
   displ. norm   :     0.2087416 α      lambda       -0.2685022E-03
   maximum displ.:     0.1111931 α      in ANC's #9, #8, #3, ...

........................................................................
.............................. CYCLE   51 ..............................
........................................................................
   1    -84.3603019 -0.843603E+02  0.125E-02    0.45       0.0  T
   2    -84.3603030 -0.104966E-05  0.609E-03    0.45       2.5  T
   3    -84.3603030 -0.231879E-07  0.193E-03    0.45       8.0  T
   4    -84.3603030 -0.334231E-07  0.621E-04    0.45      24.9  T
   5    -84.3603030 -0.883820E-08  0.155E-04    0.45      99.6  T
   6    -84.3603030 -0.430674E-09  0.608E-05    0.45     253.7  T
     SCC iter.                  ...        0 min,  0.029 sec
     gradient                   ...        0 min,  0.056 sec
 * total energy  :   -83.6240302 Eh     change       -0.1333772E-03 Eh
   gradient norm :     0.0034439 Eh/α   predicted    -0.1400925E-03 (   5.03%)
   displ. norm   :     0.0155372 α      lambda       -0.1621664E-04
   maximum displ.:     0.0081610 α      in ANC's #5, #2, #13, ...

........................................................................
.............................. CYCLE   52 ..............................
........................................................................
   1    -84.3607934 -0.843608E+02  0.190E-03    0.45       0.0  T
   2    -84.3607935 -0.501006E-07  0.892E-04    0.45      17.3  T
   3    -84.3607935 -0.835911E-09  0.409E-04    0.45      37.7  T
   4    -84.3607935 -0.863736E-09  0.117E-04    0.45     131.9  T
   5    -84.3607935 -0.267519E-09  0.255E-05    0.45     605.2  T
     SCC iter.                  ...        0 min,  0.025 sec
     gradient                   ...        0 min,  0.057 sec
 * total energy  :   -83.6240439 Eh     change       -0.1372322E-04 Eh
   gradient norm :     0.0022654 Eh/α   predicted    -0.8127266E-05 ( -40.78%)
   displ. norm   :     0.0884628 α      lambda       -0.3925589E-04
   maximum displ.:     0.0499881 α      in ANC's #5, #2, #3, ...

........................................................................
.............................. CYCLE   53 ..............................
........................................................................
   1    -84.3617672 -0.843618E+02  0.410E-03    0.45       0.0  T
   2    -84.3617675 -0.322944E-06  0.187E-03    0.46       8.3  T
   3    -84.3617676 -0.112992E-07  0.979E-04    0.46      15.8  T
   4    -84.3617676 -0.422094E-08  0.282E-04    0.46      54.7  T
   5    -84.3617676 -0.134598E-08  0.677E-05    0.46     228.1  T
   6    -84.3617676 -0.201922E-09  0.138E-05    0.46    1122.1  T
     SCC iter.                  ...        0 min,  0.030 sec
     gradient                   ...        0 min,  0.055 sec
 * total energy  :   -83.6240712 Eh     change       -0.2729592E-04 Eh
   gradient norm :     0.0008734 Eh/α   predicted    -0.1977822E-04 ( -27.54%)
   displ. norm   :     0.2476323 α      lambda       -0.3548653E-04
   maximum displ.:     0.1342309 α      in ANC's #5, #9, #3, ...

........................................................................
.............................. CYCLE   54 ..............................
........................................................................
   1    -84.3620134 -0.843620E+02  0.472E-03    0.46       0.0  T
   2    -84.3620139 -0.549321E-06  0.210E-03    0.46       7.4  T
   3    -84.3620140 -0.409123E-07  0.105E-03    0.46      14.7  T
   4    -84.3620140 -0.712572E-08  0.290E-04    0.46      53.2  T
   5    -84.3620140 -0.127494E-08  0.991E-05    0.46     155.7  T
   6    -84.3620140 -0.252840E-09  0.339E-05    0.46     454.8  T
     SCC iter.                  ...        0 min,  0.031 sec
     gradient                   ...        0 min,  0.065 sec
 * total energy  :   -83.6241180 Eh     change       -0.4675894E-04 Eh
   gradient norm :     0.0020066 Eh/α   predicted    -0.1822020E-04 ( -61.03%)
   displ. norm   :     0.6269335 α      lambda       -0.1229411E-03
   maximum displ.:     0.3393430 α      in ANC's #5, #9, #3, ...

........................................................................
.............................. CYCLE   55 ..............................
........................................................................
   1    -84.3574791 -0.843575E+02  0.194E-02    0.46       0.0  T
   2    -84.3574810 -0.182761E-05  0.103E-02    0.46       1.5  T
   3    -84.3574810 -0.455071E-07  0.388E-03    0.46       4.0  T
   4    -84.3574812 -0.221016E-06  0.889E-04    0.46      17.3  T
   5    -84.3574812 -0.899706E-08  0.325E-04    0.46      47.5  T
   6    -84.3574813 -0.233587E-08  0.106E-04    0.46     146.1  T
   7    -84.3574813 -0.341885E-09  0.217E-05    0.46     709.7  T
     SCC iter.                  ...        0 min,  0.039 sec
     gradient                   ...        0 min,  0.059 sec
 * total energy  :   -83.6240069 Eh     change        0.1111340E-03 Eh
   gradient norm :     0.0121576 Eh/α   predicted    -0.8547763E-04 (-176.91%)
   displ. norm   :     0.3483103 α      lambda       -0.4810808E-03
   maximum displ.:     0.1768239 α      in ANC's #5, #9, #3, ...

........................................................................
.............................. CYCLE   56 ..............................
........................................................................
   1    -84.3616316 -0.843616E+02  0.160E-02    0.46       0.0  T
   2    -84.3616324 -0.790018E-06  0.875E-03    0.46       1.8  T
   3    -84.3616324 -0.359917E-08  0.261E-03    0.45       5.9  T
   4    -84.3616325 -0.102170E-06  0.594E-04    0.45      26.0  T
   5    -84.3616325 -0.393132E-08  0.185E-04    0.45      83.6  T
   6    -84.3616325 -0.501132E-09  0.562E-05    0.45     274.6  T
     SCC iter.                  ...        0 min,  0.033 sec
     gradient                   ...        0 min,  0.057 sec
 * total energy  :   -83.6241698 Eh     change       -0.1629556E-03 Eh
   gradient norm :     0.0019390 Eh/α   predicted    -0.2703178E-03 (  65.88%)
   displ. norm   :     0.1194653 α      lambda       -0.1863505E-04
   maximum displ.:     0.0717703 α      in ANC's #5, #3, #9, ...

........................................................................
.............................. CYCLE   57 ..............................
........................................................................
   1    -84.3613776 -0.843614E+02  0.245E-03    0.45       0.0  T
   2    -84.3613778 -0.115498E-06  0.108E-03    0.45      14.3  T
   3    -84.3613778 -0.667409E-08  0.511E-04    0.45      30.2  T
   4    -84.3613778 -0.282294E-08  0.163E-04    0.45      94.9  T
   5    -84.3613778 -0.262375E-09  0.418E-05    0.45     369.5  T
     SCC iter.                  ...        0 min,  0.027 sec
     gradient                   ...        0 min,  0.058 sec
 * total energy  :   -83.6241945 Eh     change       -0.2466873E-04 Eh
   gradient norm :     0.0017334 Eh/α   predicted    -0.9340072E-05 ( -62.14%)
   displ. norm   :     0.6900039 α      lambda       -0.8699529E-04
   maximum displ.:     0.4195362 α      in ANC's #5, #3, #9, ...

........................................................................
.............................. CYCLE   58 ..............................
........................................................................
   1    -84.3563328 -0.843563E+02  0.196E-02    0.45       0.0  T
   2    -84.3563364 -0.367892E-05  0.101E-02    0.44       1.5  T
   3    -84.3563365 -0.856894E-07  0.385E-03    0.44       4.0  T
   4    -84.3563367 -0.159983E-06  0.118E-03    0.44      13.1  T
   5    -84.3563367 -0.277186E-07  0.321E-04    0.44      48.1  T
   6    -84.3563367 -0.169761E-08  0.117E-04    0.44     132.3  T
   7    -84.3563367 -0.323155E-09  0.332E-05    0.44     464.5  T
     SCC iter.                  ...        0 min,  0.038 sec
     gradient                   ...        0 min,  0.058 sec
 * total energy  :   -83.6240591 Eh     change        0.1354436E-03 Eh
   gradient norm :     0.0132376 Eh/α   predicted    -0.5103515E-04 (-137.68%)
   displ. norm   :     0.2160285 α      lambda       -0.5548592E-03
   maximum displ.:     0.1213539 α      in ANC's #5, #9, #3, ...

........................................................................
.............................. CYCLE   59 ..............................
........................................................................
   1    -84.3598193 -0.843598E+02  0.112E-02    0.44       0.0  T
   2    -84.3598195 -0.230790E-06  0.632E-03    0.44       2.4  T
   3    -84.3598195  0.470476E-08  0.131E-03    0.44      11.7  T
   4    -84.3598195 -0.362087E-07  0.362E-04    0.44      42.6  T
   5    -84.3598195 -0.199219E-08  0.110E-04    0.44     139.7  T
   6    -84.3598195 -0.268386E-09  0.351E-05    0.44     439.9  T
     SCC iter.                  ...        0 min,  0.034 sec
     gradient                   ...        0 min,  0.059 sec
 * total energy  :   -83.6242504 Eh     change       -0.1913917E-03 Eh
   gradient norm :     0.0046197 Eh/α   predicted    -0.1956823E-03 (   2.24%)
   displ. norm   :     0.0214545 α      lambda       -0.7135786E-04
   maximum displ.:     0.0095072 α      in ANC's #7, #4, #8, ...

........................................................................
.............................. CYCLE   60 ..............................
........................................................................
   1    -84.3607511 -0.843608E+02  0.277E-03    0.44       0.0  T
   2    -84.3607511 -0.243004E-07  0.152E-03    0.43      10.2  T
   3    -84.3607511 -0.921247E-09  0.352E-04    0.43      43.8  T
   4    -84.3607511 -0.780517E-09  0.862E-05    0.43     179.1  T
   5    -84.3607511 -0.167574E-09  0.284E-05    0.43     543.7  T
     SCC iter.                  ...        0 min,  0.027 sec
     gradient                   ...        0 min,  0.058 sec
 * total energy  :   -83.6242726 Eh     change       -0.2213106E-04 Eh
   gradient norm :     0.0023102 Eh/α   predicted    -0.1529389E-04 ( -30.89%)
   displ. norm   :     0.0560514 α      lambda       -0.9330139E-04
   maximum displ.:     0.0344127 α      in ANC's #5, #4, #3, ...

........................................................................
.............................. CYCLE   61 ..............................
........................................................................
   1    -84.3614845 -0.843615E+02  0.252E-03    0.43       0.0  T
   2    -84.3614846 -0.693868E-07  0.126E-03    0.43      12.3  T
   3    -84.3614846 -0.108024E-08  0.521E-04    0.43      29.6  T
   4    -84.3614846 -0.114314E-08  0.152E-04    0.43     101.6  T
   5    -84.3614846 -0.844622E-09  0.317E-05    0.43     486.2  T
     SCC iter.                  ...        0 min,  0.027 sec
     gradient                   ...        0 min,  0.058 sec
 * total energy  :   -83.6242882 Eh     change       -0.1558795E-04 Eh
   gradient norm :     0.0007875 Eh/α   predicted    -0.1086915E-04 ( -30.27%)
[...]
H31-C4-C3=110.98               H31-C4-H29=109.77              H31-C4-H30=109.31              N7-C6-C3=116.41                
C24-C6-C3=121.18               C24-C6-N7=122.35               C8-N7-C6=121.39                C9-C8-N7=120.77                
N21-C8-N7=121.06               N21-C8-C9=118.16               C10-C9-C8=110.66               C11-C9-C8=110.83               
C11-C9-C10=110.55              N12-C9-C8=105.43               N12-C9-C10=109.84              N12-C9-C11=109.41              
H32-C10-C9=110.43              H33-C10-C9=109.55              H33-C10-H32=108.69             H34-C10-C9=110.07              
H34-C10-H32=109.09             H34-C10-H33=108.99             
 
 selected dihedral angles (degree)
 ---------------------------------
C3-O2-C1-H26=168.68           C3-O2-C1-H27=287.60           C3-O2-C1-H28= 49.38           C4-C3-O2-C1=208.27            
O5-C3-O2-C1=330.92            C6-C3-O2-C1= 96.54            H29-C4-C3-O2=181.73           H29-C4-C3-O5= 60.86           
H29-C4-C3-C6=290.79           H30-C4-C3-O2= 63.02           H30-C4-C3-O5=302.15           H30-C4-C3-C6=172.09           
H31-C4-C3-O2=302.97           H31-C4-C3-O5=182.10           H31-C4-C3-C6= 52.03           N7-C6-C3-O2=342.37            
N7-C6-C3-C4=236.51            N7-C6-C3-O5=106.44            C24-C6-C3-O2=165.21           C24-C6-C3-C4= 59.35           
C24-C6-C3-O5=289.27           C8-N7-C6-C3=183.03            C8-N7-C6-C24=  0.16           C9-C8-N7-C6=181.30            
N21-C8-N7-C6=  1.31           C10-C9-C8-N7=245.73           C10-C9-C8-N21= 65.72          C11-C9-C8-N7=122.72           
C11-C9-C8-N21=302.71          N12-C9-C8-N7=  4.43           N12-C9-C8-N21=184.43          H32-C10-C9-C8=180.63          
H32-C10-C9-C11=303.81         H32-C10-C9-N12= 64.63         H33-C10-C9-C8=300.31          H33-C10-C9-C11= 63.48         
H33-C10-C9-N12=184.31         H34-C10-C9-C8= 60.13          H34-C10-C9-C11=183.30         H34-C10-C9-N12=304.13         
           -------------------------------------------------
          |                Final Singlepoint                |
           -------------------------------------------------

          ...................................................
          :                      SETUP                      :
          :.................................................:
          :  # basis functions                 134          :
          :  # atomic orbitals                 134          :
          :  # shells                           84          :
          :  # electrons                       136          :
          :  # halogen bonds                     0          :
          :  max. iterations                   250          :
          :  Hamiltonian                  GFN1-xTB          :
          :  restarted?                      false          :
          :  GBSA solvation                   true          :
          :  PC potential                    false          :
          :  electronic temp.          300.0000000     K    :
          :  accuracy                    1.0000000          :
          :  -> integral cutoff          0.2500000E+02      :
          :  -> integral neglect         0.1000000E-07      :
          :  -> SCF convergence          0.1000000E-05 Eh   :
          :  -> wf. convergence          0.2000000E-04 e    :
          :  Broyden damping             0.4000000          :
          ...................................................

 iter      E             dE          RMSdq      gap      omega  full diag
   1    -84.3614447 -0.843614E+02  0.136E-05    0.44       0.0  T
   2    -84.3614447 -0.753175E-12  0.752E-06    0.44    2052.2  T
   3    -84.3614447 -0.241585E-12  0.264E-06    0.44    5847.3  T

   *** convergence criteria satisfied after 3 iterations ***

         #    Occupation            Energy/Eh            Energy/eV
      -------------------------------------------------------------
         1        2.0000           -0.8527519             -23.2046
       ...           ...                  ...                  ...
        62        2.0000           -0.4028068             -10.9609
        63        2.0000           -0.3847565             -10.4698
        64        2.0000           -0.3806563             -10.3582
        65        2.0000           -0.3475278              -9.4567
        66        2.0000           -0.3346622              -9.1066
        67        2.0000           -0.3151904              -8.5768
        68        1.9996           -0.3102404              -8.4421 (HOMO)
        69        0.0004           -0.2940015              -8.0002 (LUMO)
        70                         -0.2467835              -6.7153
        71                         -0.2178388              -5.9277
        72                         -0.2026661              -5.5148
        73                         -0.1823120              -4.9610
       ...                                ...                  ...
       134                          0.7434274              20.2297
      -------------------------------------------------------------
                  HL-Gap            0.0162389 Eh            0.4419 eV
             Fermi-level           -0.3021184 Eh           -8.2211 eV

 SCC (total)                   0 d,  0 h,  0 min,  0.114 sec
 SCC setup                      ...        0 min,  0.002 sec (  1.655%)
 Dispersion                     ...        0 min,  0.000 sec (  0.248%)
 classical contributions        ...        0 min,  0.000 sec (  0.079%)
 integral evaluation            ...        0 min,  0.029 sec ( 24.927%)
 iterations                     ...        0 min,  0.018 sec ( 15.701%)
 molecular gradient             ...        0 min,  0.064 sec ( 56.176%)
 printout                       ...        0 min,  0.001 sec (  1.188%)

         :::::::::::::::::::::::::::::::::::::::::::::::::::::
         ::                     SUMMARY                     ::
         :::::::::::::::::::::::::::::::::::::::::::::::::::::
         :: total energy             -83.624567397033 Eh    ::
         :: total w/o Gsasa/hb       -83.607060064857 Eh    ::
         :: gradient norm              0.000570132507 Eh/a0 ::
         :: HOMO-LUMO gap              0.441882459321 eV    ::
         ::.................................................::
         :: SCC energy               -84.361444673867 Eh    ::
         :: -> electrostatic           0.778113900123 Eh    ::
         :: -> Gsolv                  -0.308484040719 Eh    ::
         ::    -> Gelec               -0.290976708543 Eh    ::
         ::    -> Gsasa               -0.022744317079 Eh    ::
         ::    -> Ghb                 -0.002387294101 Eh    ::
         ::    -> Gshift               0.007624279005 Eh    ::
         :: repulsion energy           0.763937934041 Eh    ::
         :: dispersion energy         -0.027060657207 Eh    ::
         :: halogen bond corr.         0.000000000000 Eh    ::
         :: add. restraining           0.000000000000 Eh    ::
         :: total charge              -1.999999999995 e     ::
         :::::::::::::::::::::::::::::::::::::::::::::::::::::

           -------------------------------------------------
          |                Property Printout                |
           -------------------------------------------------

    * Orbital Energies and Occupations

         #    Occupation            Energy/Eh            Energy/eV
      -------------------------------------------------------------
         1        2.0000           -0.8527519             -23.2046
       ...           ...                  ...                  ...
        56        2.0000           -0.4421302             -12.0310
        57        2.0000           -0.4374254             -11.9030
        58        2.0000           -0.4328019             -11.7771
        59        2.0000           -0.4266006             -11.6084
        60        2.0000           -0.4167051             -11.3391
        61        2.0000           -0.4116109             -11.2005
        62        2.0000           -0.4028068             -10.9609
        63        2.0000           -0.3847565             -10.4698
        64        2.0000           -0.3806563             -10.3582
        65        2.0000           -0.3475278              -9.4567
        66        2.0000           -0.3346622              -9.1066
        67        2.0000           -0.3151904              -8.5768
        68        1.9996           -0.3102404              -8.4421 (HOMO)
        69        0.0004           -0.2940015              -8.0002 (LUMO)
        70                         -0.2467835              -6.7153
        71                         -0.2178388              -5.9277
        72                         -0.2026661              -5.5148
        73                         -0.1823120              -4.9610
        74                         -0.1386674              -3.7733
        75                         -0.1156509              -3.1470
        76                         -0.1077990              -2.9334
        77                         -0.0884480              -2.4068
        78                         -0.0836437              -2.2761
        79                         -0.0820222              -2.2319
       ...                                ...                  ...
       134                          0.7434274              20.2297
      -------------------------------------------------------------
                  HL-Gap            0.0162389 Eh            0.4419 eV
             Fermi-level           -0.3021184 Eh           -8.2211 eV

  Mulliken/CM5 charges         n(s)   n(p)   n(d)
     1C     0.20318  0.08931   0.953  2.844  0.000
     2O    -0.57069 -0.65075   1.729  4.841  0.000
     3C     0.46041  0.49930   1.005  2.535  0.000
     4C    -0.10968 -0.24876   1.016  3.094  0.000
     5O    -0.82938 -0.87517   1.752  5.078  0.000
     6C     0.00794  0.08459   1.079  2.913  0.000
     7N    -0.39140 -0.58714   1.530  3.862  0.000
     8C     0.20103  0.34991   0.993  2.806  0.000
     9C     0.15162  0.19194   1.064  2.784  0.000
    10C    -0.10194 -0.24162   1.017  3.085  0.000
    11C    -0.10410 -0.24377   1.017  3.087  0.000
    12N    -0.31927 -0.66638   1.432  3.888  0.000
    13C     0.45915  0.57035   0.972  2.569  0.000
    14O    -0.59564 -0.64000   1.729  4.867  0.000
    15C     0.33065  0.45666   1.013  2.656  0.000
    16N    -0.23405 -0.34841   1.566  3.668  0.000
    17N    -0.27032 -0.37954   1.565  3.705  0.000
    18C     0.38416  0.49329   1.005  2.611  0.000
    19C    -0.11056 -0.24805   1.011  3.100  0.000
    20O    -0.34634 -0.39759   1.693  4.653  0.000
    21N    -0.32296 -0.67019   1.435  3.888  0.000
    22C     0.39602  0.49702   1.011  2.593  0.000
    23O    -0.66878 -0.70507   1.744  4.925  0.000
    24C     0.24012  0.28280   1.029  2.731  0.000
    25O    -0.70501 -0.74641   1.753  4.952  0.000
    26H    -0.02220  0.04047   1.022  0.000  0.000
    27H    -0.02841  0.03489   1.028  0.000  0.000
    28H    -0.00984  0.05312   1.010  0.000  0.000
    29H     0.00641  0.06605   0.994  0.000  0.000
    30H    -0.00747  0.04910   1.007  0.000  0.000
    31H    -0.01450  0.04161   1.014  0.000  0.000
    32H     0.04725  0.10670   0.953  0.000  0.000
    33H     0.03455  0.09059   0.965  0.000  0.000
    34H     0.03517  0.09176   0.965  0.000  0.000
    35H     0.03568  0.09197   0.964  0.000  0.000
    36H     0.04843  0.10828   0.952  0.000  0.000
    37H     0.03436  0.09096   0.966  0.000  0.000
    38H     0.23917  0.45341   0.761  0.000  0.000
    39H     0.06540  0.12128   0.935  0.000  0.000
    40H     0.07442  0.12889   0.926  0.000  0.000
    41H     0.07384  0.12843   0.926  0.000  0.000
    42H     0.23357  0.43619   0.766  0.000  0.000

Wiberg/Mayer (AO) data.
largest (>0.10) Wiberg bond orders for each atom

 ---------------------------------------------------------------------------
     #   Z sym  total        # sym  WBO       # sym  WBO       # sym  WBO
 ---------------------------------------------------------------------------
     1   6 C    3.946 --     2 O    0.992    26 H    0.982    27 H    0.975
                            28 H    0.972
     2   8 O    1.919 --     1 C    0.992     3 C    0.740
     3   6 C    3.887 --     5 O    1.256     4 C    0.932     6 C    0.906
                             2 O    0.740
     4   6 C    3.987 --    31 H    0.991    30 H    0.988    29 H    0.983
                             3 C    0.932
     5   8 O    1.532 --     3 C    1.256
     6   6 C    3.922 --    24 C    1.334     7 N    1.248     3 C    0.906
                            25 O    0.136
     7   7 N    3.075 --     8 C    1.537     6 C    1.248
     8   6 C    3.924 --     7 N    1.537    21 N    1.107     9 C    0.976
     9   6 C    3.932 --    11 C    0.984    10 C    0.983     8 C    0.976
                            12 N    0.925
    10   6 C    3.992 --    34 H    0.986    33 H    0.985     9 C    0.983
                            32 H    0.982
    11   6 C    3.992 --    37 H    0.986     9 C    0.984    35 H    0.984
                            36 H    0.982
    12   7 N    3.391 --    13 C    1.306     9 C    0.925    38 H    0.869
                            14 O    0.188
    13   6 C    3.925 --    14 O    1.557    12 N    1.306    15 C    0.980
    14   8 O    1.880 --    13 C    1.557    12 N    0.188
    15   6 C    3.869 --    16 N    1.621    20 O    1.058    13 C    0.980
    16   7 N    3.020 --    15 C    1.621    17 N    1.191
    17   7 N    2.982 --    18 C    1.616    16 N    1.191
    18   6 C    3.875 --    17 N    1.616    20 O    1.080    19 C    1.030
    19   6 C    3.988 --    18 C    1.030    39 H    0.983    41 H    0.966
                            40 H    0.964
    20   8 O    2.321 --    18 C    1.080    15 C    1.058
    21   7 N    3.418 --    22 C    1.139     8 C    1.107    42 H    0.907
                            23 O    0.126
    22   6 C    3.879 --    23 O    1.499    21 N    1.139    24 C    1.027
    23   8 O    1.793 --    22 C    1.499    21 N    0.126
    24   6 C    3.956 --    25 O    1.404     6 C    1.334    22 C    1.027
    25   8 O    1.737 --    24 C    1.404     6 C    0.136
    26   1 H    1.034 --     1 C    0.982
    27   1 H    1.036 --     1 C    0.975
    28   1 H    1.041 --     1 C    0.972
    29   1 H    1.038 --     4 C    0.983
    30   1 H    1.024 --     4 C    0.988
    31   1 H    1.017 --     4 C    0.991
    32   1 H    1.011 --    10 C    0.982
    33   1 H    1.004 --    10 C    0.985
    34   1 H    1.006 --    10 C    0.986
    35   1 H    1.004 --    11 C    0.984
    36   1 H    1.011 --    11 C    0.982
    37   1 H    1.006 --    11 C    0.986
    38   1 H    0.984 --    12 N    0.869
    39   1 H    1.000 --    19 C    0.983
    40   1 H    0.998 --    19 C    0.964
    41   1 H    0.998 --    19 C    0.966
    42   1 H    0.960 --    21 N    0.907
 ---------------------------------------------------------------------------

Topologies differ in total number of bonds
Writing topology from bond orders to xtbtopo.mol

 dipole moment from electron density (au)
     X       Y       Z   
  14.0350   1.2982   0.9014  total (Debye):   35.899

           -------------------------------------------------
          |                Geometry Summary                 |
           -------------------------------------------------

      molecular mass/u    :      351.3152409
   center of mass at/Å    :       -0.2524313      -0.0976512       0.0143012
  moments of inertia/u·Å² :        0.1440781E+04   0.3581754E+04   0.4772158E+04
rotational constants/cm⁻¹ :        0.1170035E-01   0.4706530E-02   0.3532497E-02

 * 35 selected distances

     #   Z          #   Z                                           value/Å
     1   6 C        2   8 O                                       1.3979984
     3   6 C        5   8 O                                       1.2929392
     6   6 C        7   7 N                                       1.3620955
     7   7 N        8   6 C                                       1.2930054
     9   6 C       10   6 C                                       1.5362490 (max)
     9   6 C       11   6 C                                       1.5361877
     9   6 C       12   7 N                                       1.4615714
    12   7 N       13   6 C                                       1.3338781
    13   6 C       14   8 O                                       1.2249540
    15   6 C       16   7 N                                       1.2968800
    17   7 N       18   6 C                                       1.2953986
    18   6 C       19   6 C                                       1.4794909
    15   6 C       20   8 O                                       1.3484853
    18   6 C       20   8 O                                       1.3419712
     8   6 C       21   7 N                                       1.3753204
    21   7 N       22   6 C                                       1.3780209
    22   6 C       23   8 O                                       1.2444533
     6   6 C       24   6 C                                       1.4103013
     1   6 C       26   1 H                                       1.0970939
     1   6 C       27   1 H                                       1.1061572
     1   6 C       28   1 H                                       1.1047943
     4   6 C       29   1 H                                       1.0889129
     4   6 C       30   1 H                                       1.0901147
     4   6 C       31   1 H                                       1.0901044
    10   6 C       32   1 H                                       1.0884239
    10   6 C       33   1 H                                       1.0882877
    10   6 C       34   1 H                                       1.0894637
    11   6 C       35   1 H                                       1.0880316
    11   6 C       36   1 H                                       1.0883596
    11   6 C       37   1 H                                       1.0895657
    12   7 N       38   1 H                                       1.0245210
    19   6 C       39   1 H                                       1.0870002
    19   6 C       40   1 H                                       1.0894991
    19   6 C       41   1 H                                       1.0893641
    21   7 N       42   1 H                                       1.0047526 (min)

 * 5 distinct bonds (by element types)

   Z      Z             #   av. dist./Å        max./Å        min./Å
   1 H    6 C          15     1.0916782     1.1061572     1.0870002
   6 C    6 C           4     1.4905572     1.5362490     1.4103013
   1 H    7 N           2     1.0146368     1.0245210     1.0047526
   6 C    7 N           8     1.3495213     1.4615714     1.2930054
   6 C    8 O           6     1.3084669     1.3979984     1.2249540


optimized geometry written to: xtbopt.xyz


           -------------------------------------------------
          | TOTAL ENERGY              -83.624567397033 Eh   |
          | GRADIENT NORM               0.000570132507 Eh/α |
          | HOMO-LUMO GAP               0.441882459321 eV   |
           -------------------------------------------------

------------------------------------------------------------------------
 * finished run on 2023/06/21 at 17:02:30.638     
------------------------------------------------------------------------
 total:
 * wall-time:     0 d,  0 h,  0 min, 10.245 sec
 *  cpu-time:     0 d,  0 h,  0 min, 10.087 sec
 * ratio c/w:     0.985 speedup
 SCF:
 * wall-time:     0 d,  0 h,  0 min,  0.184 sec
 *  cpu-time:     0 d,  0 h,  0 min,  0.183 sec
 * ratio c/w:     0.995 speedup
 ANC optimizer:
 * wall-time:     0 d,  0 h,  0 min,  9.943 sec
 *  cpu-time:     0 d,  0 h,  0 min,  9.864 sec
 * ratio c/w:     0.992 speedup

