      -----------------------------------------------------------      
     |                   =====================                   |     
     |                           x T B                           |     
     |                   =====================                   |     
     |                         S. Grimme                         |     
     |          Mulliken Center for Theoretical Chemistry        |     
     |                    University of Bonn                     |     
      -----------------------------------------------------------      

   * xtb version 6.5.1 (579679a) compiled by 'ehlert@majestix' on 2022-07-11

   xtb is free software: you can redistribute it and/or modify it under
   the terms of the GNU Lesser General Public License as published by
   the Free Software Foundation, either version 3 of the License, or
   (at your option) any later version.
   
   xtb is distributed in the hope that it will be useful,
   but WITHOUT ANY WARRANTY; without even the implied warranty of
   MERCHANTABILITY or FITNESS FOR A PARTICULAR PURPOSE.  See the
   GNU Lesser General Public License for more details.
   
   Cite this work as:
   * C. Bannwarth, E. Caldeweyher, S. Ehlert, A. Hansen, P. Pracht,
     J. Seibert, S. Spicher, S. Grimme, WIREs Comput. Mol. Sci., 2020, 11,
     e01493. DOI: 10.1002/wcms.1493
   
   for GFN2-xTB:
   * C. Bannwarth, S. Ehlert and S. Grimme., J. Chem. Theory Comput., 2019,
     15, 1652-1671. DOI: 10.1021/acs.jctc.8b01176
   for GFN1-xTB:
   * S. Grimme, C. Bannwarth, P. Shushkov, J. Chem. Theory Comput., 2017,
     13, 1989-2009. DOI: 10.1021/acs.jctc.7b00118
   for GFN0-xTB:
   * P. Pracht, E. Caldeweyher, S. Ehlert, S. Grimme, ChemRxiv, 2019, preprint.
     DOI: 10.26434/chemrxiv.8326202.v1
   for GFN-FF:
   * S. Spicher and S. Grimme, Angew. Chem. Int. Ed., 2020, 59, 15665-15673.
     DOI: 10.1002/anie.202004239
   
   for ALPB and GBSA implicit solvation:
   * S. Ehlert, M. Stahn, S. Spicher, S. Grimme, J. Chem. Theory Comput.,
     2021, 17, 4250-4261. DOI: 10.1021/acs.jctc.1c00471
   
   for DFT-D4:
   * E. Caldeweyher, C. Bannwarth and S. Grimme, J. Chem. Phys., 2017,
     147, 034112. DOI: 10.1063/1.4993215
   * E. Caldeweyher, S. Ehlert, A. Hansen, H. Neugebauer, S. Spicher,
     C. Bannwarth and S. Grimme, J. Chem. Phys., 2019, 150, 154122.
     DOI: 10.1063/1.5090222
   * E. Caldeweyher, J.-M. Mewes, S. Ehlert and S. Grimme, Phys. Chem. Chem. Phys.
     2020, 22, 8499-8512. DOI: 10.1039/D0CP00502A
   
   for sTDA-xTB:
   * S. Grimme and C. Bannwarth, J. Chem. Phys., 2016, 145, 054103.
     DOI: 10.1063/1.4959605
   
   in the mass-spec context:
   * V. Asgeirsson, C. Bauer and S. Grimme, Chem. Sci., 2017, 8, 4879.
     DOI: 10.1039/c7sc00601b
   * J. Koopman and S. Grimme, ACS Omega 2019, 4, 12, 15120-15133.
     DOI: 10.1021/acsomega.9b02011
   
   for metadynamics refer to:
   * S. Grimme, J. Chem. Theory Comput., 2019, 155, 2847-2862
     DOI: 10.1021/acs.jctc.9b00143
   
   for SPH calculations refer to:
   * S. Spicher and S. Grimme, J. Chem. Theory Comput., 2021, 17, 1701-1714
     DOI: 10.1021/acs.jctc.0c01306
   
   with help from (in alphabetical order)
   P. Atkinson, C. Bannwarth, F. Bohle, G. Brandenburg, E. Caldeweyher
   M. Checinski, S. Dohm, S. Ehlert, S. Ehrlich, I. Gerasimov, C. Hölzer
   A. Katbashev, J. Koopman, C. Lavigne, S. Lehtola, F. März, M. Müller,
   F. Musil, H. Neugebauer, J. Pisarek, C. Plett, P. Pracht, F. Pultar,
   J. Seibert, P. Shushkov, S. Spicher, M. Stahn, M. Steiner, T. Strunk,
   J. Stückrath, T. Rose, and J. Unsleber
   
 * started run on 2023/06/20 at 18:15:21.120     

           -------------------------------------------------
          |                Calculation Setup                |
           -------------------------------------------------

          program call               : /lustre/hpc/kemi/ree/PhD/git/ReactivityQM/dep/xtb-6.5.1/bin/xtb --gfn 1 /lustre/hpc/kemi/ree/PhD/git/ReactivityQM/calculations/R02deprot/reac01prodN08/conf20/R02deprot_reac01prodN08_conf20_gfn1.xyz --opt --vfukui --chrg 0 --uhf 0 --alpb DMSO
          hostname                   : node308
          coordinate file            : /lustre/hpc/kemi/ree/PhD/git/ReactivityQM/calculations/R02deprot/reac01prodN08/conf20/R02deprot_reac01prodN08_conf20_gfn1.xyz
          omp threads                :                     1

   ID    Z sym.   atoms
    1    6 C      1, 3, 5, 7-10, 12, 14, 17-19, 22, 24
    2    8 O      2, 4, 13, 20, 23, 25
    3    7 N      6, 11, 15, 16, 21
    4    1 H      26-42

           -------------------------------------------------
          |                 G F N 1 - x T B                 |
           -------------------------------------------------

        Reference                      10.1021/acs.jctc.7b00118
      * Hamiltonian:
        H0-scaling (s, p, d)           1.850000    2.250000    2.000000
        zeta-weighting                 0.000000
      * Dispersion:
        s8                             2.400000
        a1                             0.630000
        a2                             5.000000
        s9                             0.000000
      * Repulsion:
        kExp                           1.500000
        rExp                           1.000000
      * Coulomb:
        alpha                          2.000000
        third order                    atomic
        anisotropic                    false
      * Halogen bond correction:
        rad-scale                      1.300000
        damping                        0.440000

      * Solvation model:               ALPB
        Solvent                        DMSO
        Parameter file                 internal GFN1-xTB/ALPB
        Dielectric constant                4.6680E+01
        Reference state                gsolv [1 M gas/solution]
        Free energy shift                  7.6243E-03 Eh       4.7843E+00 kcal/mol
        Temperature                        2.9815E+02 K
        Density                            1.1000E+00 kg/L
        Solvent mass                       7.8130E+01 g/mol
        Interaction kernel             P16
        Born radius scaling (c1)           1.7672E+00
        Born radii integrator          GBOBC
        Born offset                        0.0000E+00 a0       0.0000E+00 AA
        H-bond correction              true
        Ion screening                  false
        Surface tension                    1.0000E-05 Eh       1.5569E+01 dyn/cm
        Grid points                               230 per atom

          ...................................................
          :                      SETUP                      :
          :.................................................:
          :  # basis functions                 134          :
          :  # atomic orbitals                 134          :
          :  # shells                           84          :
          :  # electrons                       134          :
          :  # halogen bonds                     0          :
          :  max. iterations                   250          :
          :  Hamiltonian                  GFN1-xTB          :
          :  restarted?                      false          :
          :  GBSA solvation                   true          :
          :  PC potential                    false          :
          :  electronic temp.          300.0000000     K    :
          :  accuracy                    1.0000000          :
          :  -> integral cutoff          0.2500000E+02      :
          :  -> integral neglect         0.1000000E-07      :
          :  -> SCF convergence          0.1000000E-05 Eh   :
          :  -> wf. convergence          0.2000000E-04 e    :
          :  Broyden damping             0.4000000          :
          ...................................................

 iter      E             dE          RMSdq      gap      omega  full diag
   1    -83.3967449 -0.833967E+02  0.850E+00    2.79       0.0  T
   2    -83.6888485 -0.292104E+00  0.505E+00    1.23       1.0  T
   3    -83.4097174  0.279131E+00  0.204E+00    0.07       1.0  T
   4    -83.6466134 -0.236896E+00  0.102E+00    2.64       1.0  T
   5    -83.6919518 -0.453384E-01  0.487E-01    1.91       1.0  T
   6    -83.6974626 -0.551083E-02  0.349E-01    1.35       1.0  T
   7    -83.7017844 -0.432173E-02  0.192E-01    0.73       1.0  T
   8    -83.7037138 -0.192943E-02  0.383E-02    0.19       1.0  T
   9    -83.7036490  0.648246E-04  0.352E-02    0.21       1.0  T
  10    -83.7018562  0.179274E-02  0.118E-01    0.12       1.0  T
  11    -83.7032605 -0.140431E-02  0.683E-02    0.28       1.0  T
  12    -83.7035809 -0.320358E-03  0.374E-02    0.22       1.0  T
  13    -83.7037425 -0.161564E-03  0.342E-03    0.19       4.5  T
  14    -83.7037438 -0.131372E-05  0.359E-04    0.18      43.0  T
  15    -83.7037438  0.127262E-07  0.397E-04    0.18      38.9  T
  16    -83.7037438 -0.158409E-07  0.191E-04    0.18      80.6  T
  17    -83.7037438 -0.443902E-08  0.338E-05    0.18     455.9  T

   *** convergence criteria satisfied after 17 iterations ***

         #    Occupation            Energy/Eh            Energy/eV
      -------------------------------------------------------------
         1        2.0000           -0.9216339             -25.0789
       ...           ...                  ...                  ...
        61        2.0000           -0.4554042             -12.3922
        62        2.0000           -0.4507698             -12.2661
        63        2.0000           -0.4443702             -12.0919
        64        2.0000           -0.4300715             -11.7028
        65        2.0000           -0.4129585             -11.2372
        66        2.0000           -0.3824538             -10.4071
        67        1.9434           -0.3755343             -10.2188 (HOMO)
        68        0.0567           -0.3688166             -10.0360 (LUMO)
        69                         -0.3525548              -9.5935
        70                         -0.2857674              -7.7761
        71                         -0.2370570              -6.4506
        72                         -0.2337348              -6.3602
       ...                                ...                  ...
       134                          0.7524734              20.4758
      -------------------------------------------------------------
                  HL-Gap            0.0067177 Eh            0.1828 eV
             Fermi-level           -0.3721751 Eh          -10.1274 eV

 SCC (total)                   0 d,  0 h,  0 min,  0.137 sec
 SCC setup                      ...        0 min,  0.002 sec (  1.516%)
 Dispersion                     ...        0 min,  0.000 sec (  0.288%)
 classical contributions        ...        0 min,  0.000 sec (  0.091%)
 integral evaluation            ...        0 min,  0.050 sec ( 36.469%)
 iterations                     ...        0 min,  0.042 sec ( 30.736%)
 molecular gradient             ...        0 min,  0.042 sec ( 30.484%)
 printout                       ...        0 min,  0.001 sec (  0.389%)

         :::::::::::::::::::::::::::::::::::::::::::::::::::::
         ::                     SUMMARY                     ::
         :::::::::::::::::::::::::::::::::::::::::::::::::::::
         :: total energy             -82.948144023593 Eh    ::
         :: total w/o Gsasa/hb       -82.923016208810 Eh    ::
         :: gradient norm              0.156325563357 Eh/a0 ::
         :: HOMO-LUMO gap              0.182798378522 eV    ::
         ::.................................................::
         :: SCC energy               -83.703743780105 Eh    ::
         :: -> electrostatic           0.438619322606 Eh    ::
         :: -> Gsolv                  -0.097417092417 Eh    ::
         ::    -> Gelec               -0.072289277634 Eh    ::
         ::    -> Gsasa               -0.025332964605 Eh    ::
         ::    -> Ghb                 -0.007419129182 Eh    ::
         ::    -> Gshift               0.007624279005 Eh    ::
         :: repulsion energy           0.780330710885 Eh    ::
         :: dispersion energy         -0.024730954373 Eh    ::
         :: halogen bond corr.         0.000000000000 Eh    ::
         :: add. restraining           0.000000000000 Eh    ::
         :: total charge               0.000000000002 e     ::
         :::::::::::::::::::::::::::::::::::::::::::::::::::::

      ----------------------------------------------------------- 
     |                   =====================                   |
     |                        A N C O P T                        |
     |                   =====================                   |
     |               Approximate Normal Coordinate               |
     |                Rational Function Optimizer                |
      ----------------------------------------------------------- 

          ...................................................
          :                      SETUP                      :
          :.................................................:
          :   optimization level            normal          :
          :   max. optcycles                   200          :
          :   ANC micro-cycles                  20          :
          :   degrees of freedom               120          :
          :.................................................:
          :   RF solver                   davidson          :
          :   write xtbopt.log                true          :
          :   linear?                        false          :
          :   energy convergence         0.5000000E-05 Eh   :
          :   grad. convergence          0.1000000E-02 Eh/α :
          :   maximium RF displ.         1.0000000          :
          :   Hlow (freq-cutoff)         0.1000000E-01      :
          :   Hmax (freq-cutoff)         5.0000000          :
          :   S6 in model hess.         20.0000000          :
          ...................................................

generating ANC from model Hessian ...
Using Lindh-Hessian (1995)
 Shifting diagonal of input Hessian by   9.796903354315708E-003
 Lowest  eigenvalues of input Hessian
    0.000000    0.000000    0.000000    0.000000    0.000000    0.000000
    0.010000    0.010136    0.010295    0.010739    0.011616    0.012711
    0.013230    0.014365    0.014758    0.015497    0.015892    0.017273
 Highest eigenvalues
    2.022604    2.083004    2.193765    2.258580    2.296529    2.389764
 

........................................................................
.............................. CYCLE    1 ..............................
........................................................................
   1    -83.7037438 -0.837037E+02  0.287E-05    0.18       0.0  T
   2    -83.7037438  0.428457E-09  0.649E-05    0.18     237.9  T
   3    -83.7037438 -0.530449E-09  0.149E-06    0.18   10334.7  T
     SCC iter.                  ...        0 min,  0.008 sec
     gradient                   ...        0 min,  0.042 sec
 * total energy  :   -82.9481440 Eh     change       -0.1321041E-09 Eh
   gradient norm :     0.1563215 Eh/α   predicted     0.0000000E+00 (-100.00%)
   displ. norm   :     0.2866067 α      lambda       -0.2329344E-01
   maximum displ.:     0.0772666 α      in ANC's #20, #25, #26, ...

........................................................................
.............................. CYCLE    2 ..............................
........................................................................
   1    -83.7303346 -0.837303E+02  0.997E-02    0.57       0.0  T
   2    -83.7307709 -0.436287E-03  0.427E-02    0.40       1.0  T
   3    -83.7308243 -0.534080E-04  0.228E-02    0.36       1.0  T
   4    -83.7308305 -0.621555E-05  0.986E-03    0.32       1.6  T
   5    -83.7308308 -0.372098E-06  0.403E-03    0.32       3.8  T
   6    -83.7308311 -0.208156E-06  0.693E-04    0.32      22.3  T
   7    -83.7308311 -0.151145E-07  0.254E-04    0.32      60.9  T
   8    -83.7308311 -0.172841E-08  0.965E-05    0.32     159.9  T
   9    -83.7308311 -0.163567E-09  0.413E-05    0.32     374.0  T
     SCC iter.                  ...        0 min,  0.022 sec
     gradient                   ...        0 min,  0.041 sec
 * total energy  :   -82.9653628 Eh     change       -0.1721873E-01 Eh
   gradient norm :     0.0835919 Eh/α   predicted    -0.1261427E-01 ( -26.74%)
   displ. norm   :     0.3047360 α      lambda       -0.1138464E-01
   maximum displ.:     0.1030460 α      in ANC's #20, #18, #25, ...

........................................................................
.............................. CYCLE    3 ..............................
........................................................................
   1    -83.7531744 -0.837532E+02  0.896E-02    0.72       0.0  T
   2    -83.7533967 -0.222347E-03  0.369E-02    0.70       1.0  T
   3    -83.7534182 -0.214599E-04  0.206E-02    0.70       1.0  T
   4    -83.7534190 -0.792722E-06  0.469E-03    0.70       3.3  T
   5    -83.7534192 -0.182491E-06  0.860E-04    0.70      18.0  T
   6    -83.7534192 -0.213672E-07  0.257E-04    0.70      60.1  T
   7    -83.7534192 -0.131968E-08  0.101E-04    0.70     152.7  T
   8    -83.7534192 -0.668336E-10  0.289E-05    0.70     534.3  T
     SCC iter.                  ...        0 min,  0.020 sec
     gradient                   ...        0 min,  0.041 sec
 * total energy  :   -82.9714555 Eh     change       -0.6092723E-02 Eh
   gradient norm :     0.0228151 Eh/α   predicted    -0.6222864E-02 (   2.14%)
   displ. norm   :     0.2087451 α      lambda       -0.1315649E-02
   maximum displ.:     0.0897486 α      in ANC's #6, #18, #1, ...

........................................................................
.............................. CYCLE    4 ..............................
........................................................................
   1    -83.7523467 -0.837523E+02  0.178E-02    0.71       0.0  T
   2    -83.7523591 -0.123963E-04  0.853E-03    0.72       1.8  T
   3    -83.7523600 -0.954280E-06  0.448E-03    0.72       3.4  T
   4    -83.7523600 -0.141793E-08  0.116E-03    0.72      13.3  T
   5    -83.7523600 -0.270590E-07  0.308E-04    0.72      50.0  T
   6    -83.7523600 -0.259391E-08  0.958E-05    0.72     161.0  T
   7    -83.7523600 -0.179355E-09  0.180E-05    0.72     859.0  T
     SCC iter.                  ...        0 min,  0.017 sec
     gradient                   ...        0 min,  0.041 sec
 * total energy  :   -82.9724643 Eh     change       -0.1008780E-02 Eh
   gradient norm :     0.0122752 Eh/α   predicted    -0.6868179E-03 ( -31.92%)
   displ. norm   :     0.3194161 α      lambda       -0.1123265E-02
   maximum displ.:     0.1524878 α      in ANC's #6, #1, #11, ...

........................................................................
.............................. CYCLE    5 ..............................
........................................................................
   1    -83.7519462 -0.837519E+02  0.190E-02    0.73       0.0  T
   2    -83.7519595 -0.133056E-04  0.948E-03    0.75       1.6  T
   3    -83.7519609 -0.134748E-05  0.541E-03    0.75       2.9  T
   4    -83.7519609 -0.503834E-07  0.146E-03    0.75      10.6  T
   5    -83.7519610 -0.391498E-07  0.353E-04    0.75      43.7  T
   6    -83.7519610 -0.381995E-08  0.981E-05    0.75     157.3  T
   7    -83.7519610 -0.157158E-09  0.226E-05    0.75     683.1  T
     SCC iter.                  ...        0 min,  0.017 sec
     gradient                   ...        0 min,  0.041 sec
 * total energy  :   -82.9731936 Eh     change       -0.7293885E-03 Eh
   gradient norm :     0.0075601 Eh/α   predicted    -0.6189836E-03 ( -15.14%)
   displ. norm   :     0.2359412 α      lambda       -0.3696745E-03
   maximum displ.:     0.1246062 α      in ANC's #6, #1, #2, ...

........................................................................
.............................. CYCLE    6 ..............................
........................................................................
   1    -83.7525444 -0.837525E+02  0.790E-03    0.76       0.0  T
   2    -83.7525463 -0.190694E-05  0.363E-03    0.76       4.3  T
   3    -83.7525466 -0.285237E-06  0.221E-03    0.76       7.0  T
   4    -83.7525466 -0.271986E-07  0.571E-04    0.77      27.0  T
   5    -83.7525466 -0.247898E-08  0.133E-04    0.77     116.4  T
   6    -83.7525466 -0.503164E-09  0.330E-05    0.77     467.4  T
     SCC iter.                  ...        0 min,  0.015 sec
     gradient                   ...        0 min,  0.041 sec
 * total energy  :   -82.9734756 Eh     change       -0.2819718E-03 Eh
   gradient norm :     0.0076762 Eh/α   predicted    -0.1952842E-03 ( -30.74%)
   displ. norm   :     0.3105674 α      lambda       -0.3729122E-03
   maximum displ.:     0.1759098 α      in ANC's #6, #1, #2, ...

........................................................................
.............................. CYCLE    7 ..............................
........................................................................
   1    -83.7531910 -0.837532E+02  0.902E-03    0.77       0.0  T
   2    -83.7531932 -0.221072E-05  0.383E-03    0.77       4.0  T
   3    -83.7531935 -0.262742E-06  0.222E-03    0.77       7.0  T
   4    -83.7531935 -0.186254E-07  0.647E-04    0.77      23.8  T
   5    -83.7531935 -0.408470E-08  0.135E-04    0.77     114.2  T
   6    -83.7531935 -0.561101E-09  0.278E-05    0.77     555.3  T
     SCC iter.                  ...        0 min,  0.015 sec
     gradient                   ...        0 min,  0.041 sec
 * total energy  :   -82.9737551 Eh     change       -0.2795152E-03 Eh
   gradient norm :     0.0064870 Eh/α   predicted    -0.2044407E-03 ( -26.86%)
   displ. norm   :     0.3135231 α      lambda       -0.2920237E-03
   maximum displ.:     0.1766165 α      in ANC's #6, #1, #2, ...

........................................................................
.............................. CYCLE    8 ..............................
........................................................................
   1    -83.7536977 -0.837537E+02  0.792E-03    0.77       0.0  T
   2    -83.7536998 -0.212630E-05  0.366E-03    0.77       4.2  T
   3    -83.7537000 -0.158771E-06  0.194E-03    0.77       7.9  T
   4    -83.7537000 -0.426081E-08  0.594E-04    0.77      26.0  T
   5    -83.7537000 -0.296095E-08  0.116E-04    0.77     132.8  T
   6    -83.7537000 -0.475481E-09  0.259E-05    0.77     594.8  T
     SCC iter.                  ...        0 min,  0.015 sec
     gradient                   ...        0 min,  0.041 sec
 * total energy  :   -82.9739744 Eh     change       -0.2193116E-03 Eh
   gradient norm :     0.0058223 Eh/α   predicted    -0.1603654E-03 ( -26.88%)
   displ. norm   :     0.2967518 α      lambda       -0.2472581E-03
   maximum displ.:     0.1771933 α      in ANC's #1, #6, #2, ...

........................................................................
.............................. CYCLE    9 ..............................
........................................................................
   1    -83.7544743 -0.837545E+02  0.619E-03    0.77       0.0  T
   2    -83.7544759 -0.159849E-05  0.291E-03    0.77       5.3  T
   3    -83.7544760 -0.114131E-06  0.149E-03    0.77      10.4  T
   4    -83.7544760 -0.397988E-08  0.499E-04    0.76      30.9  T
   5    -83.7544760 -0.931266E-09  0.107E-04    0.76     144.4  T
   6    -83.7544760 -0.319304E-09  0.240E-05    0.76     643.6  T
     SCC iter.                  ...        0 min,  0.015 sec
     gradient                   ...        0 min,  0.042 sec
 * total energy  :   -82.9741724 Eh     change       -0.1979830E-03 Eh
   gradient norm :     0.0057993 Eh/α   predicted    -0.1345164E-03 ( -32.06%)
   displ. norm   :     0.3468974 α      lambda       -0.2676741E-03
   maximum displ.:     0.2136499 α      in ANC's #1, #6, #2, ...

........................................................................
.............................. CYCLE   10 ..............................
........................................................................
   1    -83.7549940 -0.837550E+02  0.631E-03    0.76       0.0  T
   2    -83.7549957 -0.163174E-05  0.248E-03    0.76       6.2  T
   3    -83.7549958 -0.164029E-06  0.123E-03    0.76      12.6  T
   4    -83.7549959 -0.679157E-08  0.497E-04    0.75      31.0  T
   5    -83.7549959 -0.826020E-09  0.144E-04    0.75     107.2  T
   6    -83.7549959 -0.566573E-09  0.273E-05    0.75     565.1  T
     SCC iter.                  ...        0 min,  0.015 sec
     gradient                   ...        0 min,  0.041 sec
 * total energy  :   -82.9743847 Eh     change       -0.2122567E-03 Eh
   gradient norm :     0.0060690 Eh/α   predicted    -0.1499476E-03 ( -29.36%)
   displ. norm   :     0.3683127 α      lambda       -0.2495887E-03
   maximum displ.:     0.2346499 α      in ANC's #1, #6, #2, ...

........................................................................
.............................. CYCLE   11 ..............................
........................................................................
   1    -83.7551610 -0.837552E+02  0.585E-03    0.75       0.0  T
   2    -83.7551622 -0.119979E-05  0.241E-03    0.75       6.4  T
   3    -83.7551623 -0.159409E-06  0.118E-03    0.75      13.1  T
   4    -83.7551624 -0.528573E-08  0.446E-04    0.75      34.6  T
   5    -83.7551624 -0.139042E-08  0.109E-04    0.75     141.9  T
   6    -83.7551624 -0.288935E-09  0.219E-05    0.75     706.0  T
     SCC iter.                  ...        0 min,  0.015 sec
     gradient                   ...        0 min,  0.042 sec
 * total energy  :   -82.9745835 Eh     change       -0.1988513E-03 Eh
   gradient norm :     0.0056869 Eh/α   predicted    -0.1417244E-03 ( -28.73%)
   displ. norm   :     0.3529551 α      lambda       -0.2085257E-03
   maximum displ.:     0.2368337 α      in ANC's #1, #2, #6, ...

........................................................................
.............................. CYCLE   12 ..............................
........................................................................
   1    -83.7553603 -0.837554E+02  0.542E-03    0.75       0.0  T
   2    -83.7553612 -0.842449E-06  0.259E-03    0.75       6.0  T
   3    -83.7553612 -0.674615E-07  0.137E-03    0.75      11.3  T
   4    -83.7553613 -0.350958E-08  0.400E-04    0.75      38.6  T
   5    -83.7553613 -0.180829E-08  0.928E-05    0.75     166.4  T
   6    -83.7553613 -0.272294E-09  0.231E-05    0.75     668.8  T
     SCC iter.                  ...        0 min,  0.015 sec
     gradient                   ...        0 min,  0.041 sec
 * total energy  :   -82.9747474 Eh     change       -0.1638377E-03 Eh
   gradient norm :     0.0044997 Eh/α   predicted    -0.1172530E-03 ( -28.43%)
   displ. norm   :     0.2772746 α      lambda       -0.1423897E-03
   maximum displ.:     0.1974055 α      in ANC's #1, #2, #4, ...

........................................................................
.............................. CYCLE   13 ..............................
........................................................................
   1    -83.7556674 -0.837557E+02  0.505E-03    0.76       0.0  T
   2    -83.7556683 -0.948778E-06  0.229E-03    0.76       6.7  T
   3    -83.7556684 -0.558186E-07  0.117E-03    0.76      13.2  T
   4    -83.7556684 -0.256794E-08  0.385E-04    0.77      40.0  T
   5    -83.7556684 -0.530576E-09  0.721E-05    0.77     213.9  T
   6    -83.7556684 -0.130512E-09  0.199E-05    0.77     774.8  T
     SCC iter.                  ...        0 min,  0.015 sec
     gradient                   ...        0 min,  0.041 sec
 * total energy  :   -82.9748633 Eh     change       -0.1159560E-03 Eh
   gradient norm :     0.0032898 Eh/α   predicted    -0.7667002E-04 ( -33.88%)
   displ. norm   :     0.2190590 α      lambda       -0.1092726E-03
   maximum displ.:     0.1638234 α      in ANC's #1, #4, #2, ...

........................................................................
.............................. CYCLE   14 ..............................
........................................................................
   1    -83.7562202 -0.837562E+02  0.431E-03    0.77       0.0  T
   2    -83.7562208 -0.676160E-06  0.167E-03    0.78       9.2  T
   3    -83.7562209 -0.540907E-07  0.822E-04    0.78      18.8  T
   4    -83.7562209 -0.260805E-08  0.327E-04    0.78      47.1  T
   5    -83.7562209 -0.503817E-09  0.843E-05    0.78     183.1  T
   6    -83.7562209 -0.218563E-09  0.202E-05    0.78     762.0  T
     SCC iter.                  ...        0 min,  0.015 sec
     gradient                   ...        0 min,  0.042 sec
 * total energy  :   -82.9749566 Eh     change       -0.9327810E-04 Eh
   gradient norm :     0.0030592 Eh/α   predicted    -0.5725908E-04 ( -38.61%)
   displ. norm   :     0.2008610 α      lambda       -0.9891850E-04
   maximum displ.:     0.1509054 α      in ANC's #1, #4, #2, ...

........................................................................
.............................. CYCLE   15 ..............................
........................................................................
   1    -83.7561132 -0.837561E+02  0.347E-03    0.78       0.0  T
   2    -83.7561137 -0.429934E-06  0.131E-03    0.78      11.8  T
   3    -83.7561137 -0.357167E-07  0.667E-04    0.78      23.1  T
   4    -83.7561137 -0.153412E-08  0.260E-04    0.78      59.3  T
   5    -83.7561137 -0.448409E-09  0.682E-05    0.79     226.1  T
   6    -83.7561137 -0.130356E-09  0.172E-05    0.79     899.2  T
     SCC iter.                  ...        0 min,  0.015 sec
     gradient                   ...        0 min,  0.045 sec
 * total energy  :   -82.9750422 Eh     change       -0.8560540E-04 Eh
   gradient norm :     0.0030240 Eh/α   predicted    -0.5145763E-04 ( -39.89%)
   displ. norm   :     0.2056360 α      lambda       -0.1007697E-03
   maximum displ.:     0.1552369 α      in ANC's #1, #4, #2, ...

........................................................................
.............................. CYCLE   16 ..............................
........................................................................
   1    -83.7568845 -0.837569E+02  0.352E-03    0.79       0.0  T
   2    -83.7568848 -0.316879E-06  0.164E-03    0.79       9.4  T
   3    -83.7568848 -0.179380E-07  0.874E-04    0.79      17.7  T
   4    -83.7568848 -0.160992E-08  0.236E-04    0.79      65.4  T
   5    -83.7568848 -0.813188E-09  0.526E-05    0.79     293.5  T
   6    -83.7568848 -0.590745E-10  0.149E-05    0.79    1035.2  T
     SCC iter.                  ...        0 min,  0.015 sec
     gradient                   ...        0 min,  0.045 sec
 * total energy  :   -82.9751256 Eh     change       -0.8340875E-04 Eh
   gradient norm :     0.0034965 Eh/α   predicted    -0.5251598E-04 ( -37.04%)
   displ. norm   :     0.2119973 α      lambda       -0.9514667E-04
   maximum displ.:     0.1589354 α      in ANC's #1, #4, #2, ...

........................................................................
.............................. CYCLE   17 ..............................
........................................................................
   1    -83.7559546 -0.837560E+02  0.390E-03    0.79       0.0  T
   2    -83.7559549 -0.308937E-06  0.200E-03    0.79       7.7  T
   3    -83.7559549 -0.161701E-07  0.978E-04    0.79      15.8  T
   4    -83.7559549 -0.326931E-08  0.246E-04    0.79      62.8  T
   5    -83.7559549 -0.506617E-09  0.466E-05    0.79     331.2  T
   6    -83.7559549 -0.311502E-10  0.121E-05    0.79    1273.9  T
     SCC iter.                  ...        0 min,  0.015 sec
     gradient                   ...        0 min,  0.042 sec
 * total energy  :   -82.9752012 Eh     change       -0.7561319E-04 Eh
   gradient norm :     0.0027941 Eh/α   predicted    -0.4971268E-04 ( -34.25%)
   displ. norm   :     0.1758943 α      lambda       -0.6549413E-04
   maximum displ.:     0.1358179 α      in ANC's #1, #4, #2, ...

........................................................................
.............................. CYCLE   18 ..............................
........................................................................
   1    -83.7562777 -0.837563E+02  0.276E-03    0.79       0.0  T
   2    -83.7562779 -0.267506E-06  0.149E-03    0.79      10.3  T
   3    -83.7562780 -0.355400E-07  0.732E-04    0.79      21.1  T
   4    -83.7562780 -0.199110E-08  0.233E-04    0.79      66.2  T
   5    -83.7562780 -0.451138E-09  0.559E-05    0.79     276.2  T
   6    -83.7562780 -0.806182E-10  0.128E-05    0.79    1208.7  T
     SCC iter.                  ...        0 min,  0.015 sec
     gradient                   ...        0 min,  0.042 sec
 * total energy  :   -82.9752564 Eh     change       -0.5513429E-04 Eh
   gradient norm :     0.0020024 Eh/α   predicted    -0.3376093E-04 ( -38.77%)
   displ. norm   :     0.1259290 α      lambda       -0.4194973E-04
   maximum displ.:     0.1015261 α      in ANC's #1, #4, #2, ...

........................................................................
.............................. CYCLE   19 ..............................
........................................................................
   1    -83.7564001 -0.837564E+02  0.232E-03    0.79       0.0  T
   2    -83.7564003 -0.211193E-06  0.107E-03    0.79      14.4  T
   3    -83.7564004 -0.281981E-07  0.486E-04    0.79      31.7  T
   4    -83.7564004 -0.107045E-08  0.197E-04    0.79      78.4  T
   5    -83.7564004 -0.248221E-09  0.455E-05    0.79     339.2  T
     SCC iter.                  ...        0 min,  0.012 sec
     gradient                   ...        0 min,  0.042 sec
 * total energy  :   -82.9752935 Eh     change       -0.3712974E-04 Eh
   gradient norm :     0.0014201 Eh/α   predicted    -0.2130928E-04 ( -42.61%)
   displ. norm   :     0.1439655 α      lambda       -0.3330962E-04
   maximum displ.:     0.1202867 α      in ANC's #1, #4, #3, ...

........................................................................
.............................. CYCLE   20 ..............................
........................................................................
   1    -83.7566186 -0.837566E+02  0.288E-03    0.79       0.0  T
   2    -83.7566190 -0.403216E-06  0.125E-03    0.79      12.4  T
   3    -83.7566191 -0.509855E-07  0.493E-04    0.79      31.3  T
   4    -83.7566191 -0.131784E-08  0.250E-04    0.79      61.6  T
   5    -83.7566191 -0.277780E-09  0.531E-05    0.79     290.7  T
   6    -83.7566191 -0.641904E-10  0.138E-05    0.79    1120.0  T
     SCC iter.                  ...        0 min,  0.015 sec
     gradient                   ...        0 min,  0.042 sec
 * total energy  :   -82.9753375 Eh     change       -0.4395453E-04 Eh
   gradient norm :     0.0015666 Eh/α   predicted    -0.1681372E-04 ( -61.75%)
   displ. norm   :     0.1298132 α      lambda       -0.3074221E-04
   maximum displ.:     0.1083613 α      in ANC's #1, #4, #3, ...
 * RMSD in coord.:     0.6162090 α      energy gain  -0.2719343E-01 Eh

generating ANC from model Hessian ...
Using Lindh-Hessian (1995)
 Shifting diagonal of input Hessian by   9.751831409767256E-003
 Lowest  eigenvalues of input Hessian
    0.000000    0.000000    0.000000    0.000000    0.000000    0.000000
    0.010000    0.010125    0.010306    0.010629    0.011514    0.012700
    0.012965    0.014086    0.015760    0.015947    0.016550    0.018027
 Highest eigenvalues
    2.153797    2.209731    2.229647    2.296740    2.380614    2.445490
 

........................................................................
.............................. CYCLE   21 ..............................
........................................................................
   1    -83.7564886 -0.837565E+02  0.130E-03    0.79       0.0  T
   2    -83.7564886 -0.502888E-07  0.590E-04    0.79      26.2  T
   3    -83.7564886 -0.564518E-08  0.305E-04    0.79      50.5  T
   4    -83.7564886 -0.325031E-09  0.967E-05    0.79     159.5  T
   5    -83.7564886 -0.811582E-10  0.274E-05    0.79     562.9  T
     SCC iter.                  ...        0 min,  0.012 sec
     gradient                   ...        0 min,  0.042 sec
 * total energy  :   -82.9753801 Eh     change       -0.4262048E-04 Eh
   gradient norm :     0.0018469 Eh/α   predicted     0.0000000E+00 (-100.00%)
   displ. norm   :     0.0586231 α      lambda       -0.1727810E-04
   maximum displ.:     0.0498343 α      in ANC's #1, #15, #6, ...

........................................................................
.............................. CYCLE   22 ..............................
........................................................................
   1    -83.7565810 -0.837566E+02  0.209E-03    0.79       0.0  T
   2    -83.7565812 -0.149420E-06  0.936E-04    0.79      16.5  T
   3    -83.7565812 -0.201466E-07  0.451E-04    0.79      34.2  T
   4    -83.7565812 -0.677872E-09  0.168E-04    0.79      91.6  T
   5    -83.7565812 -0.261082E-09  0.330E-05    0.79     468.2  T
     SCC iter.                  ...        0 min,  0.012 sec
     gradient                   ...        0 min,  0.042 sec
 * total energy  :   -82.9754079 Eh     change       -0.2787092E-04 Eh
   gradient norm :     0.0008391 Eh/α   predicted    -0.1050795E-04 ( -62.30%)
   displ. norm   :     0.1272462 α      lambda       -0.3720494E-04
   maximum displ.:     0.0975078 α      in ANC's #1, #15, #2, ...

........................................................................
.............................. CYCLE   23 ..............................
........................................................................
   1    -83.7565246 -0.837565E+02  0.352E-03    0.80       0.0  T
   2    -83.7565251 -0.535924E-06  0.150E-03    0.80      10.3  T
   3    -83.7565252 -0.729669E-07  0.613E-04    0.80      25.2  T
   4    -83.7565252 -0.147607E-08  0.286E-04    0.80      53.9  T
   5    -83.7565252 -0.439854E-09  0.616E-05    0.80     250.5  T
   6    -83.7565252 -0.932232E-10  0.142E-05    0.80    1084.8  T
     SCC iter.                  ...        0 min,  0.015 sec
     gradient                   ...        0 min,  0.042 sec
 * total energy  :   -82.9754551 Eh     change       -0.4712086E-04 Eh
   gradient norm :     0.0015228 Eh/α   predicted    -0.1873749E-04 ( -60.24%)
   displ. norm   :     0.1867866 α      lambda       -0.4464275E-04
   maximum displ.:     0.1385714 α      in ANC's #1, #2, #15, ...

........................................................................
.............................. CYCLE   24 ..............................
........................................................................
   1    -83.7562787 -0.837563E+02  0.275E-03    0.80       0.0  T
   2    -83.7562791 -0.339691E-06  0.119E-03    0.80      13.0  T
   3    -83.7562791 -0.450045E-07  0.509E-04    0.80      30.3  T
   4    -83.7562791 -0.112357E-08  0.229E-04    0.80      67.3  T
   5    -83.7562791 -0.266013E-09  0.534E-05    0.80     289.0  T
   6    -83.7562791 -0.640910E-10  0.137E-05    0.80    1122.7  T
     SCC iter.                  ...        0 min,  0.015 sec
     gradient                   ...        0 min,  0.042 sec
 * total energy  :   -82.9755102 Eh     change       -0.5515455E-04 Eh
   gradient norm :     0.0025166 Eh/α   predicted    -0.2266776E-04 ( -58.90%)
   displ. norm   :     0.1307575 α      lambda       -0.4128640E-04
   maximum displ.:     0.0974656 α      in ANC's #1, #2, #3, ...

........................................................................
.............................. CYCLE   25 ..............................
........................................................................
   1    -83.7563537 -0.837564E+02  0.886E-04    0.80       0.0  T
   2    -83.7563537 -0.191941E-07  0.407E-04    0.80      37.9  T
   3    -83.7563537 -0.299400E-08  0.209E-04    0.80      73.7  T
   4    -83.7563537 -0.356081E-09  0.582E-05    0.80     265.1  T
   5    -83.7563537 -0.354419E-10  0.194E-05    0.80     796.3  T
     SCC iter.                  ...        0 min,  0.012 sec
     gradient                   ...        0 min,  0.042 sec
 * total energy  :   -82.9755476 Eh     change       -0.3741798E-04 Eh
   gradient norm :     0.0024410 Eh/α   predicted    -0.2099827E-04 ( -43.88%)
   displ. norm   :     0.1427032 α      lambda       -0.4447994E-04
   maximum displ.:     0.1064465 α      in ANC's #1, #2, #3, ...

........................................................................
.............................. CYCLE   26 ..............................
........................................................................
   1    -83.7565477 -0.837565E+02  0.107E-03    0.80       0.0  T
   2    -83.7565478 -0.276669E-07  0.471E-04    0.80      32.7  T
   3    -83.7565478 -0.281804E-08  0.242E-04    0.80      63.7  T
   4    -83.7565478 -0.431314E-09  0.737E-05    0.80     209.5  T
   5    -83.7565478 -0.252101E-10  0.220E-05    0.80     701.3  T
     SCC iter.                  ...        0 min,  0.012 sec
     gradient                   ...        0 min,  0.042 sec
 * total energy  :   -82.9755884 Eh     change       -0.4076673E-04 Eh
   gradient norm :     0.0018590 Eh/α   predicted    -0.2269456E-04 ( -44.33%)
   displ. norm   :     0.2380290 α      lambda       -0.4776576E-04
   maximum displ.:     0.1784887 α      in ANC's #1, #2, #3, ...

........................................................................
.............................. CYCLE   27 ..............................
........................................................................
   1    -83.7567305 -0.837567E+02  0.250E-03    0.80       0.0  T
   2    -83.7567307 -0.172686E-06  0.108E-03    0.80      14.3  T
   3    -83.7567307 -0.183713E-07  0.567E-04    0.80      27.2  T
   4    -83.7567307 -0.231130E-08  0.189E-04    0.80      81.8  T
   5    -83.7567307 -0.208317E-09  0.532E-05    0.80     290.2  T
     SCC iter.                  ...        0 min,  0.012 sec
     gradient                   ...        0 min,  0.042 sec
 * total energy  :   -82.9756504 Eh     change       -0.6204062E-04 Eh
   gradient norm :     0.0007367 Eh/α   predicted    -0.2448544E-04 ( -60.53%)
   displ. norm   :     0.2151851 α      lambda       -0.3777885E-04
   maximum displ.:     0.1627213 α      in ANC's #1, #2, #3, ...

........................................................................
.............................. CYCLE   28 ..............................
........................................................................
   1    -83.7567703 -0.837568E+02  0.206E-03    0.80       0.0  T
   2    -83.7567704 -0.129152E-06  0.919E-04    0.80      16.8  T
   3    -83.7567704 -0.169122E-07  0.466E-04    0.80      33.1  T
   4    -83.7567704 -0.190921E-08  0.159E-04    0.80      96.8  T
   5    -83.7567704 -0.134108E-09  0.449E-05    0.80     343.6  T
     SCC iter.                  ...        0 min,  0.012 sec
     gradient                   ...        0 min,  0.042 sec
 * total energy  :   -82.9757010 Eh     change       -0.5057362E-04 Eh
   gradient norm :     0.0011593 Eh/α   predicted    -0.1927899E-04 ( -61.88%)
   displ. norm   :     0.2046884 α      lambda       -0.3552638E-04
   maximum displ.:     0.1531511 α      in ANC's #1, #2, #3, ...

........................................................................
.............................. CYCLE   29 ..............................
........................................................................
   1    -83.7569437 -0.837569E+02  0.161E-03    0.80       0.0  T
   2    -83.7569438 -0.620674E-07  0.755E-04    0.80      20.4  T
   3    -83.7569438 -0.541489E-08  0.395E-04    0.80      39.1  T
   4    -83.7569438 -0.143186E-08  0.123E-04    0.80     125.4  T
   5    -83.7569438 -0.724611E-10  0.332E-05    0.80     464.9  T
     SCC iter.                  ...        0 min,  0.012 sec
     gradient                   ...        0 min,  0.042 sec
 * total energy  :   -82.9757495 Eh     change       -0.4846814E-04 Eh
   gradient norm :     0.0016504 Eh/α   predicted    -0.1809581E-04 ( -62.66%)
   displ. norm   :     0.2325451 α      lambda       -0.3976528E-04
   maximum displ.:     0.1699339 α      in ANC's #1, #3, #2, ...

........................................................................
.............................. CYCLE   30 ..............................
........................................................................
   1    -83.7569517 -0.837570E+02  0.161E-03    0.80       0.0  T
   2    -83.7569518 -0.727532E-07  0.771E-04    0.80      20.0  T
   3    -83.7569518 -0.631130E-08  0.372E-04    0.80      41.5  T
   4    -83.7569518 -0.118425E-08  0.130E-04    0.80     118.9  T
   5    -83.7569518 -0.181572E-09  0.396E-05    0.80     389.9  T
     SCC iter.                  ...        0 min,  0.012 sec
     gradient                   ...        0 min,  0.042 sec
 * total energy  :   -82.9758046 Eh     change       -0.5507792E-04 Eh
   gradient norm :     0.0017267 Eh/α   predicted    -0.2036186E-04 ( -63.03%)
   displ. norm   :     0.2891278 α      lambda       -0.4634182E-04
   maximum displ.:     0.2082173 α      in ANC's #1, #3, #2, ...

........................................................................
.............................. CYCLE   31 ..............................
........................................................................
   1    -83.7567856 -0.837568E+02  0.200E-03    0.81       0.0  T
   2    -83.7567857 -0.105087E-06  0.878E-04    0.81      17.6  T
   3    -83.7567857 -0.727078E-08  0.427E-04    0.81      36.1  T
   4    -83.7567857 -0.115811E-08  0.131E-04    0.81     117.6  T
   5    -83.7567857 -0.138002E-09  0.432E-05    0.81     356.8  T
     SCC iter.                  ...        0 min,  0.012 sec
     gradient                   ...        0 min,  0.042 sec
 * total energy  :   -82.9758668 Eh     change       -0.6218905E-04 Eh
   gradient norm :     0.0014608 Eh/α   predicted    -0.2403410E-04 ( -61.35%)
   displ. norm   :     0.3304872 α      lambda       -0.4604110E-04
   maximum displ.:     0.2378152 α      in ANC's #1, #3, #2, ...

........................................................................
.............................. CYCLE   32 ..............................
........................................................................
   1    -83.7567103 -0.837567E+02  0.247E-03    0.82       0.0  T
   2    -83.7567104 -0.171221E-06  0.102E-03    0.82      15.2  T
   3    -83.7567105 -0.119073E-07  0.516E-04    0.82      29.9  T
   4    -83.7567105 -0.148106E-08  0.141E-04    0.82     109.7  T
   5    -83.7567105 -0.176215E-09  0.507E-05    0.82     304.3  T
     SCC iter.                  ...        0 min,  0.012 sec
     gradient                   ...        0 min,  0.042 sec
 * total energy  :   -82.9759256 Eh     change       -0.5880795E-04 Eh
   gradient norm :     0.0011347 Eh/α   predicted    -0.2413902E-04 ( -58.95%)
   displ. norm   :     0.2735882 α      lambda       -0.3011679E-04
   maximum displ.:     0.2001820 α      in ANC's #1, #3, #2, ...

........................................................................
.............................. CYCLE   33 ..............................
........................................................................
   1    -83.7567555 -0.837568E+02  0.191E-03    0.82       0.0  T
   2    -83.7567556 -0.903371E-07  0.784E-04    0.82      19.7  T
   3    -83.7567556 -0.743655E-08  0.393E-04    0.82      39.3  T
   4    -83.7567556 -0.116533E-08  0.993E-05    0.83     155.4  T
   5    -83.7567556 -0.666205E-10  0.382E-05    0.83     403.6  T
     SCC iter.                  ...        0 min,  0.012 sec
     gradient                   ...        0 min,  0.042 sec
 * total energy  :   -82.9759616 Eh     change       -0.3604878E-04 Eh
   gradient norm :     0.0007226 Eh/α   predicted    -0.1556027E-04 ( -56.84%)
   displ. norm   :     0.1668685 α      lambda       -0.1572183E-04
   maximum displ.:     0.1262361 α      in ANC's #1, #3, #2, ...

........................................................................
.............................. CYCLE   34 ..............................
........................................................................
   1    -83.7570004 -0.837570E+02  0.133E-03    0.83       0.0  T
   2    -83.7570005 -0.490785E-07  0.539E-04    0.83      28.6  T
   3    -83.7570005 -0.406794E-08  0.280E-04    0.83      55.2  T
   4    -83.7570005 -0.426937E-09  0.778E-05    0.83     198.3  T
   5    -83.7570005 -0.642615E-10  0.283E-05    0.83     546.1  T
     SCC iter.                  ...        0 min,  0.013 sec
     gradient                   ...        0 min,  0.042 sec
 * total energy  :   -82.9759819 Eh     change       -0.2034135E-04 Eh
   gradient norm :     0.0005470 Eh/α   predicted    -0.7961208E-05 ( -60.86%)
   displ. norm   :     0.1294062 α      lambda       -0.1381173E-04
   maximum displ.:     0.0996993 α      in ANC's #1, #3, #2, ...

........................................................................
.............................. CYCLE   35 ..............................
........................................................................
   1    -83.7571713 -0.837572E+02  0.952E-04    0.83       0.0  T
   2    -83.7571713 -0.200232E-07  0.412E-04    0.83      37.4  T
   3    -83.7571713 -0.176898E-08  0.225E-04    0.83      68.5  T
   4    -83.7571713 -0.287073E-09  0.546E-05    0.83     282.4  T
   5    -83.7571713 -0.113687E-10  0.183E-05    0.83     842.4  T
     SCC iter.                  ...        0 min,  0.012 sec
     gradient                   ...        0 min,  0.042 sec
 * total energy  :   -82.9760007 Eh     change       -0.1874795E-04 Eh
   gradient norm :     0.0005714 Eh/α   predicted    -0.6960462E-05 ( -62.87%)
   displ. norm   :     0.1474463 α      lambda       -0.1749647E-04
   maximum displ.:     0.1107900 α      in ANC's #1, #6, #3, ...

........................................................................
.............................. CYCLE   36 ..............................
........................................................................
   1    -83.7571724 -0.837572E+02  0.100E-03    0.83       0.0  T
   2    -83.7571724 -0.313432E-07  0.444E-04    0.83      34.7  T
   3    -83.7571725 -0.258935E-08  0.231E-04    0.83      66.8  T
   4    -83.7571725 -0.270020E-09  0.796E-05    0.83     193.8  T
   5    -83.7571725 -0.414815E-10  0.214E-05    0.83     721.8  T
     SCC iter.                  ...        0 min,  0.012 sec
     gradient                   ...        0 min,  0.042 sec
 * total energy  :   -82.9760242 Eh     change       -0.2347495E-04 Eh
   gradient norm :     0.0006376 Eh/α   predicted    -0.8833513E-05 ( -62.37%)
   displ. norm   :     0.1718808 α      lambda       -0.1952089E-04
   maximum displ.:     0.1262535 α      in ANC's #1, #6, #5, ...

........................................................................
.............................. CYCLE   37 ..............................
........................................................................
   1    -83.7571321 -0.837571E+02  0.105E-03    0.83       0.0  T
   2    -83.7571321 -0.274701E-07  0.457E-04    0.84      33.8  T
   3    -83.7571321 -0.298945E-08  0.238E-04    0.84      64.9  T
   4    -83.7571321 -0.365517E-09  0.663E-05    0.84     232.7  T
   5    -83.7571321 -0.110134E-10  0.185E-05    0.84     835.7  T
     SCC iter.                  ...        0 min,  0.012 sec
     gradient                   ...        0 min,  0.042 sec
 * total energy  :   -82.9760498 Eh     change       -0.2562281E-04 Eh
   gradient norm :     0.0007445 Eh/α   predicted    -0.9889895E-05 ( -61.40%)
   displ. norm   :     0.1807670 α      lambda       -0.1842907E-04
   maximum displ.:     0.1301737 α      in ANC's #1, #6, #5, ...

........................................................................
.............................. CYCLE   38 ..............................
........................................................................
   1    -83.7570054 -0.837570E+02  0.110E-03    0.84       0.0  T
   2    -83.7570055 -0.295392E-07  0.520E-04    0.84      29.7  T
   3    -83.7570055 -0.333318E-08  0.271E-04    0.84      57.0  T
   4    -83.7570055 -0.457760E-09  0.766E-05    0.84     201.6  T
   5    -83.7570055 -0.298854E-10  0.233E-05    0.84     662.7  T
     SCC iter.                  ...        0 min,  0.012 sec
     gradient                   ...        0 min,  0.042 sec
 * total energy  :   -82.9760737 Eh     change       -0.2389620E-04 Eh
   gradient norm :     0.0007529 Eh/α   predicted    -0.9349381E-05 ( -60.88%)
   displ. norm   :     0.1611610 α      lambda       -0.1572488E-04
   maximum displ.:     0.1152185 α      in ANC's #1, #6, #5, ...

........................................................................
.............................. CYCLE   39 ..............................
........................................................................
   1    -83.7569924 -0.837570E+02  0.989E-04    0.84       0.0  T
   2    -83.7569924 -0.253792E-07  0.458E-04    0.84      33.7  T
   3    -83.7569924 -0.321467E-08  0.235E-04    0.84      65.8  T
   4    -83.7569924 -0.375564E-09  0.641E-05    0.84     240.6  T
   5    -83.7569924 -0.175646E-10  0.205E-05    0.84     751.6  T
     SCC iter.                  ...        0 min,  0.012 sec
     gradient                   ...        0 min,  0.042 sec
 * total energy  :   -82.9760954 Eh     change       -0.2170363E-04 Eh
   gradient norm :     0.0007908 Eh/α   predicted    -0.7953705E-05 ( -63.35%)
   displ. norm   :     0.1725332 α      lambda       -0.1885705E-04
   maximum displ.:     0.1212961 α      in ANC's #1, #5, #6, ...

........................................................................
.............................. CYCLE   40 ..............................
........................................................................
   1    -83.7569633 -0.837570E+02  0.110E-03    0.84       0.0  T
   2    -83.7569634 -0.241018E-07  0.513E-04    0.84      30.1  T
   3    -83.7569634 -0.221873E-08  0.270E-04    0.84      57.2  T
   4    -83.7569634 -0.460105E-09  0.667E-05    0.84     231.5  T
   5    -83.7569634 -0.335660E-10  0.214E-05    0.84     721.8  T
     SCC iter.                  ...        0 min,  0.012 sec
     gradient                   ...        0 min,  0.042 sec
 * total energy  :   -82.9761216 Eh     change       -0.2622562E-04 Eh
   gradient norm :     0.0007174 Eh/α   predicted    -0.9553515E-05 ( -63.57%)
   displ. norm   :     0.2053337 α      lambda       -0.2448542E-04
   maximum displ.:     0.1427082 α      in ANC's #1, #5, #4, ...

........................................................................
.............................. CYCLE   41 ..............................
........................................................................
   1    -83.7568472 -0.837568E+02  0.131E-03    0.84       0.0  T
   2    -83.7568473 -0.371627E-07  0.632E-04    0.84      24.4  T
   3    -83.7568473 -0.286624E-08  0.319E-04    0.84      48.4  T
   4    -83.7568473 -0.585899E-09  0.875E-05    0.84     176.4  T
   5    -83.7568473 -0.563176E-10  0.245E-05    0.84     628.8  T
     SCC iter.                  ...        0 min,  0.012 sec
     gradient                   ...        0 min,  0.042 sec
 * total energy  :   -82.9761552 Eh     change       -0.3360928E-04 Eh
   gradient norm :     0.0008270 Eh/α   predicted    -0.1247252E-04 ( -62.89%)
   displ. norm   :     0.2563578 α      lambda       -0.3142536E-04
   maximum displ.:     0.1774294 α      in ANC's #1, #5, #4, ...

........................................................................
.............................. CYCLE   42 ..............................
........................................................................
   1    -83.7567174 -0.837567E+02  0.167E-03    0.84       0.0  T
   2    -83.7567175 -0.542700E-07  0.820E-04    0.84      18.8  T
   3    -83.7567175 -0.336556E-08  0.393E-04    0.84      39.3  T
   4    -83.7567175 -0.727653E-09  0.114E-04    0.84     135.0  T
   5    -83.7567175 -0.141682E-09  0.306E-05    0.84     503.7  T
     SCC iter.                  ...        0 min,  0.012 sec
     gradient                   ...        0 min,  0.042 sec
 * total energy  :   -82.9761962 Eh     change       -0.4100392E-04 Eh
   gradient norm :     0.0008877 Eh/α   predicted    -0.1617261E-04 ( -60.56%)
   displ. norm   :     0.2580545 α      lambda       -0.2936489E-04
   maximum displ.:     0.1823532 α      in ANC's #1, #5, #4, ...
 * RMSD in coord.:     0.5586858 α      energy gain  -0.8587833E-03 Eh

generating ANC from model Hessian ...
Using Lindh-Hessian (1995)
 Shifting diagonal of input Hessian by   9.741476985202929E-003
 Lowest  eigenvalues of input Hessian
    0.000000    0.000000    0.000000    0.000000    0.000000    0.000000
    0.010000    0.010114    0.010309    0.010614    0.011515    0.012572
    0.012901    0.014055    0.015848    0.016039    0.016866    0.018020
 Highest eigenvalues
    2.157162    2.211904    2.228837    2.295102    2.380049    2.453037
 

........................................................................
.............................. CYCLE   43 ..............................
........................................................................
   1    -83.7566269 -0.837566E+02  0.164E-03    0.85       0.0  T
   2    -83.7566269 -0.627958E-07  0.840E-04    0.85      18.4  T
   3    -83.7566269 -0.397272E-08  0.403E-04    0.85      38.3  T
   4    -83.7566269 -0.684835E-09  0.130E-04    0.85     118.7  T
   5    -83.7566269 -0.223366E-09  0.349E-05    0.85     442.4  T
     SCC iter.                  ...        0 min,  0.012 sec
     gradient                   ...        0 min,  0.042 sec
 * total energy  :   -82.9762343 Eh     change       -0.3805130E-04 Eh
   gradient norm :     0.0010157 Eh/α   predicted     0.0000000E+00 (-100.00%)
   displ. norm   :     0.0386622 α      lambda       -0.1130482E-05
   maximum displ.:     0.0306518 α      in ANC's #1, #6, #7, ...

........................................................................
.............................. CYCLE   44 ..............................
........................................................................
   1    -83.7572996 -0.837573E+02  0.120E-03    0.85       0.0  T
   2    -83.7572996 -0.258500E-07  0.622E-04    0.85      24.8  T
   3    -83.7572996 -0.184697E-08  0.341E-04    0.85      45.2  T
   4    -83.7572996 -0.261764E-09  0.583E-05    0.85     264.9  T
   5    -83.7572996 -0.621014E-10  0.169E-05    0.85     913.0  T
     SCC iter.                  ...        0 min,  0.012 sec
     gradient                   ...        0 min,  0.042 sec
 * total energy  :   -82.9762464 Eh     change       -0.1215616E-04 Eh
   gradient norm :     0.0005321 Eh/α   predicted    -0.4749049E-05 ( -60.93%)
   displ. norm   :     0.0862004 α      lambda       -0.1619571E-04
   maximum displ.:     0.0630442 α      in ANC's #1, #6, #15, ...

........................................................................
.............................. CYCLE   45 ..............................
........................................................................
   1    -83.7576284 -0.837576E+02  0.118E-03    0.85       0.0  T
   2    -83.7576285 -0.329173E-07  0.559E-04    0.85      27.6  T
   3    -83.7576285 -0.353154E-08  0.296E-04    0.85      52.1  T
   4    -83.7576285 -0.376218E-09  0.880E-05    0.85     175.4  T
   5    -83.7576285 -0.106894E-09  0.183E-05    0.85     843.3  T
     SCC iter.                  ...        0 min,  0.012 sec
     gradient                   ...        0 min,  0.042 sec
 * total energy  :   -82.9762662 Eh     change       -0.1976593E-04 Eh
   gradient norm :     0.0008834 Eh/α   predicted    -0.8127081E-05 ( -58.88%)
   displ. norm   :     0.1058605 α      lambda       -0.1479872E-04
   maximum displ.:     0.0794785 α      in ANC's #1, #6, #7, ...

........................................................................
.............................. CYCLE   46 ..............................
........................................................................
   1    -83.7574116 -0.837574E+02  0.125E-03    0.85       0.0  T
   2    -83.7574116 -0.350787E-07  0.620E-04    0.85      24.9  T
   3    -83.7574116 -0.615444E-08  0.340E-04    0.85      45.4  T
   4    -83.7574116 -0.697227E-09  0.746E-05    0.85     207.0  T
   5    -83.7574116 -0.832898E-10  0.180E-05    0.85     857.1  T
     SCC iter.                  ...        0 min,  0.012 sec
     gradient                   ...        0 min,  0.042 sec
 * total energy  :   -82.9762827 Eh     change       -0.1649532E-04 Eh
   gradient norm :     0.0008128 Eh/α   predicted    -0.7455215E-05 ( -54.80%)
   displ. norm   :     0.0762699 α      lambda       -0.9331465E-05
   maximum displ.:     0.0620214 α      in ANC's #1, #6, #15, ...

........................................................................
.............................. CYCLE   47 ..............................
........................................................................
   1    -83.7573014 -0.837573E+02  0.861E-04    0.84       0.0  T
   2    -83.7573014 -0.196841E-07  0.403E-04    0.84      38.3  T
   3    -83.7573014 -0.249224E-08  0.222E-04    0.84      69.7  T
   4    -83.7573014 -0.346262E-09  0.627E-05    0.84     245.9  T
   5    -83.7573014 -0.411120E-10  0.171E-05    0.84     903.6  T
     SCC iter.                  ...        0 min,  0.012 sec
     gradient                   ...        0 min,  0.042 sec
 * total energy  :   -82.9762932 Eh     change       -0.1054188E-04 Eh
   gradient norm :     0.0006752 Eh/α   predicted    -0.4680136E-05 ( -55.60%)
   displ. norm   :     0.0500125 α      lambda       -0.6455879E-05
   maximum displ.:     0.0440614 α      in ANC's #1, #6, #12, ...

........................................................................
.............................. CYCLE   48 ..............................
........................................................................
   1    -83.7572918 -0.837573E+02  0.495E-04    0.84       0.0  T
   2    -83.7572918 -0.703295E-08  0.224E-04    0.84      68.9  T
   3    -83.7572918 -0.387061E-09  0.110E-04    0.84     139.9  T
   4    -83.7572918 -0.587619E-10  0.338E-05    0.84     456.2  T
     SCC iter.                  ...        0 min,  0.010 sec
     gradient                   ...        0 min,  0.042 sec
 * total energy  :   -82.9763020 Eh     change       -0.8803901E-05 Eh
   gradient norm :     0.0004808 Eh/α   predicted    -0.3238233E-05 ( -63.22%)
   displ. norm   :     0.0529271 α      lambda       -0.7910880E-05
   maximum displ.:     0.0458189 α      in ANC's #1, #12, #21, ...

........................................................................
.............................. CYCLE   49 ..............................
........................................................................
   1    -83.7572519 -0.837573E+02  0.633E-04    0.84       0.0  T
   2    -83.7572519 -0.806858E-08  0.286E-04    0.84      54.0  T
   3    -83.7572519 -0.707317E-09  0.153E-04    0.84     100.9  T
   4    -83.7572519 -0.172605E-09  0.422E-05    0.84     365.7  T
     SCC iter.                  ...        0 min,  0.010 sec
     gradient                   ...        0 min,  0.042 sec
 * total energy  :   -82.9763126 Eh     change       -0.1055209E-04 Eh
   gradient norm :     0.0003797 Eh/α   predicted    -0.3961532E-05 ( -62.46%)
   displ. norm   :     0.0702083 α      lambda       -0.9172436E-05
   maximum displ.:     0.0582111 α      in ANC's #1, #12, #6, ...

........................................................................
.............................. CYCLE   50 ..............................
........................................................................
   1    -83.7572059 -0.837572E+02  0.890E-04    0.85       0.0  T
   2    -83.7572059 -0.139978E-07  0.413E-04    0.85      37.3  T
   3    -83.7572059 -0.259146E-08  0.228E-04    0.85      67.7  T
   4    -83.7572059 -0.602498E-09  0.472E-05    0.85     326.9  T
   5    -83.7572059 -0.109139E-10  0.168E-05    0.85     918.0  T
     SCC iter.                  ...        0 min,  0.012 sec
     gradient                   ...        0 min,  0.042 sec
 * total energy  :   -82.9763244 Eh     change       -0.1176021E-04 Eh
   gradient norm :     0.0004841 Eh/α   predicted    -0.4597450E-05 ( -60.91%)
   displ. norm   :     0.0745223 α      lambda       -0.8328168E-05
   maximum displ.:     0.0614643 α      in ANC's #1, #6, #12, ...

........................................................................
.............................. CYCLE   51 ..............................
........................................................................
   1    -83.7571477 -0.837571E+02  0.930E-04    0.85       0.0  T
   2    -83.7571478 -0.166164E-07  0.419E-04    0.85      36.8  T
   3    -83.7571478 -0.310810E-08  0.222E-04    0.85      69.5  T
   4    -83.7571478 -0.547601E-09  0.449E-05    0.85     344.0  T
   5    -83.7571478 -0.159588E-10  0.184E-05    0.85     838.4  T
     SCC iter.                  ...        0 min,  0.012 sec
     gradient                   ...        0 min,  0.042 sec
 * total energy  :   -82.9763351 Eh     change       -0.1073399E-04 Eh
   gradient norm :     0.0005417 Eh/α   predicted    -0.4175420E-05 ( -61.10%)
   displ. norm   :     0.0700008 α      lambda       -0.7362658E-05
   maximum displ.:     0.0574999 α      in ANC's #1, #6, #12, ...

........................................................................
.............................. CYCLE   52 ..............................
........................................................................
   1    -83.7570876 -0.837571E+02  0.793E-04    0.85       0.0  T
   2    -83.7570876 -0.128567E-07  0.368E-04    0.85      42.0  T
   3    -83.7570876 -0.222136E-08  0.190E-04    0.85      81.3  T
   4    -83.7570876 -0.476092E-09  0.352E-05    0.85     438.6  T
     SCC iter.                  ...        0 min,  0.010 sec
     gradient                   ...        0 min,  0.042 sec
 * total energy  :   -82.9763452 Eh     change       -0.1007433E-04 Eh
   gradient norm :     0.0005214 Eh/α   predicted    -0.3690078E-05 ( -63.37%)
   displ. norm   :     0.0727203 α      lambda       -0.7848957E-05
   maximum displ.:     0.0596345 α      in ANC's #1, #5, #6, ...

........................................................................
.............................. CYCLE   53 ..............................
........................................................................
   1    -83.7571175 -0.837571E+02  0.712E-04    0.85       0.0  T
   2    -83.7571175 -0.587150E-08  0.338E-04    0.85      45.7  T
   3    -83.7571175 -0.630308E-09  0.155E-04    0.85      99.6  T
   4    -83.7571175 -0.471772E-09  0.321E-05    0.85     481.2  T
     SCC iter.                  ...        0 min,  0.010 sec
     gradient                   ...        0 min,  0.042 sec
 * total energy  :   -82.9763562 Eh     change       -0.1100133E-04 Eh
   gradient norm :     0.0004499 Eh/α   predicted    -0.3935485E-05 ( -64.23%)
   displ. norm   :     0.0848117 α      lambda       -0.9164050E-05
   maximum displ.:     0.0695254 α      in ANC's #1, #5, #13, ...

........................................................................
.............................. CYCLE   54 ..............................
........................................................................
   1    -83.7571575 -0.837572E+02  0.798E-04    0.85       0.0  T
   2    -83.7571575 -0.588430E-08  0.383E-04    0.85      40.3  T
   3    -83.7571575 -0.774961E-09  0.964E-05    0.85     160.0  T
   4    -83.7571575 -0.140943E-09  0.328E-05    0.85     470.1  T
     SCC iter.                  ...        0 min,  0.010 sec
     gradient                   ...        0 min,  0.042 sec
 * total energy  :   -82.9763688 Eh     change       -0.1267628E-04 Eh
   gradient norm :     0.0003808 Eh/α   predicted    -0.4598107E-05 ( -63.73%)
   displ. norm   :     0.0975508 α      lambda       -0.9860260E-05
   maximum displ.:     0.0798542 α      in ANC's #1, #5, #18, ...

........................................................................
.............................. CYCLE   55 ..............................
........................................................................
   1    -83.7571875 -0.837572E+02  0.937E-04    0.85       0.0  T
   2    -83.7571875 -0.710035E-08  0.451E-04    0.85      34.2  T
   3    -83.7571875 -0.973699E-09  0.145E-04    0.85     106.1  T
   4    -83.7571875 -0.517716E-09  0.383E-05    0.85     403.0  T
     SCC iter.                  ...        0 min,  0.010 sec
     gradient                   ...        0 min,  0.042 sec
 * total energy  :   -82.9763826 Eh     change       -0.1380261E-04 Eh
   gradient norm :     0.0003678 Eh/α   predicted    -0.4951254E-05 ( -64.13%)
   displ. norm   :     0.1141765 α      lambda       -0.1103616E-04
   maximum displ.:     0.0925268 α      in ANC's #1, #5, #18, ...

........................................................................
.............................. CYCLE   56 ..............................
........................................................................
   1    -83.7571965 -0.837572E+02  0.111E-03    0.85       0.0  T
   2    -83.7571965 -0.104026E-07  0.523E-04    0.85      29.5  T
   3    -83.7571965 -0.135068E-08  0.179E-04    0.85      86.1  T
   4    -83.7571965 -0.863665E-09  0.414E-05    0.85     372.3  T
     SCC iter.                  ...        0 min,  0.010 sec
     gradient                   ...        0 min,  0.042 sec
 * total energy  :   -82.9763986 Eh     change       -0.1591977E-04 Eh
   gradient norm :     0.0004294 Eh/α   predicted    -0.5550431E-05 ( -65.13%)
   displ. norm   :     0.1488679 α      lambda       -0.1449836E-04
   maximum displ.:     0.1186217 α      in ANC's #1, #5, #18, ...

........................................................................
.............................. CYCLE   57 ..............................
........................................................................
   1    -83.7570865 -0.837571E+02  0.147E-03    0.85       0.0  T
   2    -83.7570865 -0.201175E-07  0.690E-04    0.85      22.4  T
   3    -83.7570865 -0.238570E-08  0.247E-04    0.85      62.4  T
   4    -83.7570865 -0.183132E-08  0.543E-05    0.85     284.3  T
   5    -83.7570865 -0.238884E-10  0.277E-05    0.85     557.9  T
     SCC iter.                  ...        0 min,  0.012 sec
     gradient                   ...        0 min,  0.042 sec
 * total energy  :   -82.9764198 Eh     change       -0.2125856E-04 Eh
   gradient norm :     0.0006320 Eh/α   predicted    -0.7321866E-05 ( -65.56%)
   displ. norm   :     0.2169089 α      lambda       -0.2186219E-04
   maximum displ.:     0.1710175 α      in ANC's #1, #5, #18, ...

........................................................................
.............................. CYCLE   58 ..............................
........................................................................
   1    -83.7567333 -0.837567E+02  0.218E-03    0.85       0.0  T
   2    -83.7567334 -0.451511E-07  0.103E-03    0.85      15.0  T
   3    -83.7567334 -0.532113E-08  0.338E-04    0.85      45.6  T
   4    -83.7567334 -0.318309E-08  0.852E-05    0.85     181.1  T
   5    -83.7567334 -0.708695E-10  0.423E-05    0.85     364.4  T
     SCC iter.                  ...        0 min,  0.012 sec
     gradient                   ...        0 min,  0.042 sec
 * total energy  :   -82.9764514 Eh     change       -0.3155644E-04 Eh
   gradient norm :     0.0012136 Eh/α   predicted    -0.1116004E-04 ( -64.63%)
   displ. norm   :     0.3004163 α      lambda       -0.3114871E-04
   maximum displ.:     0.2375415 α      in ANC's #1, #5, #7, ...

........................................................................
.............................. CYCLE   59 ..............................
........................................................................
   1    -83.7559646 -0.837560E+02  0.306E-03    0.85       0.0  T
   2    -83.7559647 -0.986866E-07  0.145E-03    0.85      10.6  T
   3    -83.7559647 -0.106575E-07  0.492E-04    0.85      31.4  T
   4    -83.7559647 -0.475085E-08  0.137E-04    0.85     112.4  T
   5    -83.7559647 -0.203187E-09  0.653E-05    0.85     236.5  T
     SCC iter.                  ...        0 min,  0.012 sec
     gradient                   ...        0 min,  0.042 sec
 * total energy  :   -82.9764909 Eh     change       -0.3953864E-04 Eh
   gradient norm :     0.0024332 Eh/α   predicted    -0.1620016E-04 ( -59.03%)
   displ. norm   :     0.1547345 α      lambda       -0.2403311E-04
   maximum displ.:     0.1264031 α      in ANC's #1, #5, #7, ...

........................................................................
.............................. CYCLE   60 ..............................
........................................................................
   1    -83.7560890 -0.837561E+02  0.135E-03    0.85       0.0  T
   2    -83.7560890 -0.192643E-07  0.649E-04    0.85      23.8  T
   3    -83.7560890 -0.187524E-08  0.246E-04    0.85      62.7  T
   4    -83.7560890 -0.185204E-08  0.581E-05    0.85     265.7  T
   5    -83.7560890 -0.196110E-10  0.272E-05    0.85     567.6  T
     SCC iter.                  ...        0 min,  0.012 sec
     gradient                   ...        0 min,  0.042 sec
 * total energy  :   -82.9765112 Eh     change       -0.2026792E-04 Eh
   gradient norm :     0.0021536 Eh/α   predicted    -0.1230512E-04 ( -39.29%)
   displ. norm   :     0.1537927 α      lambda       -0.2369710E-04
   maximum displ.:     0.1291893 α      in ANC's #1, #5, #4, ...

........................................................................
.............................. CYCLE   61 ..............................
........................................................................
   1    -83.7566885 -0.837567E+02  0.156E-03    0.85       0.0  T
   2    -83.7566886 -0.438564E-07  0.748E-04    0.85      20.6  T
   3    -83.7566886 -0.319825E-08  0.346E-04    0.85      44.6  T
   4    -83.7566886 -0.162767E-08  0.989E-05    0.85     156.1  T
   5    -83.7566886 -0.945306E-10  0.392E-05    0.85     393.6  T
     SCC iter.                  ...        0 min,  0.012 sec
     gradient                   ...        0 min,  0.042 sec
 * total energy  :   -82.9765315 Eh     change       -0.2029023E-04 Eh
   gradient norm :     0.0012307 Eh/α   predicted    -0.1213055E-04 ( -40.21%)
   displ. norm   :     0.3042297 α      lambda       -0.2644886E-04
   maximum displ.:     0.2579460 α      in ANC's #1, #5, #4, ...

........................................................................
.............................. CYCLE   62 ..............................
........................................................................
   1    -83.7571100 -0.837571E+02  0.265E-03    0.85       0.0  T
   2    -83.7571101 -0.942804E-07  0.126E-03    0.85      12.3  T
   3    -83.7571101 -0.938657E-08  0.450E-04    0.85      34.3  T
   4    -83.7571101 -0.337606E-08  0.138E-04    0.85     112.2  T
   5    -83.7571101 -0.157982E-09  0.599E-05    0.85     257.7  T
     SCC iter.                  ...        0 min,  0.012 sec
     gradient                   ...        0 min,  0.042 sec
 * total energy  :   -82.9765636 Eh     change       -0.3216016E-04 Eh
   gradient norm :     0.0010552 Eh/α   predicted    -0.1376929E-04 ( -57.19%)
   displ. norm   :     0.2481457 α      lambda       -0.2019521E-04
   maximum displ.:     0.2164828 α      in ANC's #1, #5, #4, ...

........................................................................
.............................. CYCLE   63 ..............................
........................................................................
   1    -83.7573581 -0.837574E+02  0.221E-03    0.85       0.0  T
   2    -83.7573582 -0.578240E-07  0.105E-03    0.85      14.7  T
   3    -83.7573582 -0.477152E-08  0.440E-04    0.85      35.1  T
   4    -83.7573582 -0.226918E-08  0.114E-04    0.85     135.8  T
   5    -83.7573582 -0.135643E-09  0.496E-05    0.85     311.0  T
     SCC iter.                  ...        0 min,  0.012 sec
     gradient                   ...        0 min,  0.042 sec
 * total energy  :   -82.9765872 Eh     change       -0.2355424E-04 Eh
   gradient norm :     0.0006961 Eh/α   predicted    -0.1037457E-04 ( -55.95%)
   displ. norm   :     0.2316416 α      lambda       -0.1639519E-04
   maximum displ.:     0.2005822 α      in ANC's #1, #4, #5, ...

........................................................................
.............................. CYCLE   64 ..............................
........................................................................
   1    -83.7569909 -0.837570E+02  0.258E-03    0.85       0.0  T
   2    -83.7569910 -0.622380E-07  0.126E-03    0.86      12.3  T
   3    -83.7569910 -0.581340E-08  0.497E-04    0.86      31.0  T
   4    -83.7569910 -0.234931E-08  0.128E-04    0.86     120.4  T
   5    -83.7569910 -0.112436E-09  0.520E-05    0.86     297.0  T
     SCC iter.                  ...        0 min,  0.012 sec
     gradient                   ...        0 min,  0.042 sec
 * total energy  :   -82.9766058 Eh     change       -0.1865163E-04 Eh
   gradient norm :     0.0014219 Eh/α   predicted    -0.8393814E-05 ( -55.00%)
   displ. norm   :     0.1952899 α      lambda       -0.1571983E-04
   maximum displ.:     0.1724981 α      in ANC's #1, #4, #15, ...

........................................................................
.............................. CYCLE   65 ..............................
........................................................................
   1    -83.7577090 -0.837577E+02  0.212E-03    0.86       0.0  T
   2    -83.7577091 -0.562512E-07  0.989E-04    0.86      15.6  T
   3    -83.7577091 -0.608840E-08  0.549E-04    0.86      28.1  T
   4    -83.7577091 -0.293021E-08  0.107E-04    0.86     144.5  T
   5    -83.7577091 -0.162103E-09  0.458E-05    0.86     336.9  T
     SCC iter.                  ...        0 min,  0.012 sec
     gradient                   ...        0 min,  0.042 sec
 * total energy  :   -82.9766238 Eh     change       -0.1790973E-04 Eh
   gradient norm :     0.0014954 Eh/α   predicted    -0.7996165E-05 ( -55.35%)
   displ. norm   :     0.2676602 α      lambda       -0.1449725E-04
   maximum displ.:     0.2357926 α      in ANC's #1, #4, #5, ...

........................................................................
.............................. CYCLE   66 ..............................
........................................................................
   1    -83.7568839 -0.837569E+02  0.298E-03    0.86       0.0  T
   2    -83.7568842 -0.223615E-06  0.137E-03    0.86      11.3  T
   3    -83.7568842 -0.214299E-07  0.716E-04    0.86      21.6  T
   4    -83.7568842 -0.422726E-08  0.193E-04    0.86      79.8  T
   5    -83.7568842 -0.408306E-09  0.700E-05    0.86     220.4  T
     SCC iter.                  ...        0 min,  0.012 sec
     gradient                   ...        0 min,  0.042 sec
 * total energy  :   -82.9766394 Eh     change       -0.1560220E-04 Eh
   gradient norm :     0.0009626 Eh/α   predicted    -0.7480017E-05 ( -52.06%)
   displ. norm   :     0.1878727 α      lambda       -0.9281893E-05
   maximum displ.:     0.1651271 α      in ANC's #1, #2, #4, ...
 * RMSD in coord.:     0.4908708 α      energy gain  -0.4431248E-03 Eh

generating ANC from model Hessian ...
Using Lindh-Hessian (1995)
[...]
N11-C8-C7=105.76               N11-C8-C9=110.28               N11-C8-C10=109.94              H29-C9-C8=108.59               
H30-C9-C8=110.75               H30-C9-H29=109.35              H31-C9-C8=109.99               H31-C9-H29=109.01              
H31-C9-H30=109.11              H32-C10-C8=110.61              H33-C10-C8=108.74              H33-C10-H32=109.36             
H34-C10-C8=110.00              H34-C10-H32=109.08             H34-C10-H33=109.04             
 
 selected dihedral angles (degree)
 ---------------------------------
C3-O2-C1-H26=181.22           C3-O2-C1-H27=301.00           C3-O2-C1-H28= 61.41           O4-C3-O2-C1=359.73            
C5-C3-O2-C1=179.48            N6-C5-C3-O2=181.04            N6-C5-C3-O4=  0.79            C24-C5-C3-O2=  0.63           
C24-C5-C3-O4=180.37           C7-N6-C5-C3=179.48            C7-N6-C5-C24=359.86           C8-C7-N6-C5=180.55            
N21-C7-N6-C5=  0.31           C9-C8-C7-N6=119.79            C9-C8-C7-N21=300.01           C10-C8-C7-N6=242.24           
C10-C8-C7-N21= 62.46          N11-C8-C7-N6=  0.87           N11-C8-C7-N21=181.08          H29-C9-C8-C7= 56.57           
H29-C9-C8-C10=294.84          H29-C9-C8-N11=172.68          H30-C9-C8-C7=176.66           H30-C9-C8-C10= 54.92          
H30-C9-C8-N11=292.77          H31-C9-C8-C7=297.35           H31-C9-C8-C10=175.62          H31-C9-C8-N11= 53.46          
H32-C10-C8-C7=182.37          H32-C10-C8-C9=303.99          H32-C10-C8-N11= 66.34         H33-C10-C8-C7=302.47          
H33-C10-C8-C9= 64.09          H33-C10-C8-N11=186.45         H34-C10-C8-C7= 61.81          H34-C10-C8-C9=183.43          
H34-C10-C8-N11=305.78         
           -------------------------------------------------
          |                Final Singlepoint                |
           -------------------------------------------------

          ...................................................
          :                      SETUP                      :
          :.................................................:
          :  # basis functions                 134          :
          :  # atomic orbitals                 134          :
          :  # shells                           84          :
          :  # electrons                       134          :
          :  # halogen bonds                     0          :
          :  max. iterations                   250          :
          :  Hamiltonian                  GFN1-xTB          :
          :  restarted?                      false          :
          :  GBSA solvation                   true          :
          :  PC potential                    false          :
          :  electronic temp.          300.0000000     K    :
          :  accuracy                    1.0000000          :
          :  -> integral cutoff          0.2500000E+02      :
          :  -> integral neglect         0.1000000E-07      :
          :  -> SCF convergence          0.1000000E-05 Eh   :
          :  -> wf. convergence          0.2000000E-04 e    :
          :  Broyden damping             0.4000000          :
          ...................................................

 iter      E             dE          RMSdq      gap      omega  full diag
   1    -83.7573709 -0.837574E+02  0.327E-06    0.86       0.0  T
   2    -83.7573709 -0.184741E-12  0.128E-06    0.86   12044.6  T
   3    -83.7573709 -0.227374E-12  0.590E-07    0.86   26171.2  T

   *** convergence criteria satisfied after 3 iterations ***

         #    Occupation            Energy/Eh            Energy/eV
      -------------------------------------------------------------
         1        2.0000           -0.9308498             -25.3297
       ...           ...                  ...                  ...
        61        2.0000           -0.4562375             -12.4149
        62        2.0000           -0.4544868             -12.3672
        63        2.0000           -0.4448371             -12.1046
        64        2.0000           -0.4258027             -11.5867
        65        2.0000           -0.4120652             -11.2129
        66        2.0000           -0.3814535             -10.3799
        67        2.0000           -0.3783728             -10.2960 (HOMO)
        68        0.0000           -0.3466794              -9.4336 (LUMO)
        69                         -0.3374908              -9.1836
        70                         -0.2822293              -7.6799
        71                         -0.2362447              -6.4285
        72                         -0.2262143              -6.1556
       ...                                ...                  ...
       134                          0.7364148              20.0389
      -------------------------------------------------------------
                  HL-Gap            0.0316934 Eh            0.8624 eV
             Fermi-level           -0.3625079 Eh           -9.8643 eV

 SCC (total)                   0 d,  0 h,  0 min,  0.128 sec
 SCC setup                      ...        0 min,  0.002 sec (  1.625%)
 Dispersion                     ...        0 min,  0.000 sec (  0.262%)
 classical contributions        ...        0 min,  0.000 sec (  0.091%)
 integral evaluation            ...        0 min,  0.034 sec ( 26.642%)
 iterations                     ...        0 min,  0.011 sec (  8.420%)
 molecular gradient             ...        0 min,  0.080 sec ( 62.342%)
 printout                       ...        0 min,  0.001 sec (  0.589%)

         :::::::::::::::::::::::::::::::::::::::::::::::::::::
         ::                     SUMMARY                     ::
         :::::::::::::::::::::::::::::::::::::::::::::::::::::
         :: total energy             -82.976655472178 Eh    ::
         :: total w/o Gsasa/hb       -82.952859959694 Eh    ::
         :: gradient norm              0.000428823715 Eh/a0 ::
         :: HOMO-LUMO gap              0.862422071317 eV    ::
         ::.................................................::
         :: SCC energy               -83.757370893605 Eh    ::
         :: -> electrostatic           0.437444991851 Eh    ::
         :: -> Gsolv                  -0.090677164135 Eh    ::
         ::    -> Gelec               -0.066881651650 Eh    ::
         ::    -> Gsasa               -0.024689593720 Eh    ::
         ::    -> Ghb                 -0.006730197769 Eh    ::
         ::    -> Gshift               0.007624279005 Eh    ::
         :: repulsion energy           0.805964514955 Eh    ::
         :: dispersion energy         -0.025249093528 Eh    ::
         :: halogen bond corr.         0.000000000000 Eh    ::
         :: add. restraining           0.000000000000 Eh    ::
         :: total charge               0.000000000001 e     ::
         :::::::::::::::::::::::::::::::::::::::::::::::::::::

           -------------------------------------------------
          |                Property Printout                |
           -------------------------------------------------

    * Orbital Energies and Occupations

         #    Occupation            Energy/Eh            Energy/eV
      -------------------------------------------------------------
         1        2.0000           -0.9308498             -25.3297
       ...           ...                  ...                  ...
        55        2.0000           -0.4967219             -13.5165
        56        2.0000           -0.4951292             -13.4732
        57        2.0000           -0.4874373             -13.2638
        58        2.0000           -0.4830319             -13.1440
        59        2.0000           -0.4813707             -13.0988
        60        2.0000           -0.4688559             -12.7582
        61        2.0000           -0.4562375             -12.4149
        62        2.0000           -0.4544868             -12.3672
        63        2.0000           -0.4448371             -12.1046
        64        2.0000           -0.4258027             -11.5867
        65        2.0000           -0.4120652             -11.2129
        66        2.0000           -0.3814535             -10.3799
        67        2.0000           -0.3783728             -10.2960 (HOMO)
        68        0.0000           -0.3466794              -9.4336 (LUMO)
        69                         -0.3374908              -9.1836
        70                         -0.2822293              -7.6799
        71                         -0.2362447              -6.4285
        72                         -0.2262143              -6.1556
        73                         -0.1957886              -5.3277
        74                         -0.1820638              -4.9542
        75                         -0.1686846              -4.5901
        76                         -0.1292474              -3.5170
        77                         -0.1222939              -3.3278
        78                         -0.1165614              -3.1718
       ...                                ...                  ...
       134                          0.7364148              20.0389
      -------------------------------------------------------------
                  HL-Gap            0.0316934 Eh            0.8624 eV
             Fermi-level           -0.3625079 Eh           -9.8643 eV

  Mulliken/CM5 charges         n(s)   n(p)   n(d)
     1C     0.16636  0.04617   0.976  2.858  0.000
     2O    -0.41983 -0.50341   1.686  4.733  0.000
     3C     0.56307  0.62903   0.978  2.459  0.000
     4O    -0.59194 -0.63645   1.731  4.861  0.000
     5C     0.06348  0.14026   1.035  2.901  0.000
     6N    -0.43999 -0.63142   1.539  3.901  0.000
     7C     0.27876  0.43567   1.012  2.709  0.000
     8C     0.15030  0.19176   1.066  2.784  0.000
     9C    -0.09769 -0.23639   1.016  3.081  0.000
    10C    -0.09800 -0.23674   1.016  3.082  0.000
    11N    -0.31123 -0.66002   1.437  3.874  0.000
    12C     0.47418  0.58784   0.960  2.565  0.000
    13O    -0.57365 -0.61587   1.724  4.850  0.000
    14C     0.36047  0.48688   1.032  2.608  0.000
    15N    -0.19514 -0.30900   1.552  3.643  0.000
    16N     0.01273 -0.18927   1.428  3.559  0.000
    17C     0.02598 -0.05599   1.001  2.973  0.000
    18C     0.40616  0.50974   1.011  2.582  0.000
    19C    -0.10731 -0.24518   1.018  3.089  0.000
    20O    -0.29612 -0.35444   1.677  4.619  0.000
    21N    -0.47562 -0.65221   1.545  3.931  0.000
    22C     0.42864  0.53550   0.988  2.584  0.000
    23O    -0.66050 -0.70542   1.741  4.919  0.000
    24C     0.20121  0.23435   1.037  2.761  0.000
    25O    -0.53179 -0.71978   1.707  4.825  0.000
    26H     0.04563  0.10588   0.954  0.000  0.000
    27H     0.04389  0.10582   0.956  0.000  0.000
    28H     0.04374  0.10543   0.956  0.000  0.000
    29H     0.04477  0.10222   0.955  0.000  0.000
    30H     0.04473  0.10312   0.955  0.000  0.000
    31H     0.03757  0.09446   0.962  0.000  0.000
    32H     0.04475  0.10294   0.955  0.000  0.000
    33H     0.04516  0.10221   0.955  0.000  0.000
    34H     0.03786  0.09468   0.962  0.000  0.000
    35H     0.26018  0.47907   0.740  0.000  0.000
    36H     0.09562  0.15886   0.904  0.000  0.000
    37H     0.10344  0.17061   0.897  0.000  0.000
    38H     0.09804  0.16116   0.902  0.000  0.000
    39H     0.10677  0.16158   0.893  0.000  0.000
    40H     0.11239  0.16679   0.888  0.000  0.000
    41H     0.11484  0.17095   0.885  0.000  0.000
    42H     0.38808  0.56863   0.612  0.000  0.000

Wiberg/Mayer (AO) data.
largest (>0.10) Wiberg bond orders for each atom

 ---------------------------------------------------------------------------
     #   Z sym  total        # sym  WBO       # sym  WBO       # sym  WBO
 ---------------------------------------------------------------------------
     1   6 C    3.885 --    26 H    0.987    28 H    0.980    27 H    0.980
                             2 O    0.910
     2   8 O    2.187 --     3 C    1.090     1 C    0.910     4 O    0.124
     3   6 C    3.839 --     4 O    1.627     2 O    1.090     5 C    1.028
     4   8 O    1.892 --     3 C    1.627     2 O    0.124
     5   6 C    3.960 --    24 C    1.485     6 N    1.185     3 C    1.028
     6   7 N    3.041 --     7 C    1.467     5 C    1.185
     7   6 C    3.959 --     6 N    1.467    21 N    1.368     8 C    0.968
     8   6 C    3.916 --     9 C    0.984    10 C    0.983     7 C    0.968
                            11 N    0.909
     9   6 C    3.991 --    31 H    0.986     8 C    0.984    30 H    0.984
                            29 H    0.983
    10   6 C    3.991 --    34 H    0.986    32 H    0.984    33 H    0.983
                             8 C    0.983
    11   7 N    3.423 --    12 C    1.345     8 C    0.909    35 H    0.852
                            13 O    0.209
    12   6 C    3.932 --    13 O    1.569    11 N    1.345    14 C    0.946
    13   8 O    1.902 --    12 C    1.569    11 N    0.209
    14   6 C    3.829 --    15 N    1.613    20 O    1.054    12 C    0.946
    15   7 N    2.977 --    14 C    1.613    16 N    1.146
    16   7 N    3.629 --    18 C    1.425    15 N    1.146    17 C    0.913
    17   6 C    3.890 --    37 H    0.979    36 H    0.971    38 H    0.969
                            16 N    0.913
    18   6 C    3.844 --    16 N    1.425    20 O    1.152    19 C    1.040
    19   6 C    3.962 --    18 C    1.040    41 H    0.972    39 H    0.951
                            40 H    0.943
    20   8 O    2.381 --    18 C    1.152    14 C    1.054
    21   7 N    2.983 --     7 C    1.368    22 C    1.246    23 O    0.123
    22   6 C    3.929 --    23 O    1.480    21 N    1.246    24 C    1.065
    23   8 O    1.818 --    22 C    1.480    21 N    0.123
    24   6 C    3.907 --     5 C    1.485    25 O    1.078    22 C    1.065
    25   8 O    2.054 --    24 C    1.078    42 H    0.811
    26   1 H    1.013 --     1 C    0.987
    27   1 H    1.010 --     1 C    0.980
    28   1 H    1.010 --     1 C    0.980
    29   1 H    1.013 --     9 C    0.983
    30   1 H    1.009 --     9 C    0.984
    31   1 H    1.004 --     9 C    0.986
    32   1 H    1.008 --    10 C    0.984
    33   1 H    1.012 --    10 C    0.983
    34   1 H    1.004 --    10 C    0.986
    35   1 H    0.965 --    11 N    0.852
    36   1 H    0.990 --    17 C    0.971
    37   1 H    0.994 --    17 C    0.979
    38   1 H    0.990 --    17 C    0.969
    39   1 H    0.988 --    19 C    0.951
    40   1 H    0.987 --    19 C    0.943
    41   1 H    0.987 --    19 C    0.972
    42   1 H    0.873 --    25 O    0.811
 ---------------------------------------------------------------------------

Topologies differ in total number of bonds
Writing topology from bond orders to xtbtopo.mol

 dipole moment from electron density (au)
     X       Y       Z   
   9.6249   6.9292  -0.2195  total (Debye):   30.150

           -------------------------------------------------
          |                Geometry Summary                 |
           -------------------------------------------------

      molecular mass/u    :      351.3152409
   center of mass at/Å    :       -0.3674558      -0.2025993      -0.0183388
  moments of inertia/u·Å² :        0.1620145E+04   0.3616415E+04   0.5116840E+04
rotational constants/cm⁻¹ :        0.1040502E-01   0.4661421E-02   0.3294540E-02

 * 39 selected distances

     #   Z          #   Z                                           value/Å
     1   6 C        2   8 O                                       1.4258151
     2   8 O        3   6 C                                       1.3410694
     3   6 C        4   8 O                                       1.2175622
     5   6 C        6   7 N                                       1.3721223
     6   7 N        7   6 C                                       1.3129158
     8   6 C        9   6 C                                       1.5324724
     8   6 C       10   6 C                                       1.5328861 (max)
     8   6 C       11   7 N                                       1.4655253
    11   7 N       12   6 C                                       1.3231577
    12   6 C       13   8 O                                       1.2187248
    14   6 C       15   7 N                                       1.2998772
    15   7 N       16   7 N                                       1.3472953
    16   7 N       17   6 C                                       1.4468478
    16   7 N       18   6 C                                       1.3168880
    18   6 C       19   6 C                                       1.4714520
    14   6 C       20   8 O                                       1.3485459
    18   6 C       20   8 O                                       1.3157530
     7   6 C       21   7 N                                       1.3292306
    21   7 N       22   6 C                                       1.3560294
    22   6 C       23   8 O                                       1.2448149
     5   6 C       24   6 C                                       1.3688717
    24   6 C       25   8 O                                       1.3491658
     1   6 C       26   1 H                                       1.0887603
     1   6 C       27   1 H                                       1.0931653
     1   6 C       28   1 H                                       1.0930710
     9   6 C       29   1 H                                       1.0899200
     9   6 C       30   1 H                                       1.0886887
     9   6 C       31   1 H                                       1.0892365
    10   6 C       32   1 H                                       1.0888854
    10   6 C       33   1 H                                       1.0898634
    10   6 C       34   1 H                                       1.0892674
    11   7 N       35   1 H                                       1.0229088
    17   6 C       36   1 H                                       1.0882312
    17   6 C       37   1 H                                       1.0867890
    17   6 C       38   1 H                                       1.0886659
    19   6 C       39   1 H                                       1.0898998
    19   6 C       40   1 H                                       1.0911492
    19   6 C       41   1 H                                       1.0890990
    25   8 O       42   1 H                                       0.9829503 (min)

 * 7 distinct bonds (by element types)

   Z      Z             #   av. dist./Å        max./Å        min./Å
   1 H    6 C          15     1.0896461     1.0931653     1.0867890
   6 C    6 C           4     1.4764206     1.5328861     1.3688717
   1 H    7 N           1     1.0229088     1.0229088     1.0229088
   6 C    7 N           9     1.3580660     1.4655253     1.2998772
   7 N    7 N           1     1.3472953     1.3472953     1.3472953
   1 H    8 O           1     0.9829503     0.9829503     0.9829503
   6 C    8 O           8     1.3076814     1.4258151     1.2175622


optimized geometry written to: xtbopt.xyz


           -------------------------------------------------
          | TOTAL ENERGY              -82.976655472178 Eh   |
          | GRADIENT NORM               0.000428823715 Eh/α |
          | HOMO-LUMO GAP               0.862422071317 eV   |
           -------------------------------------------------

------------------------------------------------------------------------
 * finished run on 2023/06/20 at 18:15:26.681     
------------------------------------------------------------------------
 total:
 * wall-time:     0 d,  0 h,  0 min,  5.560 sec
 *  cpu-time:     0 d,  0 h,  0 min,  5.476 sec
 * ratio c/w:     0.985 speedup
 SCF:
 * wall-time:     0 d,  0 h,  0 min,  0.137 sec
 *  cpu-time:     0 d,  0 h,  0 min,  0.116 sec
 * ratio c/w:     0.844 speedup
 ANC optimizer:
 * wall-time:     0 d,  0 h,  0 min,  5.326 sec
 *  cpu-time:     0 d,  0 h,  0 min,  5.314 sec
 * ratio c/w:     0.998 speedup

