      -----------------------------------------------------------      
     |                   =====================                   |     
     |                           x T B                           |     
     |                   =====================                   |     
     |                         S. Grimme                         |     
     |          Mulliken Center for Theoretical Chemistry        |     
     |                    University of Bonn                     |     
      -----------------------------------------------------------      

   * xtb version 6.5.1 (579679a) compiled by 'ehlert@majestix' on 2022-07-11

   xtb is free software: you can redistribute it and/or modify it under
   the terms of the GNU Lesser General Public License as published by
   the Free Software Foundation, either version 3 of the License, or
   (at your option) any later version.
   
   xtb is distributed in the hope that it will be useful,
   but WITHOUT ANY WARRANTY; without even the implied warranty of
   MERCHANTABILITY or FITNESS FOR A PARTICULAR PURPOSE.  See the
   GNU Lesser General Public License for more details.
   
   Cite this work as:
   * C. Bannwarth, E. Caldeweyher, S. Ehlert, A. Hansen, P. Pracht,
     J. Seibert, S. Spicher, S. Grimme, WIREs Comput. Mol. Sci., 2020, 11,
     e01493. DOI: 10.1002/wcms.1493
   
   for GFN2-xTB:
   * C. Bannwarth, S. Ehlert and S. Grimme., J. Chem. Theory Comput., 2019,
     15, 1652-1671. DOI: 10.1021/acs.jctc.8b01176
   for GFN1-xTB:
   * S. Grimme, C. Bannwarth, P. Shushkov, J. Chem. Theory Comput., 2017,
     13, 1989-2009. DOI: 10.1021/acs.jctc.7b00118
   for GFN0-xTB:
   * P. Pracht, E. Caldeweyher, S. Ehlert, S. Grimme, ChemRxiv, 2019, preprint.
     DOI: 10.26434/chemrxiv.8326202.v1
   for GFN-FF:
   * S. Spicher and S. Grimme, Angew. Chem. Int. Ed., 2020, 59, 15665-15673.
     DOI: 10.1002/anie.202004239
   
   for ALPB and GBSA implicit solvation:
   * S. Ehlert, M. Stahn, S. Spicher, S. Grimme, J. Chem. Theory Comput.,
     2021, 17, 4250-4261. DOI: 10.1021/acs.jctc.1c00471
   
   for DFT-D4:
   * E. Caldeweyher, C. Bannwarth and S. Grimme, J. Chem. Phys., 2017,
     147, 034112. DOI: 10.1063/1.4993215
   * E. Caldeweyher, S. Ehlert, A. Hansen, H. Neugebauer, S. Spicher,
     C. Bannwarth and S. Grimme, J. Chem. Phys., 2019, 150, 154122.
     DOI: 10.1063/1.5090222
   * E. Caldeweyher, J.-M. Mewes, S. Ehlert and S. Grimme, Phys. Chem. Chem. Phys.
     2020, 22, 8499-8512. DOI: 10.1039/D0CP00502A
   
   for sTDA-xTB:
   * S. Grimme and C. Bannwarth, J. Chem. Phys., 2016, 145, 054103.
     DOI: 10.1063/1.4959605
   
   in the mass-spec context:
   * V. Asgeirsson, C. Bauer and S. Grimme, Chem. Sci., 2017, 8, 4879.
     DOI: 10.1039/c7sc00601b
   * J. Koopman and S. Grimme, ACS Omega 2019, 4, 12, 15120-15133.
     DOI: 10.1021/acsomega.9b02011
   
   for metadynamics refer to:
   * S. Grimme, J. Chem. Theory Comput., 2019, 155, 2847-2862
     DOI: 10.1021/acs.jctc.9b00143
   
   for SPH calculations refer to:
   * S. Spicher and S. Grimme, J. Chem. Theory Comput., 2021, 17, 1701-1714
     DOI: 10.1021/acs.jctc.0c01306
   
   with help from (in alphabetical order)
   P. Atkinson, C. Bannwarth, F. Bohle, G. Brandenburg, E. Caldeweyher
   M. Checinski, S. Dohm, S. Ehlert, S. Ehrlich, I. Gerasimov, C. Hölzer
   A. Katbashev, J. Koopman, C. Lavigne, S. Lehtola, F. März, M. Müller,
   F. Musil, H. Neugebauer, J. Pisarek, C. Plett, P. Pracht, F. Pultar,
   J. Seibert, P. Shushkov, S. Spicher, M. Stahn, M. Steiner, T. Strunk,
   J. Stückrath, T. Rose, and J. Unsleber
   
 * started run on 2023/06/21 at 17:10:47.794     

           -------------------------------------------------
          |                Calculation Setup                |
           -------------------------------------------------

          program call               : /lustre/hpc/kemi/ree/PhD/git/ReactivityQM/dep/xtb-6.5.1/bin/xtb --gfn 1 /lustre/hpc/kemi/ree/PhD/git/ReactivityQM/calculations/R02methylcation/reac01prodE04/conf19/R02methylcation_reac01prodE04_conf19_gfn1.xyz --opt --vfukui --chrg -2 --uhf 0 --alpb DMSO
          hostname                   : node317
          coordinate file            : /lustre/hpc/kemi/ree/PhD/git/ReactivityQM/calculations/R02methylcation/reac01prodE04/conf19/R02methylcation_reac01prodE04_conf19_gfn1.xyz
          omp threads                :                     1

   ID    Z sym.   atoms
    1    6 C      1, 3, 5, 6, 8-11, 13, 15, 18, 19, 22, 24
    2    8 O      2, 4, 14, 20, 23, 25
    3    7 N      7, 12, 16, 17, 21
    4    1 H      26-42

           -------------------------------------------------
          |                 G F N 1 - x T B                 |
           -------------------------------------------------

        Reference                      10.1021/acs.jctc.7b00118
      * Hamiltonian:
        H0-scaling (s, p, d)           1.850000    2.250000    2.000000
        zeta-weighting                 0.000000
      * Dispersion:
        s8                             2.400000
        a1                             0.630000
        a2                             5.000000
        s9                             0.000000
      * Repulsion:
        kExp                           1.500000
        rExp                           1.000000
      * Coulomb:
        alpha                          2.000000
        third order                    atomic
        anisotropic                    false
      * Halogen bond correction:
        rad-scale                      1.300000
        damping                        0.440000

      * Solvation model:               ALPB
        Solvent                        DMSO
        Parameter file                 internal GFN1-xTB/ALPB
        Dielectric constant                4.6680E+01
        Reference state                gsolv [1 M gas/solution]
        Free energy shift                  7.6243E-03 Eh       4.7843E+00 kcal/mol
        Temperature                        2.9815E+02 K
        Density                            1.1000E+00 kg/L
        Solvent mass                       7.8130E+01 g/mol
        Interaction kernel             P16
        Born radius scaling (c1)           1.7672E+00
        Born radii integrator          GBOBC
        Born offset                        0.0000E+00 a0       0.0000E+00 AA
        H-bond correction              true
        Ion screening                  false
        Surface tension                    1.0000E-05 Eh       1.5569E+01 dyn/cm
        Grid points                               230 per atom

          ...................................................
          :                      SETUP                      :
          :.................................................:
          :  # basis functions                 134          :
          :  # atomic orbitals                 134          :
          :  # shells                           84          :
          :  # electrons                       136          :
          :  # halogen bonds                     0          :
          :  max. iterations                   250          :
          :  Hamiltonian                  GFN1-xTB          :
          :  restarted?                      false          :
          :  GBSA solvation                   true          :
          :  PC potential                    false          :
          :  electronic temp.          300.0000000     K    :
          :  accuracy                    1.0000000          :
          :  -> integral cutoff          0.2500000E+02      :
          :  -> integral neglect         0.1000000E-07      :
          :  -> SCF convergence          0.1000000E-05 Eh   :
          :  -> wf. convergence          0.2000000E-04 e    :
          :  Broyden damping             0.4000000          :
          ...................................................

 iter      E             dE          RMSdq      gap      omega  full diag
   1    -83.9374328 -0.839374E+02  0.870E+00    0.92       0.0  T
   2    -84.0496460 -0.112213E+00  0.543E+00    1.32       1.0  T
   3    -83.9805792  0.690669E-01  0.306E+00    1.42       1.0  T
   4    -84.2150337 -0.234455E+00  0.118E+00    0.67       1.0  T
   5    -84.2790159 -0.639823E-01  0.601E-01    0.05       1.0  T
   6    -84.1276594  0.151357E+00  0.120E+00    0.50       1.0  T
   7    -84.2353046 -0.107645E+00  0.847E-01    0.57       1.0  T
   8    -84.3166701 -0.813655E-01  0.230E-01    0.05       1.0  T
   9    -84.1960534  0.120617E+00  0.917E-01    0.12       1.0  T
  10    -84.2631860 -0.671326E-01  0.651E-01    0.16       1.0  T
  11    -84.3203281 -0.571421E-01  0.112E-01    0.03       1.0  T
  12    -84.3158227  0.450541E-02  0.211E-01    0.06       1.0  T
  13    -84.3171895 -0.136683E-02  0.183E-01    0.03       1.0  T
  14    -84.3220868 -0.489722E-02  0.239E-02    0.04       1.0  T
  15    -84.3218892  0.197513E-03  0.434E-02    0.04       1.0  T
  16    -84.3221294 -0.240174E-03  0.160E-02    0.03       1.0  T
  17    -84.3221672 -0.377607E-04  0.411E-04    0.04      37.5  T
  18    -84.3221669  0.241602E-06  0.134E-03    0.04      11.5  T
  19    -84.3221671 -0.133095E-06  0.949E-04    0.04      16.3  T
  20    -84.3221672 -0.129098E-06  0.156E-04    0.04      99.0  T
  21    -84.3221672 -0.351648E-08  0.227E-05    0.04     680.2  T

   *** convergence criteria satisfied after 21 iterations ***

         #    Occupation            Energy/Eh            Energy/eV
      -------------------------------------------------------------
         1        2.0000           -0.8123614             -22.1055
       ...           ...                  ...                  ...
        62        2.0000           -0.3902430             -10.6191
        63        2.0000           -0.3799204             -10.3382
        64        2.0000           -0.3796350             -10.3304
        65        2.0000           -0.3764417             -10.2435
        66        2.0000           -0.3735244             -10.1641
        67        2.0000           -0.3411026              -9.2819
        68        1.3261           -0.2478091              -6.7432 (HOMO)
        69        0.6708           -0.2465163              -6.7080 (LUMO)
        70        0.0032           -0.2410410              -6.5591
        71                         -0.2040001              -5.5511
        72                         -0.1990409              -5.4162
        73                         -0.1295148              -3.5243
       ...                                ...                  ...
       134                          0.8594605              23.3871
      -------------------------------------------------------------
                  HL-Gap            0.0012929 Eh            0.0352 eV
             Fermi-level           -0.2471661 Eh           -6.7257 eV

 SCC (total)                   0 d,  0 h,  0 min,  0.264 sec
 SCC setup                      ...        0 min,  0.002 sec (  0.843%)
 Dispersion                     ...        0 min,  0.000 sec (  0.165%)
 classical contributions        ...        0 min,  0.000 sec (  0.055%)
 integral evaluation            ...        0 min,  0.070 sec ( 26.471%)
 iterations                     ...        0 min,  0.108 sec ( 41.031%)
 molecular gradient             ...        0 min,  0.082 sec ( 30.951%)
 printout                       ...        0 min,  0.001 sec (  0.456%)

         :::::::::::::::::::::::::::::::::::::::::::::::::::::
         ::                     SUMMARY                     ::
         :::::::::::::::::::::::::::::::::::::::::::::::::::::
         :: total energy             -83.577179888234 Eh    ::
         :: total w/o Gsasa/hb       -83.558100401627 Eh    ::
         :: gradient norm              0.217744219738 Eh/a0 ::
         :: HOMO-LUMO gap              0.035180769606 eV    ::
         ::.................................................::
         :: SCC energy               -84.322167200514 Eh    ::
         :: -> electrostatic           0.671838877584 Eh    ::
         :: -> Gsolv                  -0.264673603516 Eh    ::
         ::    -> Gelec               -0.245594116910 Eh    ::
         ::    -> Gsasa               -0.023961364960 Eh    ::
         ::    -> Ghb                 -0.002742400651 Eh    ::
         ::    -> Gshift               0.007624279005 Eh    ::
         :: repulsion energy           0.771033029939 Eh    ::
         :: dispersion energy         -0.026045717659 Eh    ::
         :: halogen bond corr.         0.000000000000 Eh    ::
         :: add. restraining           0.000000000000 Eh    ::
         :: total charge              -2.000000000000 e     ::
         :::::::::::::::::::::::::::::::::::::::::::::::::::::

      ----------------------------------------------------------- 
     |                   =====================                   |
     |                        A N C O P T                        |
     |                   =====================                   |
     |               Approximate Normal Coordinate               |
     |                Rational Function Optimizer                |
      ----------------------------------------------------------- 

          ...................................................
          :                      SETUP                      :
          :.................................................:
          :   optimization level            normal          :
          :   max. optcycles                   200          :
          :   ANC micro-cycles                  20          :
          :   degrees of freedom               120          :
          :.................................................:
          :   RF solver                   davidson          :
          :   write xtbopt.log                true          :
          :   linear?                        false          :
          :   energy convergence         0.5000000E-05 Eh   :
          :   grad. convergence          0.1000000E-02 Eh/α :
          :   maximium RF displ.         1.0000000          :
          :   Hlow (freq-cutoff)         0.1000000E-01      :
          :   Hmax (freq-cutoff)         5.0000000          :
          :   S6 in model hess.         20.0000000          :
          ...................................................

generating ANC from model Hessian ...
Using Lindh-Hessian (1995)
 Shifting diagonal of input Hessian by   9.842568925818515E-003
 Lowest  eigenvalues of input Hessian
    0.000000    0.000000    0.000000    0.000000    0.000000    0.000000
    0.010000    0.010120    0.010732    0.010869    0.011394    0.012121
    0.012831    0.014308    0.014483    0.015256    0.015772    0.016686
 Highest eigenvalues
    2.047684    2.087967    2.214422    2.239834    2.308384    2.370927
 

........................................................................
.............................. CYCLE    1 ..............................
........................................................................
   1    -84.3221672 -0.843222E+02  0.176E-05    0.04       0.0  T
   2    -84.3221672  0.229956E-07  0.395E-04    0.04      39.0  T
   3    -84.3221672 -0.230411E-07  0.452E-07    0.04   34141.3  T
   4    -84.3221672 -0.412115E-12  0.380E-07    0.04   40561.4  T
     SCC iter.                  ...        0 min,  0.017 sec
     gradient                   ...        0 min,  0.085 sec
 * total energy  :   -83.5771799 Eh     change       -0.7641177E-10 Eh
   gradient norm :     0.2177466 Eh/α   predicted     0.0000000E+00 (-100.00%)
   displ. norm   :     0.2693815 α      lambda       -0.3155270E-01
   maximum displ.:     0.1071093 α      in ANC's #24, #42, #72, ...

........................................................................
.............................. CYCLE    2 ..............................
........................................................................
   1    -84.2408799 -0.842409E+02  0.773E-01    0.33       0.0  T
   2    -84.0597683  0.181112E+00  0.156E+00    1.67       1.0  T
   3    -84.1181410 -0.583727E-01  0.121E+00    0.36       1.0  T
   4    -84.2966091 -0.178468E+00  0.391E-01    0.09       1.0  T
   5    -84.2793874  0.172217E-01  0.526E-01    0.04       1.0  T
   6    -84.2567417  0.226457E-01  0.664E-01    0.19       1.0  T
   7    -84.2962673 -0.395255E-01  0.394E-01    0.09       1.0  T
   8    -84.2980280 -0.176079E-02  0.379E-01    0.03       1.0  T
   9    -84.3124975 -0.144695E-01  0.208E-01    0.06       1.0  T
  10    -84.3187331 -0.623556E-02  0.764E-03    0.03       2.0  T
  11    -84.3187249  0.822251E-05  0.107E-02    0.04       1.4  T
  12    -84.3187370 -0.121102E-04  0.553E-03    0.03       2.8  T
  13    -84.3187408 -0.379553E-05  0.208E-03    0.03       7.4  T
  14    -84.3187414 -0.623592E-06  0.738E-05    0.03     209.0  T
  15    -84.3187414  0.728585E-08  0.228E-04    0.03      67.7  T
  16    -84.3187414 -0.711663E-08  0.520E-05    0.03     296.8  T
     SCC iter.                  ...        0 min,  0.064 sec
     gradient                   ...        0 min,  0.081 sec
 * total energy  :   -83.5989318 Eh     change       -0.2175193E-01 Eh
   gradient norm :     0.0894793 Eh/α   predicted    -0.1692790E-01 ( -22.18%)
   displ. norm   :     0.3022281 α      lambda       -0.1154910E-01
   maximum displ.:     0.1714574 α      in ANC's #24, #20, #31, ...

........................................................................
.............................. CYCLE    3 ..............................
........................................................................
   1    -84.2612206 -0.842612E+02  0.698E-01    0.24       0.0  T
   2    -84.0583024  0.202918E+00  0.158E+00    1.71       1.0  T
   3    -84.1125065 -0.542041E-01  0.126E+00    0.36       1.0  T
   4    -84.3234566 -0.210950E+00  0.147E-01    0.05       1.0  T
   5    -84.3115386  0.119179E-01  0.324E-01    0.02       1.0  T
   6    -84.2924479  0.190907E-01  0.491E-01    0.12       1.0  T
   7    -84.3227595 -0.303116E-01  0.160E-01    0.05       1.0  T
   8    -84.3241576 -0.139806E-02  0.126E-01    0.02       1.0  T
   9    -84.3250700 -0.912429E-03  0.976E-02    0.05       1.0  T
  10    -84.3263882 -0.131824E-02  0.168E-02    0.03       1.0  T
  11    -84.3264228 -0.345828E-04  0.633E-03    0.04       2.4  T
  12    -84.3264283 -0.552531E-05  0.114E-03    0.03      13.5  T
  13    -84.3264285 -0.183180E-06  0.950E-05    0.03     162.3  T
  14    -84.3264285  0.800374E-08  0.256E-04    0.03      60.2  T
  15    -84.3264285 -0.927211E-08  0.182E-05    0.03     845.8  T
     SCC iter.                  ...        0 min,  0.060 sec
     gradient                   ...        0 min,  0.080 sec
 * total energy  :   -83.6060358 Eh     change       -0.7103966E-02 Eh
   gradient norm :     0.0279688 Eh/α   predicted    -0.6309217E-02 ( -11.19%)
   displ. norm   :     0.2432929 α      lambda       -0.2160064E-02
   maximum displ.:     0.1316510 α      in ANC's #24, #20, #15, ...

........................................................................
.............................. CYCLE    4 ..............................
........................................................................
   1    -84.3006646 -0.843007E+02  0.465E-01    0.11       0.0  T
   2    -84.0773079  0.223357E+00  0.148E+00    1.22       1.0  T
   3    -84.1251312 -0.478234E-01  0.121E+00    0.21       1.0  T
   4    -84.3301691 -0.205038E+00  0.726E-02    0.04       1.0  T
   5    -84.3298420  0.327105E-03  0.860E-02    0.03       1.0  T
   6    -84.3300055 -0.163485E-03  0.790E-02    0.04       1.0  T
   7    -84.3307792 -0.773715E-03  0.280E-02    0.03       1.0  T
   8    -84.3308887 -0.109498E-03  0.317E-03    0.03       4.9  T
   9    -84.3308869  0.179771E-05  0.475E-03    0.04       3.2  T
  10    -84.3308898 -0.292807E-05  0.141E-03    0.03      10.9  T
  11    -84.3308900 -0.178378E-06  0.857E-04    0.04      18.0  T
  12    -84.3308901 -0.104115E-06  0.480E-06    0.04    3214.8  T
  13    -84.3308901  0.488853E-11  0.703E-06    0.04    2196.0  T
     SCC iter.                  ...        0 min,  0.052 sec
     gradient                   ...        0 min,  0.081 sec
 * total energy  :   -83.6075616 Eh     change       -0.1525795E-02 Eh
   gradient norm :     0.0220790 Eh/α   predicted    -0.1144031E-02 ( -25.02%)
   displ. norm   :     0.2655898 α      lambda       -0.1305870E-02
   maximum displ.:     0.1288898 α      in ANC's #24, #20, #18, ...

........................................................................
.............................. CYCLE    5 ..............................
........................................................................
   1    -84.3237209 -0.843237E+02  0.276E-01    0.07       0.0  T
   2    -84.0951282  0.228593E+00  0.138E+00    0.73       1.0  T
   3    -84.2434065 -0.148278E+00  0.800E-01    0.06       1.0  T
   4    -84.3091579 -0.657514E-01  0.425E-01    0.10       1.0  T
   5    -84.3335807 -0.244228E-01  0.791E-02    0.04       1.0  T
   6    -84.3344468 -0.866097E-03  0.911E-03    0.03       1.7  T
   7    -84.3344461  0.659819E-06  0.908E-03    0.04       1.7  T
   8    -84.3344402  0.591428E-05  0.110E-02    0.03       1.4  T
   9    -84.3344573 -0.170861E-04  0.128E-03    0.04      12.0  T
  10    -84.3344574 -0.129484E-06  0.858E-04    0.04      18.0  T
  11    -84.3344575 -0.997441E-07  0.165E-04    0.04      93.5  T
  12    -84.3344575 -0.350975E-08  0.509E-05    0.04     303.0  T
     SCC iter.                  ...        0 min,  0.047 sec
     gradient                   ...        0 min,  0.082 sec
 * total energy  :   -83.6084264 Eh     change       -0.8648598E-03 Eh
   gradient norm :     0.0150955 Eh/α   predicted    -0.6989936E-03 ( -19.18%)
   displ. norm   :     0.1925125 α      lambda       -0.5057247E-03
   maximum displ.:     0.0643840 α      in ANC's #24, #18, #11, ...

........................................................................
.............................. CYCLE    6 ..............................
........................................................................
   1    -84.3366874 -0.843367E+02  0.523E-02    0.03       0.0  T
   2    -84.2850879  0.515995E-01  0.615E-01    0.17       1.0  T
   3    -84.3369000 -0.518121E-01  0.347E-02    0.04       1.0  T
   4    -84.3370549 -0.154934E-03  0.353E-03    0.04       4.4  T
   5    -84.3370439  0.110021E-04  0.924E-03    0.04       1.7  T
   6    -84.3370505 -0.654951E-05  0.570E-03    0.04       2.7  T
   7    -84.3370540 -0.356489E-05  0.277E-03    0.04       5.6  T
   8    -84.3370551 -0.100901E-05  0.727E-04    0.04      21.2  T
   9    -84.3370551 -0.727643E-07  0.968E-05    0.04     159.5  T
  10    -84.3370551 -0.128929E-08  0.593E-06    0.04    2603.0  T
     SCC iter.                  ...        0 min,  0.040 sec
     gradient                   ...        0 min,  0.082 sec
 * total energy  :   -83.6087766 Eh     change       -0.3501614E-03 Eh
   gradient norm :     0.0087355 Eh/α   predicted    -0.2622963E-03 ( -25.09%)
   displ. norm   :     0.2067597 α      lambda       -0.3357377E-03
   maximum displ.:     0.0742932 α      in ANC's #11, #7, #3, ...

........................................................................
.............................. CYCLE    7 ..............................
........................................................................
   1    -84.3344037 -0.843344E+02  0.158E-01    0.02       0.0  T
   2    -84.2666813  0.677225E-01  0.756E-01    0.48       1.0  T
   3    -84.3145553 -0.478740E-01  0.409E-01    0.10       1.0  T
   4    -84.3379364 -0.233811E-01  0.130E-02    0.04       1.2  T
   5    -84.3376376  0.298797E-03  0.478E-02    0.04       1.0  T
   6    -84.3379458 -0.308280E-03  0.822E-03    0.03       1.9  T
   7    -84.3379494 -0.357589E-05  0.669E-03    0.04       2.3  T
   8    -84.3379533 -0.391242E-05  0.409E-03    0.03       3.8  T
   9    -84.3379557 -0.232862E-05  0.530E-04    0.04      29.1  T
  10    -84.3379557 -0.335702E-07  0.211E-04    0.04      73.0  T
  11    -84.3379557 -0.609646E-08  0.327E-05    0.04     471.4  T
  12    -84.3379557 -0.583924E-10  0.251E-05    0.04     615.9  T
     SCC iter.                  ...        0 min,  0.046 sec
     gradient                   ...        0 min,  0.082 sec
 * total energy  :   -83.6090298 Eh     change       -0.2532499E-03 Eh
   gradient norm :     0.0088207 Eh/α   predicted    -0.1750512E-03 ( -30.88%)
   displ. norm   :     0.3264390 α      lambda       -0.4175892E-03
   maximum displ.:     0.1357580 α      in ANC's #3, #7, #11, ...

........................................................................
.............................. CYCLE    8 ..............................
........................................................................
   1    -84.3284751 -0.843285E+02  0.251E-01    0.02       0.0  T
   2    -84.2590473  0.694278E-01  0.824E-01    0.74       1.0  T
   3    -84.2832268 -0.241795E-01  0.628E-01    0.18       1.0  T
   4    -84.3282921 -0.450653E-01  0.256E-01    0.07       1.0  T
   5    -84.3294519 -0.115980E-02  0.237E-01    0.02       1.0  T
   6    -84.3329108 -0.345891E-02  0.180E-01    0.06       1.0  T
   7    -84.3374531 -0.454233E-02  0.758E-03    0.04       2.0  T
   8    -84.3374523  0.879550E-06  0.782E-03    0.04       2.0  T
   9    -84.3374607 -0.840526E-05  0.982E-04    0.03      15.7  T
  10    -84.3374607  0.577691E-08  0.100E-03    0.03      15.4  T
  11    -84.3374608 -0.140565E-06  0.171E-05    0.03     903.0  T
  12    -84.3374608  0.881272E-08  0.250E-04    0.03      61.6  T
  13    -84.3374608 -0.807449E-08  0.730E-05    0.03     211.3  T
     SCC iter.                  ...        0 min,  0.051 sec
     gradient                   ...        0 min,  0.081 sec
 * total energy  :   -83.6093535 Eh     change       -0.3236357E-03 Eh
   gradient norm :     0.0107565 Eh/α   predicted    -0.2310484E-03 ( -28.61%)
   displ. norm   :     0.4317766 α      lambda       -0.4856360E-03
   maximum displ.:     0.1953492 α      in ANC's #3, #7, #9, ...

........................................................................
.............................. CYCLE    9 ..............................
........................................................................
   1    -84.3282404 -0.843282E+02  0.217E-01    0.02       0.0  T
   2    -84.2577982  0.704421E-01  0.805E-01    0.64       1.0  T
   3    -84.2893830 -0.315847E-01  0.573E-01    0.14       1.0  T
   4    -84.3306531 -0.412702E-01  0.175E-01    0.06       1.0  T
   5    -84.3332545 -0.260136E-02  0.109E-01    0.02       1.0  T
   6    -84.3322521  0.100240E-02  0.138E-01    0.05       1.0  T
   7    -84.3349234 -0.267134E-02  0.140E-02    0.03       1.1  T
   8    -84.3349487 -0.252361E-04  0.417E-03    0.03       3.7  T
   9    -84.3349508 -0.215076E-05  0.142E-03    0.03      10.9  T
  10    -84.3349511 -0.224828E-06  0.645E-04    0.03      23.9  T
  11    -84.3349511 -0.583855E-07  0.202E-05    0.03     762.4  T
  12    -84.3349511  0.101632E-08  0.874E-05    0.03     176.6  T
     SCC iter.                  ...        0 min,  0.048 sec
     gradient                   ...        0 min,  0.082 sec
 * total energy  :   -83.6097140 Eh     change       -0.3605350E-03 Eh
   gradient norm :     0.0114886 Eh/α   predicted    -0.2880912E-03 ( -20.09%)
   displ. norm   :     0.3725925 α      lambda       -0.4426898E-03
   maximum displ.:     0.1916851 α      in ANC's #7, #3, #9, ...

........................................................................
.............................. CYCLE   10 ..............................
........................................................................
   1    -84.3298246 -0.843298E+02  0.195E-01    0.02       0.0  T
   2    -84.2586880  0.711366E-01  0.795E-01    0.58       1.0  T
   3    -84.2965069 -0.378188E-01  0.527E-01    0.13       1.0  T
   4    -84.3297642 -0.332574E-01  0.198E-01    0.06       1.0  T
   5    -84.3335601 -0.379585E-02  0.110E-01    0.02       1.0  T
   6    -84.3342611 -0.701020E-03  0.851E-02    0.04       1.0  T
   7    -84.3352735 -0.101238E-02  0.714E-03    0.03       2.2  T
   8    -84.3352789 -0.541143E-05  0.366E-03    0.03       4.2  T
   9    -84.3352805 -0.153895E-05  0.151E-03    0.03      10.3  T
  10    -84.3352808 -0.320625E-06  0.173E-05    0.03     891.7  T
  11    -84.3352808  0.787139E-09  0.763E-05    0.03     202.2  T
     SCC iter.                  ...        0 min,  0.043 sec
     gradient                   ...        0 min,  0.081 sec
 * total energy  :   -83.6100375 Eh     change       -0.3234428E-03 Eh
   gradient norm :     0.0108855 Eh/α   predicted    -0.2520908E-03 ( -22.06%)
   displ. norm   :     0.4075820 α      lambda       -0.4337628E-03
   maximum displ.:     0.2223788 α      in ANC's #7, #3, #9, ...

........................................................................
.............................. CYCLE   11 ..............................
........................................................................
   1    -84.3318196 -0.843318E+02  0.110E-01    0.02       0.0  T
   2    -84.2627777  0.690418E-01  0.735E-01    0.34       1.0  T
   3    -84.3255961 -0.628184E-01  0.238E-01    0.06       1.0  T
   4    -84.3285298 -0.293367E-02  0.188E-01    0.02       1.0  T
   5    -84.3334621 -0.493225E-02  0.271E-02    0.04       1.0  T
   6    -84.3335442 -0.821539E-04  0.111E-02    0.03       1.4  T
   7    -84.3335557 -0.115254E-04  0.678E-03    0.03       2.3  T
   8    -84.3335599 -0.411365E-05  0.402E-03    0.03       3.8  T
   9    -84.3335621 -0.227905E-05  0.358E-04    0.03      43.1  T
  10    -84.3335621 -0.172935E-07  0.691E-05    0.03     223.4  T
  11    -84.3335621  0.349202E-08  0.172E-04    0.03      89.9  T
     SCC iter.                  ...        0 min,  0.043 sec
     gradient                   ...        0 min,  0.082 sec
 * total energy  :   -83.6103434 Eh     change       -0.3059305E-03 Eh
   gradient norm :     0.0116627 Eh/α   predicted    -0.2529117E-03 ( -17.33%)
   displ. norm   :     0.3484211 α      lambda       -0.5453693E-03
   maximum displ.:     0.2120667 α      in ANC's #7, #3, #11, ...

........................................................................
.............................. CYCLE   12 ..............................
........................................................................
   1    -84.3371662 -0.843372E+02  0.152E-01    0.02       0.0  T
   2    -84.2660724  0.710938E-01  0.768E-01    0.46       1.0  T
   3    -84.3174412 -0.513689E-01  0.405E-01    0.09       1.0  T
   4    -84.3396369 -0.221956E-01  0.795E-02    0.04       1.0  T
   5    -84.3396015  0.353707E-04  0.793E-02    0.02       1.0  T
   6    -84.3403170 -0.715517E-03  0.368E-02    0.04       1.0  T
   7    -84.3404920 -0.174926E-03  0.103E-02    0.03       1.5  T
   8    -84.3405072 -0.152051E-04  0.385E-04    0.03      40.0  T
   9    -84.3405071  0.370996E-07  0.641E-04    0.03      24.1  T
  10    -84.3405072 -0.580230E-07  0.379E-05    0.03     407.0  T
  11    -84.3405072 -0.198369E-09  0.313E-06    0.03    4926.5  T
     SCC iter.                  ...        0 min,  0.044 sec
     gradient                   ...        0 min,  0.082 sec
 * total energy  :   -83.6106208 Eh     change       -0.2773889E-03 Eh
   gradient norm :     0.0129964 Eh/α   predicted    -0.3057902E-03 (  10.24%)
   displ. norm   :     0.4772842 α      lambda       -0.4466662E-03
   maximum displ.:     0.2801220 α      in ANC's #7, #3, #11, ...

........................................................................
.............................. CYCLE   13 ..............................
........................................................................
   1    -84.3333727 -0.843334E+02  0.675E-02    0.04       0.0  T
   2    -84.1579848  0.175388E+00  0.112E+00    0.15       1.0  T
   3    -84.3331466 -0.175162E+00  0.797E-02    0.02       1.0  T
   4    -84.3339206 -0.773982E-03  0.249E-02    0.03       1.0  T
   5    -84.3339874 -0.668035E-04  0.903E-03    0.03       1.7  T
   6    -84.3339946 -0.724440E-05  0.402E-03    0.03       3.8  T
   7    -84.3339967 -0.208860E-05  0.868E-04    0.03      17.8  T
   8    -84.3339968 -0.949703E-07  0.289E-04    0.03      53.4  T
   9    -84.3339968 -0.103088E-07  0.965E-05    0.03     159.9  T
  10    -84.3339968 -0.114353E-08  0.301E-05    0.03     511.8  T
     SCC iter.                  ...        0 min,  0.038 sec
     gradient                   ...        0 min,  0.087 sec
 * total energy  :   -83.6108661 Eh     change       -0.2453032E-03 Eh
   gradient norm :     0.0158202 Eh/α   predicted    -0.2742105E-03 (  11.78%)
   displ. norm   :     0.1799275 α      lambda       -0.4189786E-03
   maximum displ.:     0.1002640 α      in ANC's #3, #7, #1, ...

........................................................................
.............................. CYCLE   14 ..............................
........................................................................
   1    -84.3344146 -0.843344E+02  0.111E-01    0.05       0.0  T
   2    -84.1222181  0.212197E+00  0.124E+00    0.27       1.0  T
   3    -84.3353731 -0.213155E+00  0.718E-02    0.02       1.0  T
   4    -84.3355770 -0.203851E-03  0.618E-02    0.04       1.0  T
   5    -84.3359138 -0.336794E-03  0.371E-02    0.03       1.0  T
   6    -84.3360083 -0.945248E-04  0.271E-02    0.04       1.0  T
   7    -84.3361089 -0.100583E-03  0.454E-03    0.03       3.4  T
   8    -84.3361118 -0.285369E-05  0.800E-04    0.03      19.3  T
   9    -84.3361118 -0.720113E-07  0.369E-04    0.03      41.8  T
  10    -84.3361118 -0.175810E-07  0.102E-04    0.03     151.8  T
  11    -84.3361118 -0.112577E-08  0.508E-05    0.03     303.5  T
     SCC iter.                  ...        0 min,  0.044 sec
     gradient                   ...        0 min,  0.086 sec
 * total energy  :   -83.6111642 Eh     change       -0.2980804E-03 Eh
   gradient norm :     0.0105072 Eh/α   predicted    -0.2162765E-03 ( -27.44%)
   displ. norm   :     0.4287025 α      lambda       -0.5396149E-03
   maximum displ.:     0.2659183 α      in ANC's #3, #7, #1, ...

........................................................................
.............................. CYCLE   15 ..............................
........................................................................
   1    -84.3333763 -0.843334E+02  0.172E-01    0.06       0.0  T
   2    -84.1116179  0.221758E+00  0.130E+00    0.45       1.0  T
   3    -84.3181450 -0.206527E+00  0.371E-01    0.01       1.0  T
   4    -84.3161956  0.194944E-02  0.389E-01    0.09       1.0  T
   5    -84.3374389 -0.212433E-01  0.389E-02    0.04       1.0  T
   6    -84.3375690 -0.130135E-03  0.254E-02    0.03       1.0  T
   7    -84.3376089 -0.398982E-04  0.185E-02    0.04       1.0  T
   8    -84.3376488 -0.398388E-04  0.815E-03    0.03       1.9  T
   9    -84.3376582 -0.942909E-05  0.436E-04    0.03      35.4  T
  10    -84.3376582 -0.112443E-07  0.326E-04    0.03      47.4  T
  11    -84.3376582 -0.151509E-07  0.125E-05    0.03    1235.2  T
  12    -84.3376582  0.417799E-11  0.127E-05    0.03    1213.4  T
     SCC iter.                  ...        0 min,  0.038 sec
     gradient                   ...        0 min,  0.045 sec
 * total energy  :   -83.6115776 Eh     change       -0.4134475E-03 Eh
   gradient norm :     0.0099901 Eh/α   predicted    -0.3193987E-03 ( -22.75%)
   displ. norm   :     0.5810435 α      lambda       -0.5603033E-03
   maximum displ.:     0.3652939 α      in ANC's #3, #7, #1, ...

........................................................................
.............................. CYCLE   16 ..............................
........................................................................
   1    -84.3325426 -0.843325E+02  0.177E-01    0.06       0.0  T
   2    -84.1078665  0.224676E+00  0.131E+00    0.46       1.0  T
   3    -84.3148516 -0.206985E+00  0.396E-01    0.02       1.0  T
   4    -84.3120723  0.277922E-02  0.420E-01    0.10       1.0  T
   5    -84.3361647 -0.240924E-01  0.809E-02    0.04       1.0  T
   6    -84.3370225 -0.857836E-03  0.247E-02    0.03       1.0  T
   7    -84.3370382 -0.156168E-04  0.218E-02    0.04       1.0  T
   8    -84.3370935 -0.553473E-04  0.967E-03    0.03       1.6  T
   9    -84.3371066 -0.130879E-04  0.121E-03    0.04      12.7  T
  10    -84.3371068 -0.191021E-06  0.366E-04    0.03      42.1  T
  11    -84.3371068 -0.182867E-07  0.729E-05    0.03     211.6  T
  12    -84.3371068 -0.727709E-09  0.127E-05    0.03    1215.8  T
     SCC iter.                  ...        0 min,  0.033 sec
     gradient                   ...        0 min,  0.064 sec
 * total energy  :   -83.6120172 Eh     change       -0.4395841E-03 Eh
   gradient norm :     0.0102956 Eh/α   predicted    -0.3747570E-03 ( -14.75%)
   displ. norm   :     0.5975790 α      lambda       -0.5817578E-03
   maximum displ.:     0.3666549 α      in ANC's #3, #7, #1, ...

........................................................................
.............................. CYCLE   17 ..............................
........................................................................
   1    -84.3304089 -0.843304E+02  0.202E-01    0.06       0.0  T
   2    -84.1019791  0.228430E+00  0.133E+00    0.52       1.0  T
   3    -84.3002499 -0.198271E+00  0.504E-01    0.03       1.0  T
   4    -84.3040890 -0.383910E-02  0.478E-01    0.12       1.0  T
   5    -84.3349892 -0.309001E-01  0.986E-02    0.05       1.0  T
   6    -84.3362709 -0.128177E-02  0.304E-02    0.03       1.0  T
   7    -84.3363468 -0.758109E-04  0.187E-02    0.04       1.0  T
   8    -84.3363458  0.965582E-06  0.191E-02    0.03       1.0  T
   9    -84.3363973 -0.514787E-04  0.195E-03    0.04       7.9  T
  10    -84.3363977 -0.465750E-06  0.735E-04    0.04      21.0  T
  11    -84.3363978 -0.774067E-07  0.104E-05    0.04    1485.8  T
  12    -84.3363978  0.579803E-11  0.826E-06    0.04    1868.2  T
     SCC iter.                  ...        0 min,  0.046 sec
     gradient                   ...        0 min,  0.079 sec
 * total energy  :   -83.6124392 Eh     change       -0.4219779E-03 Eh
   gradient norm :     0.0098068 Eh/α   predicted    -0.3947533E-03 (  -6.45%)
   displ. norm   :     0.4388169 α      lambda       -0.5337351E-03
   maximum displ.:     0.2274912 α      in ANC's #3, #7, #4, ...

........................................................................
.............................. CYCLE   18 ..............................
........................................................................
   1    -84.3436744 -0.843437E+02  0.328E-02    0.04       0.0  T
   2    -84.3152393  0.284351E-01  0.446E-01    0.02       1.0  T
   3    -84.3434450 -0.282057E-01  0.478E-02    0.04       1.0  T
   4    -84.3437404 -0.295372E-03  0.102E-02    0.04       1.5  T
   5    -84.3437474 -0.695096E-05  0.306E-03    0.04       5.0  T
   6    -84.3437481 -0.750148E-06  0.463E-04    0.04      33.3  T
   7    -84.3437481 -0.140727E-07  0.201E-04    0.04      76.6  T
   8    -84.3437481 -0.522924E-08  0.312E-05    0.04     494.7  T
   9    -84.3437481 -0.140687E-10  0.140E-05    0.04    1100.7  T
     SCC iter.                  ...        0 min,  0.034 sec
     gradient                   ...        0 min,  0.081 sec
 * total energy  :   -83.6125411 Eh     change       -0.1019658E-03 Eh
   gradient norm :     0.0191851 Eh/α   predicted    -0.3182572E-03 ( 212.12%)
   displ. norm   :     0.5176682 α      lambda       -0.7812802E-03
   maximum displ.:     0.2899038 α      in ANC's #7, #3, #9, ...

........................................................................
.............................. CYCLE   19 ..............................
........................................................................
   1    -84.3319647 -0.843320E+02  0.886E-02    0.05       0.0  T
   2    -84.1271539  0.204811E+00  0.121E+00    0.19       1.0  T
   3    -84.3303711 -0.203217E+00  0.140E-01    0.02       1.0  T
   4    -84.3329955 -0.262439E-02  0.212E-02    0.04       1.0  T
   5    -84.3329965 -0.101006E-05  0.180E-02    0.04       1.0  T
   6    -84.3330349 -0.384612E-04  0.347E-03    0.04       4.4  T
   7    -84.3330364 -0.149888E-05  0.807E-04    0.04      19.1  T
   8    -84.3330365 -0.834812E-07  0.204E-04    0.04      75.8  T
   9    -84.3330365  0.614109E-08  0.293E-04    0.04      52.7  T
  10    -84.3330365 -0.821362E-08  0.162E-04    0.04      95.5  T
  11    -84.3330365 -0.344292E-08  0.490E-05    0.04     315.1  T
     SCC iter.                  ...        0 min,  0.042 sec
     gradient                   ...        0 min,  0.080 sec
 * total energy  :   -83.6128559 Eh     change       -0.3147687E-03 Eh
   gradient norm :     0.0143093 Eh/α   predicted    -0.4953245E-03 (  57.36%)
   displ. norm   :     0.1421812 α      lambda       -0.4424881E-03
   maximum displ.:     0.0806079 α      in ANC's #7, #3, #6, ...

........................................................................
.............................. CYCLE   20 ..............................
........................................................................
   1    -84.3374636 -0.843375E+02  0.796E-02    0.03       0.0  T
   2    -84.2798376  0.576260E-01  0.660E-01    0.26       1.0  T
   3    -84.3336760 -0.538385E-01  0.185E-01    0.06       1.0  T
   4    -84.3348744 -0.119834E-02  0.156E-01    0.02       1.0  T
   5    -84.3380139 -0.313949E-02  0.556E-02    0.04       1.0  T
   6    -84.3381915 -0.177629E-03  0.407E-02    0.03       1.0  T
   7    -84.3384223 -0.230826E-03  0.912E-03    0.04       1.7  T
   8    -84.3384326 -0.102582E-04  0.330E-03    0.04       4.7  T
   9    -84.3384340 -0.137925E-05  0.110E-03    0.04      14.0  T
  10    -84.3384341 -0.151432E-06  0.385E-04    0.04      40.1  T
  11    -84.3384341 -0.196054E-07  0.111E-04    0.04     139.2  T
  12    -84.3384341 -0.171846E-08  0.167E-05    0.04     923.4  T
     SCC iter.                  ...        0 min,  0.046 sec
     gradient                   ...        0 min,  0.081 sec
 * total energy  :   -83.6130070 Eh     change       -0.1511305E-03 Eh
   gradient norm :     0.0102599 Eh/α   predicted    -0.2257239E-03 (  49.36%)
   displ. norm   :     0.3108197 α      lambda       -0.3376972E-03
   maximum displ.:     0.1572314 α      in ANC's #3, #7, #4, ...
 * RMSD in coord.:     0.8479755 α      energy gain  -0.3582715E-01 Eh

generating ANC from model Hessian ...
Using Lindh-Hessian (1995)
 Shifting diagonal of input Hessian by   9.812178194106534E-003
 Lowest  eigenvalues of input Hessian
    0.000000    0.000000    0.000000    0.000000    0.000000    0.000000
    0.010000    0.010077    0.010724    0.011135    0.011647    0.012039
    0.013100    0.014128    0.014262    0.015446    0.015992    0.017129
 Highest eigenvalues
    2.052913    2.075697    2.082032    2.244490    2.257931    2.281108
 

........................................................................
.............................. CYCLE   21 ..............................
........................................................................
   1    -84.3400522 -0.843401E+02  0.301E-02    0.04       0.0  T
   2    -84.2785847  0.614675E-01  0.655E-01    0.04       1.0  T
   3    -84.3401572 -0.615726E-01  0.101E-02    0.04       1.5  T
   4    -84.3401627 -0.548619E-05  0.654E-03    0.04       2.4  T
   5    -84.3401663 -0.359289E-05  0.290E-03    0.04       5.3  T
   6    -84.3401671 -0.816787E-06  0.672E-04    0.04      23.0  T
   7    -84.3401672 -0.556752E-07  0.208E-04    0.04      74.3  T
   8    -84.3401672 -0.585338E-08  0.195E-05    0.04     792.9  T
   9    -84.3401672 -0.193268E-11  0.706E-06    0.04    2186.3  T
     SCC iter.                  ...        0 min,  0.034 sec
     gradient                   ...        0 min,  0.078 sec
 * total energy  :   -83.6132550 Eh     change       -0.2479445E-03 Eh
   gradient norm :     0.0071807 Eh/α   predicted     0.0000000E+00 (-100.00%)
   displ. norm   :     0.0730867 α      lambda       -0.1276294E-03
   maximum displ.:     0.0260079 α      in ANC's #4, #3, #2, ...

........................................................................
.............................. CYCLE   22 ..............................
........................................................................
   1    -84.3385917 -0.843386E+02  0.113E-01    0.03       0.0  T
   2    -84.2774983  0.610933E-01  0.693E-01    0.35       1.0  T
   3    -84.3319193 -0.544210E-01  0.245E-01    0.07       1.0  T
   4    -84.3403749 -0.845554E-02  0.217E-02    0.04       1.0  T
   5    -84.3404356 -0.607570E-04  0.359E-03    0.04       4.3  T
   6    -84.3404375 -0.186916E-05  0.837E-04    0.04      18.4  T
   7    -84.3404362  0.128518E-05  0.309E-03    0.04       5.0  T
   8    -84.3404373 -0.108410E-05  0.136E-03    0.04      11.3  T
   9    -84.3404376 -0.234095E-06  0.478E-04    0.04      32.3  T
  10    -84.3404376 -0.288764E-07  0.159E-04    0.04      97.2  T
  11    -84.3404376 -0.358716E-08  0.180E-05    0.04     856.7  T
     SCC iter.                  ...        0 min,  0.042 sec
     gradient                   ...        0 min,  0.078 sec
 * total energy  :   -83.6133707 Eh     change       -0.1157647E-03 Eh
   gradient norm :     0.0034130 Eh/α   predicted    -0.7061060E-04 ( -39.01%)
   displ. norm   :     0.2328799 α      lambda       -0.2751722E-03
   maximum displ.:     0.0902617 α      in ANC's #4, #3, #2, ...

........................................................................
.............................. CYCLE   23 ..............................
........................................................................
   1    -84.3329827 -0.843330E+02  0.222E-01    0.02       0.0  T
   2    -84.2685651  0.644176E-01  0.778E-01    0.65       1.0  T
   3    -84.2955399 -0.269748E-01  0.565E-01    0.16       1.0  T
   4    -84.3268144 -0.312745E-01  0.307E-01    0.08       1.0  T
   5    -84.3346577 -0.784331E-02  0.194E-01    0.02       1.0  T
   6    -84.3381602 -0.350243E-02  0.117E-01    0.05       1.0  T
   7    -84.3400342 -0.187403E-02  0.246E-02    0.03       1.0  T
   8    -84.3401058 -0.716156E-04  0.109E-02    0.04       1.4  T
   9    -84.3401150 -0.920662E-05  0.717E-03    0.04       2.2  T
  10    -84.3401224 -0.738683E-05  0.476E-04    0.04      32.4  T
  11    -84.3401224 -0.239999E-07  0.245E-04    0.04      63.0  T
  12    -84.3401224 -0.258643E-08  0.204E-04    0.04      75.8  T
  13    -84.3401224 -0.577791E-08  0.305E-05    0.04     505.3  T
  14    -84.3401224 -0.131593E-09  0.491E-06    0.04    3142.7  T
     SCC iter.                  ...        0 min,  0.054 sec
     gradient                   ...        0 min,  0.079 sec
 * total energy  :   -83.6135596 Eh     change       -0.1888810E-03 Eh
   gradient norm :     0.0046971 Eh/α   predicted    -0.1450506E-03 ( -23.21%)
   displ. norm   :     0.2358672 α      lambda       -0.1572001E-03
   maximum displ.:     0.0930294 α      in ANC's #4, #3, #1, ...

........................................................................
.............................. CYCLE   24 ..............................
........................................................................
   1    -84.3381707 -0.843382E+02  0.932E-02    0.03       0.0  T
   2    -84.2772432  0.609275E-01  0.682E-01    0.29       1.0  T
   3    -84.3350033 -0.577601E-01  0.177E-01    0.06       1.0  T
   4    -84.3388667 -0.386338E-02  0.626E-02    0.03       1.0  T
   5    -84.3394054 -0.538751E-03  0.146E-02    0.04       1.1  T
   6    -84.3394346 -0.291281E-04  0.102E-03    0.04      15.1  T
   7    -84.3394328  0.182382E-05  0.361E-03    0.04       4.3  T
   8    -84.3394343 -0.155937E-05  0.142E-03    0.04      10.9  T
   9    -84.3394346 -0.282229E-06  0.204E-04    0.04      75.7  T
  10    -84.3394346 -0.409841E-10  0.201E-04    0.04      76.6  T
  11    -84.3394346 -0.493922E-08  0.796E-05    0.04     193.8  T
  12    -84.3394346 -0.855451E-09  0.185E-05    0.04     833.4  T
     SCC iter.                  ...        0 min,  0.044 sec
     gradient                   ...        0 min,  0.069 sec
 * total energy  :   -83.6136814 Eh     change       -0.1217798E-03 Eh
   gradient norm :     0.0060843 Eh/α   predicted    -0.8297310E-04 ( -31.87%)
   displ. norm   :     0.3047835 α      lambda       -0.1735210E-03
   maximum displ.:     0.1227382 α      in ANC's #3, #4, #1, ...

........................................................................
.............................. CYCLE   25 ..............................
........................................................................
   1    -84.3387904 -0.843388E+02  0.320E-02    0.03       0.0  T
   2    -84.3067793  0.320110E-01  0.477E-01    0.12       1.0  T
   3    -84.3388801 -0.321008E-01  0.201E-02    0.04       1.0  T
   4    -84.3389342 -0.540882E-04  0.229E-03    0.04       6.7  T
   5    -84.3389343 -0.125410E-06  0.111E-03    0.04      13.9  T
   6    -84.3389338  0.513118E-06  0.191E-03    0.04       8.1  T
   7    -84.3389341 -0.299010E-06  0.123E-03    0.04      12.5  T
   8    -84.3389343 -0.217262E-06  0.702E-05    0.04     219.7  T
   9    -84.3389343  0.427150E-09  0.871E-05    0.04     177.2  T
     SCC iter.                  ...        0 min,  0.034 sec
     gradient                   ...        0 min,  0.079 sec
 * total energy  :   -83.6138090 Eh     change       -0.1275981E-03 Eh
   gradient norm :     0.0052606 Eh/α   predicted    -0.9482152E-04 ( -25.69%)
   displ. norm   :     0.2488594 α      lambda       -0.1288518E-03
   maximum displ.:     0.1125349 α      in ANC's #1, #3, #2, ...

........................................................................
.............................. CYCLE   26 ..............................
........................................................................
   1    -84.3394766 -0.843395E+02  0.191E-02    0.04       0.0  T
   2    -84.3157924  0.236842E-01  0.407E-01    0.02       1.0  T
   3    -84.3395095 -0.237172E-01  0.999E-03    0.04       1.5  T
   4    -84.3395216 -0.120533E-04  0.298E-03    0.04       5.2  T
   5    -84.3395216 -0.288135E-07  0.264E-03    0.04       5.9  T
   6    -84.3395225 -0.873297E-06  0.162E-04    0.04      95.4  T
   7    -84.3395225 -0.919115E-09  0.394E-05    0.04     391.6  T
     SCC iter.                  ...        0 min,  0.027 sec
     gradient                   ...        0 min,  0.078 sec
 * total energy  :   -83.6139072 Eh     change       -0.9823432E-04 Eh
   gradient norm :     0.0039676 Eh/α   predicted    -0.6841686E-04 ( -30.35%)
   displ. norm   :     0.2370473 α      lambda       -0.1296066E-03
   maximum displ.:     0.1202570 α      in ANC's #1, #3, #2, ...

........................................................................
.............................. CYCLE   27 ..............................
........................................................................
   1    -84.3404501 -0.843405E+02  0.462E-02    0.04       0.0  T
   2    -84.2074986  0.132951E+00  0.965E-01    0.09       1.0  T
   3    -84.3407429 -0.133244E+00  0.111E-02    0.04       1.4  T
   4    -84.3407504 -0.746811E-05  0.771E-03    0.04       2.0  T
   5    -84.3407565 -0.613023E-05  0.367E-03    0.04       4.2  T
   6    -84.3407583 -0.171419E-05  0.246E-04    0.04      62.8  T
   7    -84.3407583 -0.263267E-08  0.131E-04    0.04     117.7  T
   8    -84.3407583 -0.219670E-08  0.239E-05    0.04     644.3  T
     SCC iter.                  ...        0 min,  0.031 sec
     gradient                   ...        0 min,  0.078 sec
 * total energy  :   -83.6140076 Eh     change       -0.1003561E-03 Eh
   gradient norm :     0.0039608 Eh/α   predicted    -0.6849985E-04 ( -31.74%)
   displ. norm   :     0.2660905 α      lambda       -0.1286686E-03
   maximum displ.:     0.1417165 α      in ANC's #1, #3, #2, ...

........................................................................
.............................. CYCLE   28 ..............................
........................................................................
   1    -84.3399491 -0.843399E+02  0.889E-02    0.05       0.0  T
   2    -84.1301586  0.209791E+00  0.122E+00    0.21       1.0  T
   3    -84.3402736 -0.210115E+00  0.770E-02    0.03       1.0  T
   4    -84.3409892 -0.715612E-03  0.289E-02    0.04       1.0  T
   5    -84.3410828 -0.935468E-04  0.143E-02    0.04       1.1  T
   6    -84.3411110 -0.282015E-04  0.133E-03    0.04      11.6  T
   7    -84.3411111 -0.136822E-06  0.843E-04    0.04      18.3  T
   8    -84.3411112 -0.590036E-07  0.536E-04    0.04      28.8  T
   9    -84.3411112 -0.385606E-07  0.123E-04    0.04     125.8  T
  10    -84.3411112 -0.204552E-08  0.295E-05    0.04     523.1  T
     SCC iter.                  ...        0 min,  0.038 sec
     gradient                   ...        0 min,  0.078 sec
 * total energy  :   -83.6141081 Eh     change       -0.1004863E-03 Eh
   gradient norm :     0.0045773 Eh/α   predicted    -0.6889258E-04 ( -31.44%)
   displ. norm   :     0.2821928 α      lambda       -0.1204049E-03
   maximum displ.:     0.1565098 α      in ANC's #1, #2, #3, ...

........................................................................
.............................. CYCLE   29 ..............................
........................................................................
   1    -84.3391080 -0.843391E+02  0.108E-01    0.05       0.0  T
   2    -84.1196807  0.219427E+00  0.126E+00    0.27       1.0  T
   3    -84.3385417 -0.218861E+00  0.127E-01    0.02       1.0  T
   4    -84.3395623 -0.102068E-02  0.942E-02    0.05       1.0  T
   5    -84.3407886 -0.122631E-02  0.200E-02    0.04       1.0  T
   6    -84.3408333 -0.446488E-04  0.892E-03    0.04       1.7  T
   7    -84.3408442 -0.109094E-04  0.833E-04    0.04      18.5  T
   8    -84.3408441  0.857409E-07  0.111E-03    0.04      13.9  T
   9    -84.3408443 -0.169262E-06  0.200E-04    0.04      77.1  T
  10    -84.3408443 -0.578964E-08  0.888E-06    0.04    1738.2  T
  11    -84.3408443  0.127187E-10  0.122E-05    0.04    1267.4  T
     SCC iter.                  ...        0 min,  0.041 sec
     gradient                   ...        0 min,  0.079 sec
 * total energy  :   -83.6141987 Eh     change       -0.9066376E-04 Eh
   gradient norm :     0.0044715 Eh/α   predicted    -0.6500291E-04 ( -28.30%)
   displ. norm   :     0.2386240 α      lambda       -0.8961452E-04
   maximum displ.:     0.1388744 α      in ANC's #1, #2, #3, ...

........................................................................
.............................. CYCLE   30 ..............................
........................................................................
   1    -84.3394543 -0.843395E+02  0.854E-02    0.05       0.0  T
   2    -84.1296574  0.209797E+00  0.122E+00    0.20       1.0  T
   3    -84.3398334 -0.210176E+00  0.700E-02    0.03       1.0  T
   4    -84.3403984 -0.564992E-03  0.301E-02    0.04       1.0  T
   5    -84.3404849 -0.865648E-04  0.180E-02    0.04       1.0  T
   6    -84.3405301 -0.451951E-04  0.165E-03    0.04       9.4  T
   7    -84.3405304 -0.337161E-06  0.904E-05    0.04     170.6  T
   8    -84.3405304  0.146207E-07  0.324E-04    0.04      47.6  T
   9    -84.3405304 -0.139340E-07  0.843E-05    0.04     183.0  T
     SCC iter.                  ...        0 min,  0.034 sec
     gradient                   ...        0 min,  0.080 sec
 * total energy  :   -83.6142677 Eh     change       -0.6893675E-04 Eh
   gradient norm :     0.0035570 Eh/α   predicted    -0.4737594E-04 ( -31.28%)
   displ. norm   :     0.2051679 α      lambda       -0.7915002E-04
   maximum displ.:     0.1256525 α      in ANC's #1, #2, #3, ...

........................................................................
.............................. CYCLE   31 ..............................
........................................................................
   1    -84.3402986 -0.843403E+02  0.448E-02    0.04       0.0  T
   2    -84.2092673  0.131031E+00  0.956E-01    0.09       1.0  T
   3    -84.3405638 -0.131296E+00  0.147E-02    0.04       1.0  T
   4    -84.3405936 -0.298304E-04  0.192E-03    0.04       8.0  T
   5    -84.3405933  0.290078E-06  0.203E-03    0.04       7.6  T
   6    -84.3405938 -0.488321E-06  0.130E-04    0.04     118.7  T
   7    -84.3405938  0.106894E-09  0.966E-05    0.04     159.7  T
     SCC iter.                  ...        0 min,  0.027 sec
     gradient                   ...        0 min,  0.078 sec
 * total energy  :   -83.6143305 Eh     change       -0.6279961E-04 Eh
   gradient norm :     0.0027614 Eh/α   predicted    -0.4124142E-04 ( -34.33%)
   displ. norm   :     0.2140369 α      lambda       -0.7752860E-04
   maximum displ.:     0.1351274 α      in ANC's #1, #2, #3, ...

........................................................................
.............................. CYCLE   32 ..............................
........................................................................
   1    -84.3404403 -0.843404E+02  0.212E-02    0.04       0.0  T
   2    -84.3043277  0.361126E-01  0.501E-01    0.03       1.0  T
   3    -84.3405036 -0.361759E-01  0.329E-03    0.04       4.7  T
   4    -84.3405045 -0.925987E-06  0.102E-03    0.04      15.2  T
   5    -84.3405045 -0.759580E-08  0.618E-04    0.04      25.0  T
   6    -84.3405045 -0.160399E-07  0.970E-05    0.04     159.0  T
   7    -84.3405045  0.639773E-10  0.697E-05    0.04     221.2  T
     SCC iter.                  ...        0 min,  0.027 sec
     gradient                   ...        0 min,  0.067 sec
 * total energy  :   -83.6143935 Eh     change       -0.6297873E-04 Eh
   gradient norm :     0.0031042 Eh/α   predicted    -0.4054369E-04 ( -35.62%)
   displ. norm   :     0.2307212 α      lambda       -0.8030127E-04
   maximum displ.:     0.1490413 α      in ANC's #1, #2, #3, ...

........................................................................
.............................. CYCLE   33 ..............................
........................................................................
   1    -84.3406840 -0.843407E+02  0.164E-02    0.04       0.0  T
   2    -84.3282689  0.124151E-01  0.296E-01    0.08       1.0  T
   3    -84.3407192 -0.124502E-01  0.478E-03    0.04       3.2  T
   4    -84.3407196 -0.416352E-06  0.407E-03    0.04       3.8  T
   5    -84.3407216 -0.207150E-05  0.115E-03    0.04      13.4  T
   6    -84.3407218 -0.121909E-06  0.455E-04    0.04      33.9  T
   7    -84.3407218 -0.268350E-07  0.110E-04    0.04     140.7  T
   8    -84.3407218 -0.156750E-08  0.266E-05    0.04     579.5  T
     SCC iter.                  ...        0 min,  0.030 sec
     gradient                   ...        0 min,  0.083 sec
 * total energy  :   -83.6144602 Eh     change       -0.6670080E-04 Eh
   gradient norm :     0.0037408 Eh/α   predicted    -0.4228834E-04 ( -36.60%)
   displ. norm   :     0.2557034 α      lambda       -0.8491001E-04
   maximum displ.:     0.1675168 α      in ANC's #1, #2, #3, ...

........................................................................
.............................. CYCLE   34 ..............................
........................................................................
   1    -84.3402902 -0.843403E+02  0.327E-02    0.04       0.0  T
   2    -84.3077453  0.325449E-01  0.481E-01    0.13       1.0  T
   3    -84.3403773 -0.326320E-01  0.220E-02    0.04       1.0  T
   4    -84.3404409 -0.636170E-04  0.556E-03    0.04       2.8  T
   5    -84.3404436 -0.270603E-05  0.353E-03    0.04       4.4  T
   6    -84.3404453 -0.167956E-05  0.146E-04    0.04     105.5  T
   7    -84.3404453  0.409514E-09  0.116E-04    0.04     132.6  T
   8    -84.3404453  0.628077E-09  0.133E-04    0.04     115.9  T
     SCC iter.                  ...        0 min,  0.030 sec
     gradient                   ...        0 min,  0.083 sec
 * total energy  :   -83.6145306 Eh     change       -0.7039543E-04 Eh
   gradient norm :     0.0035550 Eh/α   predicted    -0.4523452E-04 ( -35.74%)
   displ. norm   :     0.2752423 α      lambda       -0.8439262E-04
   maximum displ.:     0.1839347 α      in ANC's #1, #2, #3, ...

........................................................................
.............................. CYCLE   35 ..............................
........................................................................
   1    -84.3403106 -0.843403E+02  0.627E-02    0.03       0.0  T
   2    -84.2879734  0.523372E-01  0.620E-01    0.21       1.0  T
   3    -84.3399804 -0.520070E-01  0.796E-02    0.05       1.0  T
   4    -84.3401375 -0.157045E-03  0.719E-02    0.03       1.0  T
   5    -84.3408777 -0.740217E-03  0.581E-03    0.04       2.7  T
   6    -84.3408765  0.121036E-05  0.641E-03    0.04       2.4  T
   7    -84.3408822 -0.574042E-05  0.244E-04    0.04      63.2  T
   8    -84.3408822  0.548490E-07  0.660E-04    0.04      23.4  T
   9    -84.3408822 -0.622184E-07  0.276E-05    0.04     558.5  T
  10    -84.3408822  0.135049E-08  0.100E-04    0.04     154.0  T
     SCC iter.                  ...        0 min,  0.038 sec
     gradient                   ...        0 min,  0.081 sec
 * total energy  :   -83.6145983 Eh     change       -0.6770905E-04 Eh
   gradient norm :     0.0028743 Eh/α   predicted    -0.4539366E-04 ( -32.96%)
   displ. norm   :     0.2651196 α      lambda       -0.6724439E-04
   maximum displ.:     0.1789832 α      in ANC's #1, #2, #3, ...

........................................................................
.............................. CYCLE   36 ..............................
........................................................................
   1    -84.3403834 -0.843404E+02  0.193E-02    0.04       0.0  T
   2    -84.3242934  0.160900E-01  0.336E-01    0.09       1.0  T
   3    -84.3404280 -0.161346E-01  0.760E-03    0.04       2.0  T
   4    -84.3404355 -0.751284E-05  0.188E-03    0.04       8.2  T
   5    -84.3404357 -0.191143E-06  0.110E-03    0.04      14.0  T
   6    -84.3404357 -0.115971E-08  0.929E-04    0.04      16.6  T
   7    -84.3404358 -0.123359E-06  0.878E-05    0.04     175.8  T
   8    -84.3404358 -0.369027E-09  0.680E-05    0.04     226.9  T
     SCC iter.                  ...        0 min,  0.030 sec
     gradient                   ...        0 min,  0.068 sec
 * total energy  :   -83.6146499 Eh     change       -0.5167784E-04 Eh
   gradient norm :     0.0023221 Eh/α   predicted    -0.3598621E-04 ( -30.36%)
   displ. norm   :     0.2017289 α      lambda       -0.4800929E-04
   maximum displ.:     0.1414182 α      in ANC's #1, #2, #3, ...

........................................................................
.............................. CYCLE   37 ..............................
........................................................................
   1    -84.3410921 -0.843411E+02  0.193E-02    0.04       0.0  T
   2    -84.3248538  0.162383E-01  0.338E-01    0.09       1.0  T
   3    -84.3411430 -0.162893E-01  0.370E-03    0.04       4.2  T
   4    -84.3411446 -0.161465E-05  0.748E-04    0.04      20.6  T
   5    -84.3411446  0.730529E-08  0.492E-04    0.04      31.4  T
   6    -84.3411446  0.151284E-07  0.443E-04    0.04      34.8  T
   7    -84.3411447 -0.274436E-07  0.344E-05    0.04     448.5  T
   8    -84.3411447  0.117566E-09  0.428E-05    0.04     360.7  T
     SCC iter.                  ...        0 min,  0.031 sec
     gradient                   ...        0 min,  0.077 sec
 * total energy  :   -83.6146876 Eh     change       -0.3765512E-04 Eh
   gradient norm :     0.0023292 Eh/α   predicted    -0.2499189E-04 ( -33.63%)
   displ. norm   :     0.1911363 α      lambda       -0.4446833E-04
   maximum displ.:     0.1356927 α      in ANC's #1, #2, #3, ...

........................................................................
.............................. CYCLE   38 ..............................
........................................................................
   1    -84.3408028 -0.843408E+02  0.310E-02    0.04       0.0  T
   2    -84.2667197  0.740831E-01  0.718E-01    0.05       1.0  T
   3    -84.3409411 -0.742214E-01  0.320E-03    0.04       4.8  T
   4    -84.3409365  0.457966E-05  0.635E-03    0.04       2.4  T
   5    -84.3409400 -0.351497E-05  0.382E-03    0.04       4.0  T
   6    -84.3409420 -0.196319E-05  0.381E-04    0.04      40.5  T
   7    -84.3409420 -0.183440E-07  0.387E-05    0.04     398.7  T
   8    -84.3409420 -0.870131E-10  0.251E-05    0.04     614.6  T
     SCC iter.                  ...        0 min,  0.031 sec
     gradient                   ...        0 min,  0.078 sec
 * total energy  :   -83.6147239 Eh     change       -0.3629690E-04 Eh
   gradient norm :     0.0023311 Eh/α   predicted    -0.2304698E-04 ( -36.50%)
   displ. norm   :     0.1810847 α      lambda       -0.4560079E-04
   maximum displ.:     0.1332573 α      in ANC's #1, #2, #6, ...

........................................................................
.............................. CYCLE   39 ..............................
........................................................................
   1    -84.3409029 -0.843409E+02  0.537E-02    0.05       0.0  T
   2    -84.1832767  0.157626E+00  0.105E+00    0.11       1.0  T
   3    -84.3412871 -0.158010E+00  0.168E-02    0.04       1.0  T
   4    -84.3413216 -0.344883E-04  0.549E-03    0.04       2.8  T
   5    -84.3413241 -0.243897E-05  0.340E-03    0.04       4.5  T
   6    -84.3413256 -0.148197E-05  0.519E-04    0.04      29.7  T
   7    -84.3413256 -0.371448E-07  0.397E-05    0.04     388.7  T
   8    -84.3413256 -0.968470E-10  0.204E-05    0.04     754.9  T
     SCC iter.                  ...        0 min,  0.031 sec
     gradient                   ...        0 min,  0.079 sec
 * total energy  :   -83.6147600 Eh     change       -0.3612572E-04 Eh
   gradient norm :     0.0023207 Eh/α   predicted    -0.2355183E-04 ( -34.81%)
   displ. norm   :     0.1924088 α      lambda       -0.4206962E-04
   maximum displ.:     0.1450994 α      in ANC's #1, #2, #6, ...

........................................................................
.............................. CYCLE   40 ..............................
........................................................................
   1    -84.3405585 -0.843406E+02  0.608E-02    0.05       0.0  T
   2    -84.1648586  0.175700E+00  0.111E+00    0.13       1.0  T
   3    -84.3410229 -0.176164E+00  0.237E-02    0.04       1.0  T
   4    -84.3411011 -0.781457E-04  0.160E-03    0.04       9.7  T
   5    -84.3410999  0.120914E-05  0.327E-03    0.04       4.7  T
   6    -84.3411011 -0.121680E-05  0.115E-03    0.04      13.4  T
   7    -84.3411013 -0.186658E-06  0.123E-04    0.04     125.9  T
   8    -84.3411013 -0.207019E-08  0.220E-05    0.04     702.2  T
     SCC iter.                  ...        0 min,  0.030 sec
     gradient                   ...        0 min,  0.079 sec
 * total energy  :   -83.6147932 Eh     change       -0.3312707E-04 Eh
   gradient norm :     0.0023392 Eh/α   predicted    -0.2181416E-04 ( -34.15%)
   displ. norm   :     0.1531429 α      lambda       -0.3404678E-04
   maximum displ.:     0.1190086 α      in ANC's #1, #2, #6, ...

........................................................................
.............................. CYCLE   41 ..............................
........................................................................
   1    -84.3409822 -0.843410E+02  0.480E-02    0.04       0.0  T
   2    -84.2002207  0.140761E+00  0.991E-01    0.10       1.0  T
   3    -84.3413063 -0.141086E+00  0.947E-03    0.04       1.6  T
   4    -84.3413168 -0.104553E-04  0.356E-03    0.04       4.3  T
   5    -84.3413178 -0.104446E-05  0.215E-03    0.04       7.2  T
   6    -84.3413184 -0.595326E-06  0.163E-04    0.04      94.7  T
   7    -84.3413184 -0.321442E-08  0.236E-05    0.04     653.2  T
     SCC iter.                  ...        0 min,  0.027 sec
     gradient                   ...        0 min,  0.079 sec
 * total energy  :   -83.6148201 Eh     change       -0.2698025E-04 Eh
   gradient norm :     0.0022842 Eh/α   predicted    -0.1742362E-04 ( -35.42%)
   displ. norm   :     0.1460021 α      lambda       -0.3111992E-04
   maximum displ.:     0.1162949 α      in ANC's #1, #2, #4, ...

........................................................................
.............................. CYCLE   42 ..............................
........................................................................
   1    -84.3413626 -0.843414E+02  0.690E-03    0.04       0.0  T
   2    -84.3381557  0.320692E-02  0.149E-01    0.02       1.0  T
   3    -84.3413691 -0.321335E-02  0.135E-03    0.04      11.4  T
   4    -84.3413689  0.137573E-06  0.132E-03    0.04      11.6  T
   5    -84.3413690 -0.638542E-07  0.105E-03    0.04      14.8  T
   6    -84.3413691 -0.133114E-06  0.205E-04    0.04      75.2  T
   7    -84.3413691 -0.489692E-08  0.702E-05    0.04     219.9  T
   8    -84.3413691 -0.631985E-09  0.131E-05    0.04    1175.5  T
     SCC iter.                  ...        0 min,  0.031 sec
     gradient                   ...        0 min,  0.078 sec
 * total energy  :   -83.6148456 Eh     change       -0.2551101E-04 Eh
   gradient norm :     0.0017799 Eh/α   predicted    -0.1589257E-04 ( -37.70%)
   displ. norm   :     0.1657868 α      lambda       -0.2388473E-04
   maximum displ.:     0.1339787 α      in ANC's #1, #2, #4, ...
 * RMSD in coord.:     0.6457837 α      energy gain  -0.1838603E-02 Eh

generating ANC from model Hessian ...
Using Lindh-Hessian (1995)
 Shifting diagonal of input Hessian by   9.807308033410693E-003
 Lowest  eigenvalues of input Hessian
    0.000000    0.000000    0.000000    0.000000    0.000000    0.000000
    0.010000    0.010066    0.010746    0.011108    0.011598    0.012040
    0.013320    0.014127    0.014359    0.015400    0.016261    0.017316
 Highest eigenvalues
    2.055706    2.072370    2.076379    2.231443    2.245381    2.281515
 

........................................................................
.............................. CYCLE   43 ..............................
........................................................................
   1    -84.3411758 -0.843412E+02  0.338E-02    0.03       0.0  T
   2    -84.3077362  0.334396E-01  0.488E-01    0.13       1.0  T
   3    -84.3412653 -0.335291E-01  0.235E-02    0.04       1.0  T
   4    -84.3413393 -0.740680E-04  0.469E-03    0.04       3.3  T
   5    -84.3413400 -0.625735E-06  0.443E-03    0.04       3.5  T
   6    -84.3413426 -0.263180E-05  0.611E-04    0.04      25.2  T
   7    -84.3413426 -0.421879E-07  0.175E-04    0.04      88.1  T
   8    -84.3413426 -0.413124E-08  0.224E-05    0.04     688.1  T
     SCC iter.                  ...        0 min,  0.031 sec
     gradient                   ...        0 min,  0.074 sec
 * total energy  :   -83.6148728 Eh     change       -0.2712264E-04 Eh
   gradient norm :     0.0014322 Eh/α   predicted     0.0000000E+00 (-100.00%)
   displ. norm   :     0.0340714 α      lambda       -0.8362445E-05
   maximum displ.:     0.0265010 α      in ANC's #1, #3, #15, ...

........................................................................
.............................. CYCLE   44 ..............................
........................................................................
   1    -84.3412097 -0.843412E+02  0.112E-02    0.04       0.0  T
   2    -84.3344064  0.680329E-02  0.218E-01    0.07       1.0  T
   3    -84.3412271 -0.682066E-02  0.236E-03    0.04       6.5  T
   4    -84.3412277 -0.678892E-06  0.594E-04    0.04      26.0  T
   5    -84.3412278 -0.243175E-07  0.279E-04    0.04      55.4  T
   6    -84.3412278  0.145344E-08  0.164E-04    0.04      94.2  T
   7    -84.3412278 -0.371772E-08  0.190E-05    0.04     811.8  T
     SCC iter.                  ...        0 min,  0.020 sec
     gradient                   ...        0 min,  0.047 sec
 * total energy  :   -83.6148837 Eh     change       -0.1097986E-04 Eh
   gradient norm :     0.0006131 Eh/α   predicted    -0.4281523E-05 ( -61.01%)
   displ. norm   :     0.0899044 α      lambda       -0.1645927E-04
   maximum displ.:     0.0634042 α      in ANC's #1, #3, #15, ...

........................................................................
.............................. CYCLE   45 ..............................
........................................................................
   1    -84.3409632 -0.843410E+02  0.320E-02    0.03       0.0  T
   2    -84.3093233  0.316399E-01  0.474E-01    0.13       1.0  T
   3    -84.3410640 -0.317407E-01  0.183E-02    0.04       1.0  T
   4    -84.3411046 -0.406078E-04  0.721E-03    0.04       2.1  T
   5    -84.3411112 -0.658120E-05  0.251E-03    0.04       6.2  T
   6    -84.3411120 -0.800312E-06  0.735E-04    0.04      21.0  T
   7    -84.3411121 -0.748056E-07  0.515E-05    0.04     299.7  T
   8    -84.3411121 -0.318536E-09  0.146E-05    0.04    1057.9  T
     SCC iter.                  ...        0 min,  0.033 sec
     gradient                   ...        0 min,  0.083 sec
 * total energy  :   -83.6149034 Eh     change       -0.1961527E-04 Eh
   gradient norm :     0.0011012 Eh/α   predicted    -0.8259963E-05 ( -57.89%)
   displ. norm   :     0.1151122 α      lambda       -0.1494287E-04
   maximum displ.:     0.0808628 α      in ANC's #1, #3, #2, ...

........................................................................
.............................. CYCLE   46 ..............................
........................................................................
   1    -84.3409223 -0.843409E+02  0.261E-02    0.04       0.0  T
   2    -84.3158447  0.250776E-01  0.421E-01    0.11       1.0  T
   3    -84.3409988 -0.251541E-01  0.126E-02    0.04       1.2  T
   4    -84.3410200 -0.211832E-04  0.328E-03    0.04       4.7  T
   5    -84.3410215 -0.146133E-05  0.878E-04    0.04      17.6  T
   6    -84.3410215 -0.347618E-07  0.686E-04    0.04      22.5  T
   7    -84.3410216 -0.658736E-07  0.543E-05    0.04     284.4  T
   8    -84.3410216 -0.284729E-09  0.268E-05    0.04     576.3  T
     SCC iter.                  ...        0 min,  0.033 sec
     gradient                   ...        0 min,  0.080 sec
 * total energy  :   -83.6149217 Eh     change       -0.1835723E-04 Eh
   gradient norm :     0.0017355 Eh/α   predicted    -0.7528396E-05 ( -58.99%)
   displ. norm   :     0.1150088 α      lambda       -0.1346445E-04
   maximum displ.:     0.0815034 α      in ANC's #1, #3, #2, ...

........................................................................
.............................. CYCLE   47 ..............................
........................................................................
   1    -84.3410351 -0.843410E+02  0.164E-03    0.04       0.0  T
   2    -84.3409399  0.952369E-04  0.258E-02    0.04       1.0  T
   3    -84.3410353 -0.954040E-04  0.952E-04    0.04      16.2  T
   4    -84.3410354 -0.100892E-06  0.282E-04    0.04      54.8  T
   5    -84.3410354 -0.286028E-08  0.111E-04    0.04     138.7  T
   6    -84.3410354  0.101299E-08  0.964E-05    0.04     160.1  T
     SCC iter.                  ...        0 min,  0.025 sec
     gradient                   ...        0 min,  0.083 sec
 * total energy  :   -83.6149393 Eh     change       -0.1762135E-04 Eh
   gradient norm :     0.0016131 Eh/α   predicted    -0.6776079E-05 ( -61.55%)
   displ. norm   :     0.1260892 α      lambda       -0.1496441E-04
   maximum displ.:     0.0909607 α      in ANC's #1, #3, #2, ...

........................................................................
.............................. CYCLE   48 ..............................
........................................................................
   1    -84.3411243 -0.843411E+02  0.215E-02    0.04       0.0  T
   2    -84.3030588  0.380656E-01  0.514E-01    0.03       1.0  T
   3    -84.3411914 -0.381327E-01  0.118E-03    0.04      13.1  T
   4    -84.3411914  0.276002E-07  0.868E-04    0.04      17.8  T
   5    -84.3411914 -0.847314E-08  0.727E-04    0.04      21.2  T
   6    -84.3411915 -0.525868E-07  0.226E-04    0.04      68.2  T
   7    -84.3411915 -0.695454E-08  0.332E-05    0.04     464.3  T
   8    -84.3411915 -0.833751E-10  0.189E-05    0.04     818.5  T
     SCC iter.                  ...        0 min,  0.032 sec
     gradient                   ...        0 min,  0.074 sec
 * total energy  :   -83.6149587 Eh     change       -0.1940362E-04 Eh
   gradient norm :     0.0009546 Eh/α   predicted    -0.7539566E-05 ( -61.14%)
   displ. norm   :     0.1264944 α      lambda       -0.1371506E-04
   maximum displ.:     0.0935600 α      in ANC's #1, #2, #3, ...

........................................................................
.............................. CYCLE   49 ..............................
........................................................................
   1    -84.3410565 -0.843411E+02  0.433E-02    0.04       0.0  T
   2    -84.2167907  0.124266E+00  0.931E-01    0.08       1.0  T
   3    -84.3413250 -0.124534E+00  0.567E-03    0.04       2.7  T
   4    -84.3413284 -0.344699E-05  0.248E-03    0.04       6.2  T
   5    -84.3413288 -0.378780E-06  0.175E-03    0.04       8.8  T
   6    -84.3413292 -0.386647E-06  0.282E-04    0.04      54.6  T
   7    -84.3413292 -0.107934E-07  0.266E-05    0.04     580.1  T
   8    -84.3413292 -0.311502E-10  0.151E-05    0.04    1019.4  T
     SCC iter.                  ...        0 min,  0.033 sec
     gradient                   ...        0 min,  0.083 sec
 * total energy  :   -83.6149763 Eh     change       -0.1752441E-04 Eh
   gradient norm :     0.0004823 Eh/α   predicted    -0.6908737E-05 ( -60.58%)
   displ. norm   :     0.1069697 α      lambda       -0.1051210E-04
   maximum displ.:     0.0815342 α      in ANC's #1, #2, #3, ...

........................................................................
.............................. CYCLE   50 ..............................
........................................................................
   1    -84.3412813 -0.843413E+02  0.388E-02    0.04       0.0  T
   2    -84.2340989  0.107182E+00  0.864E-01    0.07       1.0  T
   3    -84.3414981 -0.107399E+00  0.400E-03    0.04       3.9  T
   4    -84.3414992 -0.105074E-05  0.272E-03    0.04       5.7  T
   5    -84.3414998 -0.552766E-06  0.178E-03    0.04       8.7  T
   6    -84.3415002 -0.417138E-06  0.154E-04    0.04     100.4  T
   7    -84.3415002 -0.294787E-08  0.403E-05    0.04     383.2  T
     SCC iter.                  ...        0 min,  0.028 sec
     gradient                   ...        0 min,  0.083 sec
 * total energy  :   -83.6149902 Eh     change       -0.1392730E-04 Eh
   gradient norm :     0.0006990 Eh/α   predicted    -0.5282958E-05 ( -62.07%)
   displ. norm   :     0.0895732 α      lambda       -0.8810991E-05
   maximum displ.:     0.0692579 α      in ANC's #1, #2, #3, ...

........................................................................
.............................. CYCLE   51 ..............................
........................................................................
   1    -84.3414543 -0.843415E+02  0.302E-02    0.04       0.0  T
   2    -84.2692237  0.722306E-01  0.709E-01    0.05       1.0  T
   3    -84.3415869 -0.723632E-01  0.205E-03    0.04       7.5  T
   4    -84.3415864  0.542530E-06  0.275E-03    0.04       5.6  T
   5    -84.3415870 -0.638923E-06  0.168E-03    0.04       9.2  T
   6    -84.3415874 -0.377499E-06  0.138E-04    0.04     111.7  T
   7    -84.3415874 -0.251009E-08  0.340E-05    0.04     454.4  T
     SCC iter.                  ...        0 min,  0.028 sec
     gradient                   ...        0 min,  0.083 sec
 * total energy  :   -83.6150022 Eh     change       -0.1204151E-04 Eh
[...]
N7-C5-C6=109.38                C24-C5-C3= 99.29               C24-C5-C6=111.31               C24-C5-N7=114.85               
H29-C6-C5=109.36               H30-C6-C5=110.29               H30-C6-H29=108.82              H31-C6-C5=110.49               
H31-C6-H29=108.69              H31-C6-H30=109.16              C8-N7-C5=117.48                C9-C8-N7=119.53                
N21-C8-N7=124.04               N21-C8-C9=116.38               C10-C9-C8=107.41               C11-C9-C8=109.99               
C11-C9-C10=110.56              N12-C9-C8=107.21               N12-C9-C10=110.61              N12-C9-C11=110.95              
H32-C10-C9=109.26              H33-C10-C9=110.11              H33-C10-H32=108.82             H34-C10-C9=110.86              
H34-C10-H32=108.92             H34-C10-H33=108.84             
 
 selected dihedral angles (degree)
 ---------------------------------
C3-O2-C1-H26=299.16           C3-O2-C1-H27=179.82           C3-O2-C1-H28= 59.94           O4-C3-O2-C1=  1.03            
C5-C3-O2-C1=186.76            C6-C5-C3-O2=324.74            C6-C5-C3-O4=150.77            N7-C5-C3-O2=203.07            
N7-C5-C3-O4= 29.10            C24-C5-C3-O2= 82.49           C24-C5-C3-O4=268.52           H29-C6-C5-C3=183.11           
H29-C6-C5-N7=304.76           H29-C6-C5-C24= 72.74          H30-C6-C5-C3= 63.48           H30-C6-C5-N7=185.12           
H30-C6-C5-C24=313.10          H31-C6-C5-C3=302.70           H31-C6-C5-N7= 64.35           H31-C6-C5-C24=192.33          
C8-N7-C5-C3=279.21            C8-N7-C5-C6=155.74            C8-N7-C5-C24= 29.77           C9-C8-N7-C5=171.42            
N21-C8-N7-C5=353.92           C10-C9-C8-N7=252.02           C10-C9-C8-N21= 69.70          C11-C9-C8-N7= 12.39           
C11-C9-C8-N21=190.08          N12-C9-C8-N7=133.12           N12-C9-C8-N21=310.81          H32-C10-C9-C8= 54.24          
H32-C10-C9-C11=294.23         H32-C10-C9-N12=170.93         H33-C10-C9-C8=294.78          H33-C10-C9-C11=174.77         
H33-C10-C9-N12= 51.47         H34-C10-C9-C8=174.29          H34-C10-C9-C11= 54.28         H34-C10-C9-N12=290.98         
           -------------------------------------------------
          |                Final Singlepoint                |
           -------------------------------------------------

          ...................................................
          :                      SETUP                      :
          :.................................................:
          :  # basis functions                 134          :
          :  # atomic orbitals                 134          :
          :  # shells                           84          :
          :  # electrons                       136          :
          :  # halogen bonds                     0          :
          :  max. iterations                   250          :
          :  Hamiltonian                  GFN1-xTB          :
          :  restarted?                      false          :
          :  GBSA solvation                   true          :
          :  PC potential                    false          :
          :  electronic temp.          300.0000000     K    :
          :  accuracy                    1.0000000          :
          :  -> integral cutoff          0.2500000E+02      :
          :  -> integral neglect         0.1000000E-07      :
          :  -> SCF convergence          0.1000000E-05 Eh   :
          :  -> wf. convergence          0.2000000E-04 e    :
          :  Broyden damping             0.4000000          :
          ...................................................

 iter      E             dE          RMSdq      gap      omega  full diag
   1    -84.3415654 -0.843416E+02  0.368E-06    0.04       0.0  T
   2    -84.3415654  0.782066E-09  0.738E-05    0.04     208.9  T
   3    -84.3415654 -0.783686E-09  0.764E-07    0.04   20202.0  T

   *** convergence criteria satisfied after 3 iterations ***

         #    Occupation            Energy/Eh            Energy/eV
      -------------------------------------------------------------
         1        2.0000           -0.8032819             -21.8584
       ...           ...                  ...                  ...
        62        2.0000           -0.4060781             -11.0499
        63        2.0000           -0.3997646             -10.8781
        64        2.0000           -0.3906132             -10.6291
        65        2.0000           -0.3799080             -10.3378
        66        2.0000           -0.3758844             -10.2283
        67        2.0000           -0.3462691              -9.4225
        68        1.3521           -0.2704648              -7.3597 (HOMO)
        69        0.6479           -0.2690671              -7.3217 (LUMO)
        70                         -0.2221188              -6.0442
        71                         -0.2116405              -5.7590
        72                         -0.2021607              -5.5011
        73                         -0.1427947              -3.8856
       ...                                ...                  ...
       134                          0.7122035              19.3800
      -------------------------------------------------------------
                  HL-Gap            0.0013977 Eh            0.0380 eV
             Fermi-level           -0.2697659 Eh           -7.3407 eV

 SCC (total)                   0 d,  0 h,  0 min,  0.133 sec
 SCC setup                      ...        0 min,  0.002 sec (  1.436%)
 Dispersion                     ...        0 min,  0.000 sec (  0.265%)
 classical contributions        ...        0 min,  0.000 sec (  0.086%)
 integral evaluation            ...        0 min,  0.035 sec ( 26.372%)
 iterations                     ...        0 min,  0.012 sec (  9.190%)
 molecular gradient             ...        0 min,  0.082 sec ( 61.867%)
 printout                       ...        0 min,  0.001 sec (  0.741%)

         :::::::::::::::::::::::::::::::::::::::::::::::::::::
         ::                     SUMMARY                     ::
         :::::::::::::::::::::::::::::::::::::::::::::::::::::
         :: total energy             -83.615156130437 Eh    ::
         :: total w/o Gsasa/hb       -83.596057167925 Eh    ::
         :: gradient norm              0.000189016230 Eh/a0 ::
         :: HOMO-LUMO gap              0.038033609244 eV    ::
         ::.................................................::
         :: SCC energy               -84.341565367101 Eh    ::
         :: -> electrostatic           0.698135798456 Eh    ::
         :: -> Gsolv                  -0.272143916077 Eh    ::
         ::    -> Gelec               -0.253044953566 Eh    ::
         ::    -> Gsasa               -0.023873648918 Eh    ::
         ::    -> Ghb                 -0.002849592598 Eh    ::
         ::    -> Gshift               0.007624279005 Eh    ::
         :: repulsion energy           0.753037609271 Eh    ::
         :: dispersion energy         -0.026628372607 Eh    ::
         :: halogen bond corr.         0.000000000000 Eh    ::
         :: add. restraining           0.000000000000 Eh    ::
         :: total charge              -2.000000000000 e     ::
         :::::::::::::::::::::::::::::::::::::::::::::::::::::

           -------------------------------------------------
          |                Property Printout                |
           -------------------------------------------------

    * Orbital Energies and Occupations

         #    Occupation            Energy/Eh            Energy/eV
      -------------------------------------------------------------
         1        2.0000           -0.8032819             -21.8584
       ...           ...                  ...                  ...
        56        2.0000           -0.4469856             -12.1631
        57        2.0000           -0.4431030             -12.0574
        58        2.0000           -0.4313575             -11.7378
        59        2.0000           -0.4248790             -11.5615
        60        2.0000           -0.4102875             -11.1645
        61        2.0000           -0.4069019             -11.0724
        62        2.0000           -0.4060781             -11.0499
        63        2.0000           -0.3997646             -10.8781
        64        2.0000           -0.3906132             -10.6291
        65        2.0000           -0.3799080             -10.3378
        66        2.0000           -0.3758844             -10.2283
        67        2.0000           -0.3462691              -9.4225
        68        1.3521           -0.2704648              -7.3597 (HOMO)
        69        0.6479           -0.2690671              -7.3217 (LUMO)
        70                         -0.2221188              -6.0442
        71                         -0.2116405              -5.7590
        72                         -0.2021607              -5.5011
        73                         -0.1427947              -3.8856
        74                         -0.1248968              -3.3986
        75                         -0.1227764              -3.3409
        76                         -0.1151643              -3.1338
        77                         -0.0955044              -2.5988
        78                         -0.0929941              -2.5305
        79                         -0.0891664              -2.4263
       ...                                ...                  ...
       134                          0.7122035              19.3800
      -------------------------------------------------------------
                  HL-Gap            0.0013977 Eh            0.0380 eV
             Fermi-level           -0.2697659 Eh           -7.3407 eV

  Mulliken/CM5 charges         n(s)   n(p)   n(d)
     1C     0.17430  0.05468   0.970  2.855  0.000
     2O    -0.43609 -0.52401   1.691  4.745  0.000
     3C     0.53282  0.59586   0.993  2.474  0.000
     4O    -0.61645 -0.66113   1.736  4.881  0.000
     5C     0.10978  0.16387   1.068  2.822  0.000
     6C    -0.07608 -0.21289   1.006  3.070  0.000
     7N    -0.47928 -0.66271   1.553  3.926  0.000
     8C     0.28163  0.43513   1.013  2.705  0.000
     9C     0.15506  0.19488   1.062  2.783  0.000
    10C    -0.08682 -0.22591   1.012  3.074  0.000
    11C    -0.09181 -0.23007   1.012  3.080  0.000
    12N    -0.39579 -0.73550   1.458  3.938  0.000
    13C     0.39570  0.49263   0.976  2.629  0.000
    14O    -0.65620 -0.69962   1.743  4.913  0.000
    15C     0.27323  0.38834   1.002  2.725  0.000
    16N    -0.33495 -0.43903   1.581  3.753  0.000
    17N    -0.30384 -0.41189   1.569  3.734  0.000
    18C     0.35782  0.46662   0.994  2.648  0.000
    19C    -0.11046 -0.24772   1.008  3.102  0.000
    20O    -0.39629 -0.44544   1.706  4.690  0.000
    21N    -0.35459 -0.69364   1.441  3.914  0.000
    22C     0.34249  0.43309   0.987  2.671  0.000
    23O    -0.70936 -0.74444   1.755  4.955  0.000
    24C     0.20143  0.24236   1.025  2.773  0.000
    25O    -0.69804 -0.73885   1.761  4.937  0.000
    26H     0.03181  0.09340   0.968  0.000  0.000
    27H     0.03405  0.09430   0.966  0.000  0.000
    28H     0.03484  0.09627   0.965  0.000  0.000
    29H     0.01944  0.07578   0.981  0.000  0.000
    30H     0.03062  0.09180   0.969  0.000  0.000
    31H     0.01116  0.06752   0.989  0.000  0.000
    32H     0.02327  0.07901   0.977  0.000  0.000
    33H     0.02508  0.08364   0.975  0.000  0.000
    34H     0.03801  0.09817   0.962  0.000  0.000
    35H     0.03436  0.09325   0.966  0.000  0.000
    36H     0.02323  0.08118   0.977  0.000  0.000
    37H     0.02339  0.08153   0.977  0.000  0.000
    38H     0.20880  0.41580   0.791  0.000  0.000
    39H     0.05610  0.11047   0.944  0.000  0.000
    40H     0.04870  0.10459   0.951  0.000  0.000
    41H     0.05573  0.10998   0.944  0.000  0.000
    42H     0.22316  0.42869   0.777  0.000  0.000

Wiberg/Mayer (AO) data.
largest (>0.10) Wiberg bond orders for each atom

 ---------------------------------------------------------------------------
     #   Z sym  total        # sym  WBO       # sym  WBO       # sym  WBO
 ---------------------------------------------------------------------------
     1   6 C    3.897 --    27 H    0.987    26 H    0.981    28 H    0.981
                             2 O    0.921
     2   8 O    2.153 --     3 C    1.045     1 C    0.921     4 O    0.108
     3   6 C    3.777 --     4 O    1.596     2 O    1.045     5 C    0.945
     4   8 O    1.853 --     3 C    1.596     2 O    0.108
     5   6 C    3.959 --     6 C    0.992     7 N    0.981     3 C    0.945
                            24 C    0.875
     6   6 C    3.990 --     5 C    0.992    31 H    0.989    29 H    0.987
                            30 H    0.983
     7   7 N    2.940 --     8 C    1.654     5 C    0.981    21 N    0.148
     8   6 C    3.932 --     7 N    1.654    21 N    1.175     9 C    0.970
     9   6 C    3.949 --    11 C    0.992    10 C    0.985     8 C    0.970
                            12 N    0.939
    10   6 C    3.994 --    32 H    0.987    33 H    0.986     9 C    0.985
                            34 H    0.980
    11   6 C    3.993 --     9 C    0.992    36 H    0.986    37 H    0.985
                            35 H    0.985
    12   7 N    3.141 --    13 C    1.076     9 C    0.939    38 H    0.919
                            14 O    0.107
    13   6 C    3.749 --    14 O    1.456    15 C    1.150    12 N    1.076
    14   8 O    1.696 --    13 C    1.456    12 N    0.107
    15   6 C    3.698 --    16 N    1.398    13 C    1.150    20 O    0.979
    16   7 N    2.749 --    15 C    1.398    17 N    1.185
    17   7 N    2.980 --    18 C    1.628    16 N    1.185
    18   6 C    3.821 --    17 N    1.628    20 O    1.051    19 C    1.024
    19   6 C    3.994 --    18 C    1.024    40 H    0.986    39 H    0.971
                            41 H    0.971
    20   8 O    2.187 --    18 C    1.051    15 C    0.979
    21   7 N    3.325 --     8 C    1.175    22 C    0.962    42 H    0.912
                             7 N    0.148
    22   6 C    3.746 --    23 O    1.390    24 C    1.243    21 N    0.962
    23   8 O    1.601 --    22 C    1.390
    24   6 C    3.730 --    25 O    1.372    22 C    1.243     5 C    0.875
    25   8 O    1.576 --    24 C    1.372
    26   1 H    1.013 --     1 C    0.981
    27   1 H    1.015 --     1 C    0.987
    28   1 H    1.012 --     1 C    0.981
    29   1 H    1.013 --     6 C    0.987
    30   1 H    1.027 --     6 C    0.983
    31   1 H    1.010 --     6 C    0.989
    32   1 H    1.010 --    10 C    0.987
    33   1 H    1.009 --    10 C    0.986
    34   1 H    1.023 --    10 C    0.980
    35   1 H    1.013 --    11 C    0.985
    36   1 H    1.011 --    11 C    0.986
    37   1 H    1.020 --    11 C    0.985
    38   1 H    0.981 --    12 N    0.919
    39   1 H    1.001 --    19 C    0.971
    40   1 H    1.004 --    19 C    0.986
    41   1 H    1.001 --    19 C    0.971
    42   1 H    0.971 --    21 N    0.912
 ---------------------------------------------------------------------------

Topologies differ in total number of bonds
Writing topology from bond orders to xtbtopo.mol

 dipole moment from electron density (au)
     X       Y       Z   
   2.6723   2.5928  -3.5372  total (Debye):   13.054

           -------------------------------------------------
          |                Geometry Summary                 |
           -------------------------------------------------

      molecular mass/u    :      351.3152409
   center of mass at/Å    :        0.0702562      -0.1713263       0.1187092
  moments of inertia/u·Å² :        0.9665046E+03   0.4992159E+04   0.5394240E+04
rotational constants/cm⁻¹ :        0.1744185E-01   0.3376822E-02   0.3125117E-02

 * 34 selected distances

     #   Z          #   Z                                           value/Å
     1   6 C        2   8 O                                       1.4209662
     2   8 O        3   6 C                                       1.3588663
     3   6 C        4   8 O                                       1.2230246
     5   6 C        6   6 C                                       1.5308355
     7   7 N        8   6 C                                       1.2829144
     9   6 C       10   6 C                                       1.5363611 (max)
     9   6 C       11   6 C                                       1.5344579
     9   6 C       12   7 N                                       1.4671779
    12   7 N       13   6 C                                       1.4043549
    13   6 C       15   6 C                                       1.4294958
    15   6 C       16   7 N                                       1.3366509
    17   7 N       18   6 C                                       1.2924994
    18   6 C       19   6 C                                       1.4840119
    15   6 C       20   8 O                                       1.3805908
    18   6 C       20   8 O                                       1.3543335
     8   6 C       21   7 N                                       1.3593976
    22   6 C       24   6 C                                       1.4130391
     1   6 C       26   1 H                                       1.0944476
     1   6 C       27   1 H                                       1.0889790
     1   6 C       28   1 H                                       1.0949188
     6   6 C       29   1 H                                       1.0902038
     6   6 C       30   1 H                                       1.0896183
     6   6 C       31   1 H                                       1.0894291
    10   6 C       32   1 H                                       1.0903307
    10   6 C       33   1 H                                       1.0895912
    10   6 C       34   1 H                                       1.0881867
    11   6 C       35   1 H                                       1.0887421
    11   6 C       36   1 H                                       1.0896982
    11   6 C       37   1 H                                       1.0896087
    12   7 N       38   1 H                                       1.0165803
    19   6 C       39   1 H                                       1.0900758
    19   6 C       40   1 H                                       1.0873882
    19   6 C       41   1 H                                       1.0902571
    21   7 N       42   1 H                                       1.0092284 (min)

 * 5 distinct bonds (by element types)

   Z      Z             #   av. dist./Å        max./Å        min./Å
   1 H    6 C          15     1.0900984     1.0949188     1.0873882
   6 C    6 C           6     1.4880336     1.5363611     1.4130391
   1 H    7 N           2     1.0129043     1.0165803     1.0092284
   6 C    7 N           6     1.3571659     1.4671779     1.2829144
   6 C    8 O           5     1.3475563     1.4209662     1.2230246


optimized geometry written to: xtbopt.xyz


           -------------------------------------------------
          | TOTAL ENERGY              -83.615156130437 Eh   |
          | GRADIENT NORM               0.000189016230 Eh/α |
          | HOMO-LUMO GAP               0.038033609244 eV   |
           -------------------------------------------------

------------------------------------------------------------------------
 * finished run on 2023/06/21 at 17:10:58.413     
------------------------------------------------------------------------
 total:
 * wall-time:     0 d,  0 h,  0 min, 10.619 sec
 *  cpu-time:     0 d,  0 h,  0 min, 10.470 sec
 * ratio c/w:     0.986 speedup
 SCF:
 * wall-time:     0 d,  0 h,  0 min,  0.265 sec
 *  cpu-time:     0 d,  0 h,  0 min,  0.203 sec
 * ratio c/w:     0.766 speedup
 ANC optimizer:
 * wall-time:     0 d,  0 h,  0 min, 10.251 sec
 *  cpu-time:     0 d,  0 h,  0 min, 10.214 sec
 * ratio c/w:     0.996 speedup

