42
 energy: -83.615156130437 gnorm: 0.000189016230 xtb: 6.5.1 (579679a)
C           -6.00975224281069       -1.04187317429944       -0.73047571602432
O           -5.08877240792390       -0.15741453536897       -0.10703884717288
C           -3.78393071423602       -0.31104727991917       -0.45388503493552
O           -3.43714463255971       -1.15229195110197       -1.27109714521156
C           -2.85299586959789        0.55753687051719        0.37501935494981
C           -3.47729743532283        1.90994929204581        0.72812717509895
N           -1.61657131715581        0.77381247511262       -0.35791090170734
C           -0.73704909584138       -0.15952904289771       -0.32351064693074
C            0.48570016002460       -0.07232129661123       -1.22693350310794
C            0.31623837467527       -1.12543989998253       -2.33265904563216
C            0.59073342136246        1.33335598795975       -1.83323380690832
N            1.65892930048113       -0.37599497220334       -0.39993506476595
C            2.95036691384710       -0.25406363017306       -0.93801868478019
O            3.20307980710871       -0.39985711859121       -2.15159384798863
C            3.91623789251040        0.00363589715291        0.08381395909073
N            3.65764696755903        0.20160446841375        1.38018363747631
N            4.85986624385302        0.45675508742190        1.98087008485054
C            5.76774871276000        0.40805211367351        1.06221240295853
C            7.22552374970870        0.62591312549386        1.23460581875804
O            5.26848859647907        0.12793575475603       -0.16518036067655
N           -0.84113093459302       -1.27523796944140        0.44611397313613
C           -1.70349918598749       -1.33205860264021        1.59102265186451
O           -1.42641065169801       -2.20868060110514        2.46071530541738
C           -2.71768171498729       -0.34905366924754        1.63361769524338
O           -3.54381247656820       -0.17636024691060        2.59356581735002
H           -5.99227137833673       -0.91152661136448       -1.81699286206847
H           -6.99933465603515       -0.79479491077507       -0.34896032188753
H           -5.77098504094449       -2.08459775455300       -0.49688934207443
H           -2.75024722958327        2.51234396597330        1.27316185562803
H           -4.35688535088521        1.76783260119527        1.35533988949325
H           -3.76567808040482        2.44451925354206       -0.17626605405496
H           -0.64245518511183       -0.97411759241863       -2.82947786029185
H            0.33518661161463       -2.12641751552426       -1.90266651910134
H            1.11245838658721       -1.04463967421470       -3.06998876977082
H            1.42579943059792        1.38561260577354       -2.52986365258607
H            0.73584628428788        2.07197132570350       -1.04530507083063
H           -0.33072989391884        1.57055076767110       -2.36416776379492
H            1.60132912982121        0.03135081915372        0.52968148766686
H            7.56429621225210        1.44547473725878        0.60071547860606
H            7.43591501595536        0.86545498602586        2.27420579229598
H            7.78082729660598       -0.26890739029774        0.95248068337099
H           -0.04758501359159       -1.89743669520432        0.48728875904916
