      -----------------------------------------------------------      
     |                   =====================                   |     
     |                           x T B                           |     
     |                   =====================                   |     
     |                         S. Grimme                         |     
     |          Mulliken Center for Theoretical Chemistry        |     
     |                    University of Bonn                     |     
      -----------------------------------------------------------      

   * xtb version 6.5.1 (579679a) compiled by 'ehlert@majestix' on 2022-07-11

   xtb is free software: you can redistribute it and/or modify it under
   the terms of the GNU Lesser General Public License as published by
   the Free Software Foundation, either version 3 of the License, or
   (at your option) any later version.
   
   xtb is distributed in the hope that it will be useful,
   but WITHOUT ANY WARRANTY; without even the implied warranty of
   MERCHANTABILITY or FITNESS FOR A PARTICULAR PURPOSE.  See the
   GNU Lesser General Public License for more details.
   
   Cite this work as:
   * C. Bannwarth, E. Caldeweyher, S. Ehlert, A. Hansen, P. Pracht,
     J. Seibert, S. Spicher, S. Grimme, WIREs Comput. Mol. Sci., 2020, 11,
     e01493. DOI: 10.1002/wcms.1493
   
   for GFN2-xTB:
   * C. Bannwarth, S. Ehlert and S. Grimme., J. Chem. Theory Comput., 2019,
     15, 1652-1671. DOI: 10.1021/acs.jctc.8b01176
   for GFN1-xTB:
   * S. Grimme, C. Bannwarth, P. Shushkov, J. Chem. Theory Comput., 2017,
     13, 1989-2009. DOI: 10.1021/acs.jctc.7b00118
   for GFN0-xTB:
   * P. Pracht, E. Caldeweyher, S. Ehlert, S. Grimme, ChemRxiv, 2019, preprint.
     DOI: 10.26434/chemrxiv.8326202.v1
   for GFN-FF:
   * S. Spicher and S. Grimme, Angew. Chem. Int. Ed., 2020, 59, 15665-15673.
     DOI: 10.1002/anie.202004239
   
   for ALPB and GBSA implicit solvation:
   * S. Ehlert, M. Stahn, S. Spicher, S. Grimme, J. Chem. Theory Comput.,
     2021, 17, 4250-4261. DOI: 10.1021/acs.jctc.1c00471
   
   for DFT-D4:
   * E. Caldeweyher, C. Bannwarth and S. Grimme, J. Chem. Phys., 2017,
     147, 034112. DOI: 10.1063/1.4993215
   * E. Caldeweyher, S. Ehlert, A. Hansen, H. Neugebauer, S. Spicher,
     C. Bannwarth and S. Grimme, J. Chem. Phys., 2019, 150, 154122.
     DOI: 10.1063/1.5090222
   * E. Caldeweyher, J.-M. Mewes, S. Ehlert and S. Grimme, Phys. Chem. Chem. Phys.
     2020, 22, 8499-8512. DOI: 10.1039/D0CP00502A
   
   for sTDA-xTB:
   * S. Grimme and C. Bannwarth, J. Chem. Phys., 2016, 145, 054103.
     DOI: 10.1063/1.4959605
   
   in the mass-spec context:
   * V. Asgeirsson, C. Bauer and S. Grimme, Chem. Sci., 2017, 8, 4879.
     DOI: 10.1039/c7sc00601b
   * J. Koopman and S. Grimme, ACS Omega 2019, 4, 12, 15120-15133.
     DOI: 10.1021/acsomega.9b02011
   
   for metadynamics refer to:
   * S. Grimme, J. Chem. Theory Comput., 2019, 155, 2847-2862
     DOI: 10.1021/acs.jctc.9b00143
   
   for SPH calculations refer to:
   * S. Spicher and S. Grimme, J. Chem. Theory Comput., 2021, 17, 1701-1714
     DOI: 10.1021/acs.jctc.0c01306
   
   with help from (in alphabetical order)
   P. Atkinson, C. Bannwarth, F. Bohle, G. Brandenburg, E. Caldeweyher
   M. Checinski, S. Dohm, S. Ehlert, S. Ehrlich, I. Gerasimov, C. Hölzer
   A. Katbashev, J. Koopman, C. Lavigne, S. Lehtola, F. März, M. Müller,
   F. Musil, H. Neugebauer, J. Pisarek, C. Plett, P. Pracht, F. Pultar,
   J. Seibert, P. Shushkov, S. Spicher, M. Stahn, M. Steiner, T. Strunk,
   J. Stückrath, T. Rose, and J. Unsleber
   
 * started run on 2023/06/20 at 14:55:04.056     

           -------------------------------------------------
          |                Calculation Setup                |
           -------------------------------------------------

          program call               : /lustre/hpc/kemi/ree/PhD/git/ReactivityQM/dep/xtb-6.5.1/bin/xtb --gfn 1 /lustre/hpc/kemi/ree/PhD/git/ReactivityQM/calculations/R02/reac01prodE03/conf04/R02_reac01prodE03_conf04_gfn1.xyz --opt --vfukui --chrg -1 --uhf 0 --alpb DMSO
          hostname                   : node315
          coordinate file            : /lustre/hpc/kemi/ree/PhD/git/ReactivityQM/calculations/R02/reac01prodE03/conf04/R02_reac01prodE03_conf04_gfn1.xyz
          omp threads                :                     1

   ID    Z sym.   atoms
    1    6 C      1, 3, 5, 6, 8-11, 13, 15, 18, 19, 22, 24
    2    8 O      2, 4, 14, 20, 23, 25
    3    7 N      7, 12, 16, 17, 21
    4    1 H      26-43

           -------------------------------------------------
          |                 G F N 1 - x T B                 |
           -------------------------------------------------

        Reference                      10.1021/acs.jctc.7b00118
      * Hamiltonian:
        H0-scaling (s, p, d)           1.850000    2.250000    2.000000
        zeta-weighting                 0.000000
      * Dispersion:
        s8                             2.400000
        a1                             0.630000
        a2                             5.000000
        s9                             0.000000
      * Repulsion:
        kExp                           1.500000
        rExp                           1.000000
      * Coulomb:
        alpha                          2.000000
        third order                    atomic
        anisotropic                    false
      * Halogen bond correction:
        rad-scale                      1.300000
        damping                        0.440000

      * Solvation model:               ALPB
        Solvent                        DMSO
        Parameter file                 internal GFN1-xTB/ALPB
        Dielectric constant                4.6680E+01
        Reference state                gsolv [1 M gas/solution]
        Free energy shift                  7.6243E-03 Eh       4.7843E+00 kcal/mol
        Temperature                        2.9815E+02 K
        Density                            1.1000E+00 kg/L
        Solvent mass                       7.8130E+01 g/mol
        Interaction kernel             P16
        Born radius scaling (c1)           1.7672E+00
        Born radii integrator          GBOBC
        Born offset                        0.0000E+00 a0       0.0000E+00 AA
        H-bond correction              true
        Ion screening                  false
        Surface tension                    1.0000E-05 Eh       1.5569E+01 dyn/cm
        Grid points                               230 per atom

          ...................................................
          :                      SETUP                      :
          :.................................................:
          :  # basis functions                 136          :
          :  # atomic orbitals                 136          :
          :  # shells                           86          :
          :  # electrons                       136          :
          :  # halogen bonds                     0          :
          :  max. iterations                   250          :
          :  Hamiltonian                  GFN1-xTB          :
          :  restarted?                      false          :
          :  GBSA solvation                   true          :
          :  PC potential                    false          :
          :  electronic temp.          300.0000000     K    :
          :  accuracy                    1.0000000          :
          :  -> integral cutoff          0.2500000E+02      :
          :  -> integral neglect         0.1000000E-07      :
          :  -> SCF convergence          0.1000000E-05 Eh   :
          :  -> wf. convergence          0.2000000E-04 e    :
          :  Broyden damping             0.4000000          :
          ...................................................

 iter      E             dE          RMSdq      gap      omega  full diag
   1    -84.2864221 -0.842864E+02  0.857E+00    0.78       0.0  T
   2    -84.1841024  0.102320E+00  0.532E+00    0.27       1.0  T
   3    -83.1955088  0.988594E+00  0.402E+00    0.07       1.0  T
   4    -84.4751794 -0.127967E+01  0.124E+00    2.14       1.0  T
   5    -84.5241427 -0.489633E-01  0.667E-01    1.61       1.0  T
   6    -84.5380461 -0.139034E-01  0.363E-01    0.43       1.0  T
   7    -84.5007922  0.372539E-01  0.599E-01    0.00       1.0  T
   8    -84.5357241 -0.349319E-01  0.416E-01    0.64       1.0  T
   9    -84.5384565 -0.273233E-02  0.341E-01    0.34       1.0  T
  10    -84.4836431  0.548133E-01  0.693E-01    0.01       1.0  T
  11    -84.5419972 -0.583540E-01  0.272E-01    0.20       1.0  T
  12    -84.5504645 -0.846736E-02  0.858E-02    0.11       1.0  T
  13    -84.5511076 -0.643062E-03  0.499E-02    0.10       1.0  T
  14    -84.5514451 -0.337523E-03  0.433E-03    0.09       3.5  T
  15    -84.5514166  0.284529E-04  0.151E-02    0.09       1.0  T
  16    -84.5514475 -0.309033E-04  0.743E-04    0.09      20.5  T
  17    -84.5514476 -0.690759E-07  0.241E-04    0.09      63.3  T
  18    -84.5514476 -0.777651E-08  0.150E-05    0.09    1019.2  T
  19    -84.5514476  0.456453E-10  0.227E-05    0.09     670.6  T

   *** convergence criteria satisfied after 19 iterations ***

         #    Occupation            Energy/Eh            Energy/eV
      -------------------------------------------------------------
         1        2.0000           -0.8313368             -22.6218
       ...           ...                  ...                  ...
        62        2.0000           -0.4254468             -11.5770
        63        2.0000           -0.4159927             -11.3197
        64        2.0000           -0.4145724             -11.2811
        65        2.0000           -0.3954969             -10.7620
        66        2.0000           -0.3861405             -10.5074
        67        2.0000           -0.3682962             -10.0218
        68        1.6842           -0.2886197              -7.8537 (HOMO)
        69        0.3158           -0.2854388              -7.7672 (LUMO)
        70                         -0.2358142              -6.4168
        71                         -0.2327136              -6.3325
        72                         -0.1902945              -5.1782
        73                         -0.1690860              -4.6011
       ...                                ...                  ...
       136                          0.7148253              19.4514
      -------------------------------------------------------------
                  HL-Gap            0.0031809 Eh            0.0866 eV
             Fermi-level           -0.2870293 Eh           -7.8105 eV

 SCC (total)                   0 d,  0 h,  0 min,  0.177 sec
 SCC setup                      ...        0 min,  0.002 sec (  0.992%)
 Dispersion                     ...        0 min,  0.000 sec (  0.240%)
 classical contributions        ...        0 min,  0.000 sec (  0.086%)
 integral evaluation            ...        0 min,  0.022 sec ( 12.678%)
 iterations                     ...        0 min,  0.066 sec ( 37.281%)
 molecular gradient             ...        0 min,  0.085 sec ( 48.184%)
 printout                       ...        0 min,  0.001 sec (  0.516%)

         :::::::::::::::::::::::::::::::::::::::::::::::::::::
         ::                     SUMMARY                     ::
         :::::::::::::::::::::::::::::::::::::::::::::::::::::
         :: total energy             -83.815448109434 Eh    ::
         :: total w/o Gsasa/hb       -83.793215470132 Eh    ::
         :: gradient norm              0.141468783583 Eh/a0 ::
         :: HOMO-LUMO gap              0.086555422798 eV    ::
         ::.................................................::
         :: SCC energy               -84.551447621628 Eh    ::
         :: -> electrostatic           0.438877081647 Eh    ::
         :: -> Gsolv                  -0.122271868710 Eh    ::
         ::    -> Gelec               -0.100039229408 Eh    ::
         ::    -> Gsasa               -0.024518306445 Eh    ::
         ::    -> Ghb                 -0.005338611861 Eh    ::
         ::    -> Gshift               0.007624279005 Eh    ::
         :: repulsion energy           0.762713778793 Eh    ::
         :: dispersion energy         -0.026714266600 Eh    ::
         :: halogen bond corr.         0.000000000000 Eh    ::
         :: add. restraining           0.000000000000 Eh    ::
         :: total charge              -1.000000000000 e     ::
         :::::::::::::::::::::::::::::::::::::::::::::::::::::

      ----------------------------------------------------------- 
     |                   =====================                   |
     |                        A N C O P T                        |
     |                   =====================                   |
     |               Approximate Normal Coordinate               |
     |                Rational Function Optimizer                |
      ----------------------------------------------------------- 

          ...................................................
          :                      SETUP                      :
          :.................................................:
          :   optimization level            normal          :
          :   max. optcycles                   200          :
          :   ANC micro-cycles                  20          :
          :   degrees of freedom               123          :
          :.................................................:
          :   RF solver                   davidson          :
          :   write xtbopt.log                true          :
          :   linear?                        false          :
          :   energy convergence         0.5000000E-05 Eh   :
          :   grad. convergence          0.1000000E-02 Eh/α :
          :   maximium RF displ.         1.0000000          :
          :   Hlow (freq-cutoff)         0.1000000E-01      :
          :   Hmax (freq-cutoff)         5.0000000          :
          :   S6 in model hess.         20.0000000          :
          ...................................................

generating ANC from model Hessian ...
Using Lindh-Hessian (1995)
 Shifting diagonal of input Hessian by   9.785896257896462E-003
 Lowest  eigenvalues of input Hessian
    0.000000    0.000000    0.000000    0.000000    0.000000    0.000000
    0.010000    0.010030    0.010317    0.010994    0.011772    0.012224
    0.012475    0.013272    0.013577    0.014065    0.014780    0.016111
 Highest eigenvalues
    1.937287    1.975339    2.110232    2.158625    2.317045    2.353227
 

........................................................................
.............................. CYCLE    1 ..............................
........................................................................
   1    -84.5514476 -0.845514E+02  0.125E-05    0.09       0.0  T
   2    -84.5514476  0.318249E-08  0.154E-04    0.09      99.3  T
   3    -84.5514476 -0.320395E-08  0.253E-06    0.09    6020.7  T
     SCC iter.                  ...        0 min,  0.011 sec
     gradient                   ...        0 min,  0.084 sec
 * total energy  :   -83.8154481 Eh     change       -0.7105427E-10 Eh
   gradient norm :     0.1414702 Eh/α   predicted     0.0000000E+00 (-100.00%)
   displ. norm   :     0.4103109 α      lambda       -0.2058961E-01
   maximum displ.:     0.1964656 α      in ANC's #26, #13, #12, ...

........................................................................
.............................. CYCLE    2 ..............................
........................................................................
   1    -84.5661806 -0.845662E+02  0.246E-01    0.20       0.0  T
   2    -84.2105433  0.355637E+00  0.166E+00    0.43       1.0  T
   3    -84.5733398 -0.362796E+00  0.671E-02    0.11       1.0  T
   4    -84.5737181 -0.378315E-03  0.175E-02    0.09       1.0  T
   5    -84.5736057  0.112411E-03  0.303E-02    0.09       1.0  T
   6    -84.5737107 -0.104983E-03  0.924E-03    0.10       1.7  T
   7    -84.5737218 -0.111514E-04  0.868E-04    0.09      17.6  T
   8    -84.5737218 -0.294924E-08  0.642E-04    0.09      23.8  T
   9    -84.5737219 -0.398564E-07  0.323E-04    0.09      47.3  T
  10    -84.5737219 -0.330552E-08  0.273E-04    0.09      55.9  T
  11    -84.5737219 -0.927137E-08  0.849E-05    0.09     179.7  T
  12    -84.5737219 -0.954145E-09  0.103E-05    0.09    1480.7  T
     SCC iter.                  ...        0 min,  0.042 sec
     gradient                   ...        0 min,  0.085 sec
 * total energy  :   -83.8306537 Eh     change       -0.1520555E-01 Eh
   gradient norm :     0.0733604 Eh/α   predicted    -0.1205742E-01 ( -20.70%)
   displ. norm   :     0.3746973 α      lambda       -0.1018712E-01
   maximum displ.:     0.1844436 α      in ANC's #26, #7, #9, ...

........................................................................
.............................. CYCLE    3 ..............................
........................................................................
   1    -84.5835179 -0.845835E+02  0.236E-01    0.26       0.0  T
   2    -84.2120980  0.371420E+00  0.168E+00    0.36       1.0  T
   3    -84.5873376 -0.375240E+00  0.161E-01    0.17       1.0  T
   4    -84.5893337 -0.199613E-02  0.895E-02    0.13       1.0  T
   5    -84.5903005 -0.966727E-03  0.313E-02    0.10       1.0  T
   6    -84.5903848 -0.842873E-04  0.180E-02    0.10       1.0  T
   7    -84.5904218 -0.370021E-04  0.615E-03    0.11       2.5  T
   8    -84.5904257 -0.395302E-05  0.310E-03    0.10       4.9  T
   9    -84.5904270 -0.127901E-05  0.191E-04    0.10      79.7  T
  10    -84.5904270  0.746864E-08  0.292E-04    0.10      52.2  T
  11    -84.5904270 -0.108353E-07  0.501E-05    0.10     304.6  T
  12    -84.5904270 -0.319119E-09  0.415E-06    0.10    3678.5  T
     SCC iter.                  ...        0 min,  0.041 sec
     gradient                   ...        0 min,  0.085 sec
 * total energy  :   -83.8368118 Eh     change       -0.6158182E-02 Eh
   gradient norm :     0.0269242 Eh/α   predicted    -0.5808686E-02 (  -5.68%)
   displ. norm   :     0.3046507 α      lambda       -0.2174021E-02
   maximum displ.:     0.1269334 α      in ANC's #7, #9, #5, ...

........................................................................
.............................. CYCLE    4 ..............................
........................................................................
   1    -84.5886123 -0.845886E+02  0.156E-01    0.18       0.0  T
   2    -84.2179337  0.370679E+00  0.166E+00    0.25       1.0  T
   3    -84.5912275 -0.373294E+00  0.724E-02    0.13       1.0  T
   4    -84.5917726 -0.545081E-03  0.315E-02    0.12       1.0  T
   5    -84.5918909 -0.118382E-03  0.125E-02    0.11       1.2  T
   6    -84.5918996 -0.864910E-05  0.902E-03    0.11       1.7  T
   7    -84.5919094 -0.978795E-05  0.234E-03    0.11       6.5  T
   8    -84.5919101 -0.703714E-06  0.348E-04    0.11      43.8  T
   9    -84.5919101 -0.257246E-08  0.290E-04    0.11      52.7  T
  10    -84.5919101 -0.109344E-07  0.300E-05    0.11     508.0  T
  11    -84.5919101 -0.764402E-10  0.909E-06    0.11    1678.5  T
     SCC iter.                  ...        0 min,  0.038 sec
     gradient                   ...        0 min,  0.085 sec
 * total energy  :   -83.8384279 Eh     change       -0.1616053E-02 Eh
   gradient norm :     0.0178657 Eh/α   predicted    -0.1187907E-02 ( -26.49%)
   displ. norm   :     0.3780293 α      lambda       -0.1566057E-02
   maximum displ.:     0.1729261 α      in ANC's #5, #7, #9, ...

........................................................................
.............................. CYCLE    5 ..............................
........................................................................
   1    -84.5899258 -0.845899E+02  0.130E-01    0.17       0.0  T
   2    -84.2335305  0.356395E+00  0.162E+00    0.18       1.0  T
   3    -84.5914157 -0.357885E+00  0.747E-02    0.14       1.0  T
   4    -84.5918933 -0.477575E-03  0.427E-02    0.13       1.0  T
   5    -84.5921314 -0.238103E-03  0.669E-03    0.12       2.3  T
   6    -84.5921281  0.334284E-05  0.762E-03    0.11       2.0  T
   7    -84.5921337 -0.560219E-05  0.396E-03    0.11       3.9  T
   8    -84.5921358 -0.213445E-05  0.255E-04    0.11      59.8  T
   9    -84.5921358 -0.650508E-08  0.113E-04    0.11     135.3  T
  10    -84.5921358 -0.137777E-08  0.492E-05    0.11     310.2  T
     SCC iter.                  ...        0 min,  0.035 sec
     gradient                   ...        0 min,  0.087 sec
 * total energy  :   -83.8395342 Eh     change       -0.1106280E-02 Eh
   gradient norm :     0.0105727 Eh/α   predicted    -0.8949414E-03 ( -19.10%)
   displ. norm   :     0.3611306 α      lambda       -0.8539580E-03
   maximum displ.:     0.1885643 α      in ANC's #5, #7, #9, ...

........................................................................
.............................. CYCLE    6 ..............................
........................................................................
   1    -84.5920846 -0.845921E+02  0.717E-02    0.14       0.0  T
   2    -84.4181701  0.173915E+00  0.112E+00    0.05       1.0  T
   3    -84.5924171 -0.174247E+00  0.492E-02    0.13       1.0  T
   4    -84.5925948 -0.177724E-03  0.322E-02    0.13       1.0  T
   5    -84.5927012 -0.106343E-03  0.146E-02    0.12       1.0  T
   6    -84.5927283 -0.271142E-04  0.193E-03    0.12       7.9  T
   7    -84.5927287 -0.425505E-06  0.662E-04    0.12      23.0  T
   8    -84.5927287 -0.153424E-07  0.525E-04    0.12      29.0  T
   9    -84.5927287 -0.250684E-07  0.276E-04    0.12      55.2  T
  10    -84.5927287 -0.726024E-08  0.141E-04    0.12     108.2  T
  11    -84.5927288 -0.228223E-08  0.511E-05    0.12     298.6  T
     SCC iter.                  ...        0 min,  0.040 sec
     gradient                   ...        0 min,  0.085 sec
 * total energy  :   -83.8401844 Eh     change       -0.6502615E-03 Eh
   gradient norm :     0.0105805 Eh/α   predicted    -0.4826651E-03 ( -25.77%)
   displ. norm   :     0.4254196 α      lambda       -0.7726162E-03
   maximum displ.:     0.2305039 α      in ANC's #5, #7, #10, ...

........................................................................
.............................. CYCLE    7 ..............................
........................................................................
   1    -84.5936466 -0.845936E+02  0.260E-02    0.12       0.0  T
   2    -84.5876387  0.600786E-02  0.211E-01    0.07       1.0  T
   3    -84.5935939 -0.595514E-02  0.298E-02    0.13       1.0  T
   4    -84.5936805 -0.866385E-04  0.149E-02    0.12       1.0  T
   5    -84.5936987 -0.182356E-04  0.794E-03    0.12       1.9  T
   6    -84.5937063 -0.753228E-05  0.102E-03    0.12      15.0  T
   7    -84.5937064 -0.114906E-06  0.135E-04    0.12     113.0  T
   8    -84.5937064 -0.724143E-09  0.894E-05    0.12     170.6  T
     SCC iter.                  ...        0 min,  0.028 sec
     gradient                   ...        0 min,  0.085 sec
 * total energy  :   -83.8407757 Eh     change       -0.5912586E-03 Eh
   gradient norm :     0.0108926 Eh/α   predicted    -0.4562236E-03 ( -22.84%)
   displ. norm   :     0.4333471 α      lambda       -0.6295593E-03
   maximum displ.:     0.2254603 α      in ANC's #5, #7, #10, ...

........................................................................
.............................. CYCLE    8 ..............................
........................................................................
   1    -84.5949926 -0.845950E+02  0.199E-02    0.11       0.0  T
   2    -84.5939463  0.104631E-02  0.918E-02    0.15       1.0  T
   3    -84.5950320 -0.108564E-02  0.104E-02    0.12       1.5  T
   4    -84.5950343 -0.236685E-05  0.816E-03    0.12       1.9  T
   5    -84.5950412 -0.691441E-05  0.106E-03    0.12      14.4  T
   6    -84.5950409  0.307585E-06  0.160E-03    0.12       9.5  T
   7    -84.5950413 -0.315899E-06  0.946E-05    0.12     161.1  T
   8    -84.5950413 -0.707089E-09  0.380E-05    0.12     401.8  T
     SCC iter.                  ...        0 min,  0.029 sec
     gradient                   ...        0 min,  0.085 sec
 * total energy  :   -83.8412411 Eh     change       -0.4654441E-03 Eh
   gradient norm :     0.0095443 Eh/α   predicted    -0.3738940E-03 ( -19.67%)
   displ. norm   :     0.3688122 α      lambda       -0.4218354E-03
   maximum displ.:     0.1704727 α      in ANC's #5, #7, #6, ...

........................................................................
.............................. CYCLE    9 ..............................
........................................................................
   1    -84.5968652 -0.845969E+02  0.199E-02    0.11       0.0  T
   2    -84.5959685  0.896789E-03  0.844E-02    0.15       1.0  T
   3    -84.5968994 -0.930955E-03  0.103E-02    0.11       1.5  T
   4    -84.5969060 -0.654216E-05  0.391E-03    0.12       3.9  T
   5    -84.5969068 -0.870522E-06  0.156E-03    0.12       9.8  T
   6    -84.5969068  0.453366E-07  0.128E-03    0.12      11.9  T
   7    -84.5969070 -0.207732E-06  0.101E-04    0.12     150.9  T
   8    -84.5969070 -0.570893E-09  0.741E-05    0.12     205.8  T
     SCC iter.                  ...        0 min,  0.029 sec
     gradient                   ...        0 min,  0.085 sec
 * total energy  :   -83.8415534 Eh     change       -0.3122421E-03 Eh
   gradient norm :     0.0071931 Eh/α   predicted    -0.2396079E-03 ( -23.26%)
   displ. norm   :     0.3320900 α      lambda       -0.3062819E-03
   maximum displ.:     0.1356827 α      in ANC's #7, #5, #4, ...

........................................................................
.............................. CYCLE   10 ..............................
........................................................................
   1    -84.5982284 -0.845982E+02  0.132E-02    0.12       0.0  T
   2    -84.5982149  0.135396E-04  0.155E-02    0.11       1.0  T
   3    -84.5980914  0.123435E-03  0.332E-02    0.13       1.0  T
   4    -84.5982366 -0.145155E-03  0.450E-03    0.12       3.4  T
   5    -84.5982385 -0.191333E-05  0.117E-03    0.12      13.0  T
   6    -84.5982385  0.122657E-08  0.279E-04    0.12      54.6  T
   7    -84.5982385 -0.349843E-08  0.445E-05    0.12     342.4  T
   8    -84.5982385 -0.403588E-11  0.311E-05    0.12     490.7  T
     SCC iter.                  ...        0 min,  0.029 sec
     gradient                   ...        0 min,  0.085 sec
 * total energy  :   -83.8417695 Eh     change       -0.2160799E-03 Eh
   gradient norm :     0.0063436 Eh/α   predicted    -0.1700379E-03 ( -21.31%)
   displ. norm   :     0.2453699 α      lambda       -0.2081730E-03
   maximum displ.:     0.1180397 α      in ANC's #4, #2, #3, ...

........................................................................
.............................. CYCLE   11 ..............................
........................................................................
   1    -84.5995417 -0.845995E+02  0.198E-02    0.12       0.0  T
   2    -84.5946133  0.492832E-02  0.193E-01    0.07       1.0  T
   3    -84.5995844 -0.497105E-02  0.619E-03    0.12       2.5  T
   4    -84.5995893 -0.491330E-05  0.201E-03    0.12       7.6  T
   5    -84.5995894 -0.744764E-07  0.144E-03    0.12      10.6  T
   6    -84.5995895 -0.147120E-06  0.638E-04    0.12      23.9  T
   7    -84.5995896 -0.483684E-07  0.708E-05    0.12     215.5  T
   8    -84.5995896 -0.446903E-09  0.247E-05    0.12     618.0  T
     SCC iter.                  ...        0 min,  0.029 sec
     gradient                   ...        0 min,  0.085 sec
 * total energy  :   -83.8419249 Eh     change       -0.1554006E-03 Eh
   gradient norm :     0.0067846 Eh/α   predicted    -0.1103555E-03 ( -28.99%)
   displ. norm   :     0.2927287 α      lambda       -0.2299655E-03
   maximum displ.:     0.1598984 α      in ANC's #4, #3, #2, ...

........................................................................
.............................. CYCLE   12 ..............................
........................................................................
   1    -84.5982428 -0.845982E+02  0.450E-02    0.13       0.0  T
   2    -84.5474033  0.508395E-01  0.613E-01    0.02       1.0  T
   3    -84.5983997 -0.509963E-01  0.266E-02    0.13       1.0  T
   4    -84.5984775 -0.778677E-04  0.119E-02    0.12       1.3  T
   5    -84.5984911 -0.136180E-04  0.551E-03    0.12       2.8  T
   6    -84.5984947 -0.356914E-05  0.142E-03    0.12      10.7  T
   7    -84.5984949 -0.147841E-06  0.965E-04    0.12      15.8  T
   8    -84.5984950 -0.123397E-06  0.129E-04    0.12     118.3  T
   9    -84.5984950 -0.219265E-08  0.117E-05    0.12    1300.2  T
     SCC iter.                  ...        0 min,  0.032 sec
     gradient                   ...        0 min,  0.085 sec
 * total energy  :   -83.8421026 Eh     change       -0.1777188E-03 Eh
   gradient norm :     0.0088996 Eh/α   predicted    -0.1248394E-03 ( -29.75%)
   displ. norm   :     0.4332834 α      lambda       -0.4254052E-03
   maximum displ.:     0.2368590 α      in ANC's #4, #2, #3, ...

........................................................................
.............................. CYCLE   13 ..............................
........................................................................
   1    -84.6002233 -0.846002E+02  0.671E-02    0.15       0.0  T
   2    -84.4509671  0.149256E+00  0.105E+00    0.03       1.0  T
   3    -84.6006014 -0.149634E+00  0.397E-02    0.13       1.0  T
   4    -84.6007404 -0.138981E-03  0.224E-02    0.13       1.0  T
   5    -84.6008006 -0.602308E-04  0.620E-03    0.12       2.5  T
   6    -84.6008048 -0.423365E-05  0.192E-03    0.12       8.0  T
   7    -84.6008052 -0.372006E-06  0.922E-04    0.12      16.5  T
   8    -84.6008053 -0.117640E-06  0.403E-05    0.12     378.4  T
   9    -84.6008053  0.100192E-08  0.932E-05    0.12     163.5  T
     SCC iter.                  ...        0 min,  0.032 sec
     gradient                   ...        0 min,  0.085 sec
 * total energy  :   -83.8423745 Eh     change       -0.2719682E-03 Eh
   gradient norm :     0.0107288 Eh/α   predicted    -0.2526349E-03 (  -7.11%)
   displ. norm   :     0.5562228 α      lambda       -0.4528694E-03
   maximum displ.:     0.3054259 α      in ANC's #4, #3, #2, ...

........................................................................
.............................. CYCLE   14 ..............................
........................................................................
   1    -84.5951088 -0.845951E+02  0.796E-02    0.15       0.0  T
   2    -84.4161133  0.178995E+00  0.115E+00    0.04       1.0  T
   3    -84.5953008 -0.179188E+00  0.640E-02    0.15       1.0  T
   4    -84.5956164 -0.315544E-03  0.419E-02    0.14       1.0  T
   5    -84.5957538 -0.137414E-03  0.251E-02    0.13       1.0  T
   6    -84.5958340 -0.801837E-04  0.103E-03    0.12      14.9  T
   7    -84.5958340 -0.527053E-07  0.642E-04    0.12      23.8  T
   8    -84.5958340  0.162361E-07  0.692E-04    0.12      22.0  T
   9    -84.5958341 -0.433699E-07  0.353E-04    0.12      43.2  T
  10    -84.5958341 -0.128534E-07  0.157E-04    0.12      97.2  T
  11    -84.5958341 -0.277430E-08  0.549E-05    0.12     278.0  T
     SCC iter.                  ...        0 min,  0.039 sec
     gradient                   ...        0 min,  0.085 sec
 * total energy  :   -83.8426517 Eh     change       -0.2771677E-03 Eh
   gradient norm :     0.0136421 Eh/α   predicted    -0.2964994E-03 (   6.97%)
   displ. norm   :     0.2614638 α      lambda       -0.4140803E-03
   maximum displ.:     0.1289400 α      in ANC's #3, #2, #4, ...

........................................................................
.............................. CYCLE   15 ..............................
........................................................................
   1    -84.5971613 -0.845972E+02  0.261E-02    0.13       0.0  T
   2    -84.5905595  0.660185E-02  0.224E-01    0.07       1.0  T
   3    -84.5971881 -0.662868E-02  0.188E-02    0.13       1.0  T
   4    -84.5972234 -0.352156E-04  0.863E-03    0.13       1.8  T
   5    -84.5972306 -0.720699E-05  0.317E-03    0.12       4.8  T
   6    -84.5972316 -0.106137E-05  0.783E-04    0.12      19.5  T
   7    -84.5972317 -0.784048E-07  0.227E-04    0.12      67.1  T
   8    -84.5972317 -0.651252E-08  0.343E-05    0.12     444.2  T
   9    -84.5972317 -0.143388E-10  0.273E-05    0.12     558.7  T
     SCC iter.                  ...        0 min,  0.033 sec
     gradient                   ...        0 min,  0.085 sec
 * total energy  :   -83.8429732 Eh     change       -0.3215280E-03 Eh
   gradient norm :     0.0091740 Eh/α   predicted    -0.2211950E-03 ( -31.21%)
   displ. norm   :     0.4043592 α      lambda       -0.5194015E-03
   maximum displ.:     0.2025957 α      in ANC's #2, #3, #4, ...

........................................................................
.............................. CYCLE   16 ..............................
........................................................................
   1    -84.5984872 -0.845985E+02  0.283E-02    0.13       0.0  T
   2    -84.5951274  0.335976E-02  0.162E-01    0.08       1.0  T
   3    -84.5983675 -0.324008E-02  0.377E-02    0.14       1.0  T
   4    -84.5985234 -0.155938E-03  0.145E-02    0.13       1.1  T
   5    -84.5985453 -0.219143E-04  0.459E-03    0.13       3.3  T
   6    -84.5985475 -0.217854E-05  0.870E-04    0.12      17.5  T
   7    -84.5985476 -0.976525E-07  0.192E-04    0.12      79.5  T
   8    -84.5985476 -0.431586E-08  0.632E-05    0.12     241.2  T
     SCC iter.                  ...        0 min,  0.029 sec
     gradient                   ...        0 min,  0.085 sec
 * total energy  :   -83.8433197 Eh     change       -0.3464645E-03 Eh
   gradient norm :     0.0075043 Eh/α   predicted    -0.3021641E-03 ( -12.79%)
   displ. norm   :     0.4406693 α      lambda       -0.3471078E-03
   maximum displ.:     0.2395970 α      in ANC's #3, #2, #4, ...

........................................................................
.............................. CYCLE   17 ..............................
........................................................................
   1    -84.6001132 -0.846001E+02  0.726E-02    0.16       0.0  T
   2    -84.4451155  0.154998E+00  0.107E+00    0.03       1.0  T
   3    -84.6005353 -0.155420E+00  0.420E-02    0.15       1.0  T
   4    -84.6007358 -0.200444E-03  0.186E-02    0.13       1.0  T
   5    -84.6007768 -0.410900E-04  0.593E-03    0.13       2.6  T
   6    -84.6007733  0.357452E-05  0.795E-03    0.12       1.9  T
   7    -84.6007793 -0.600693E-05  0.420E-03    0.13       3.6  T
   8    -84.6007813 -0.203637E-05  0.147E-03    0.13      10.4  T
   9    -84.6007816 -0.237353E-06  0.567E-04    0.13      26.9  T
  10    -84.6007816 -0.331666E-07  0.249E-04    0.13      61.3  T
  11    -84.6007816 -0.778242E-08  0.408E-05    0.13     373.4  T
  12    -84.6007816 -0.184997E-09  0.147E-05    0.13    1036.2  T
     SCC iter.                  ...        0 min,  0.043 sec
     gradient                   ...        0 min,  0.086 sec
 * total energy  :   -83.8435320 Eh     change       -0.2122807E-03 Eh
   gradient norm :     0.0103322 Eh/α   predicted    -0.2072566E-03 (  -2.37%)
   displ. norm   :     0.3458701 α      lambda       -0.3491002E-03
   maximum displ.:     0.1872063 α      in ANC's #2, #3, #4, ...

........................................................................
.............................. CYCLE   18 ..............................
........................................................................
   1    -84.6013769 -0.846014E+02  0.141E-02    0.13       0.0  T
   2    -84.6013832 -0.630933E-05  0.750E-03    0.13       2.0  T
   3    -84.6013656  0.176512E-04  0.133E-02    0.13       1.1  T
   4    -84.6013832 -0.176271E-04  0.517E-03    0.13       2.9  T
   5    -84.6013858 -0.258769E-05  0.211E-03    0.13       7.2  T
   6    -84.6013861 -0.332966E-06  0.306E-04    0.13      49.9  T
   7    -84.6013861 -0.757279E-08  0.519E-05    0.13     294.0  T
   8    -84.6013861 -0.212296E-09  0.184E-05    0.13     827.0  T
     SCC iter.                  ...        0 min,  0.033 sec
     gradient                   ...        0 min,  0.086 sec
 * total energy  :   -83.8437581 Eh     change       -0.2261149E-03 Eh
   gradient norm :     0.0084781 Eh/α   predicted    -0.1954348E-03 ( -13.57%)
   displ. norm   :     0.5772323 α      lambda       -0.3586762E-03
   maximum displ.:     0.3019360 α      in ANC's #2, #4, #3, ...

........................................................................
.............................. CYCLE   19 ..............................
........................................................................
   1    -84.5959421 -0.845959E+02  0.615E-02    0.16       0.0  T
   2    -84.5203872  0.755549E-01  0.753E-01    0.01       1.0  T
   3    -84.5960763 -0.756891E-01  0.461E-02    0.15       1.0  T
   4    -84.5962856 -0.209377E-03  0.241E-02    0.14       1.0  T
   5    -84.5963447 -0.590743E-04  0.929E-03    0.13       1.6  T
   6    -84.5963543 -0.953619E-05  0.275E-03    0.13       5.5  T
   7    -84.5963550 -0.786192E-06  0.131E-03    0.13      11.7  T
   8    -84.5963553 -0.224077E-06  0.206E-04    0.13      73.9  T
   9    -84.5963553 -0.414559E-08  0.112E-04    0.13     136.5  T
  10    -84.5963553 -0.124086E-08  0.518E-05    0.13     294.4  T
     SCC iter.                  ...        0 min,  0.041 sec
     gradient                   ...        0 min,  0.086 sec
 * total energy  :   -83.8439203 Eh     change       -0.1621821E-03 Eh
   gradient norm :     0.0115188 Eh/α   predicted    -0.2390969E-03 (  47.42%)
   displ. norm   :     0.2324356 α      lambda       -0.4619717E-03
   maximum displ.:     0.1194633 α      in ANC's #2, #3, #8, ...

........................................................................
.............................. CYCLE   20 ..............................
........................................................................
   1    -84.6045714 -0.846046E+02  0.884E-02    0.19       0.0  T
   2    -84.3814146  0.223157E+00  0.129E+00    0.06       1.0  T
   3    -84.6054360 -0.224021E+00  0.397E-02    0.15       1.0  T
   4    -84.6056324 -0.196430E-03  0.120E-02    0.14       1.3  T
   5    -84.6056095  0.228871E-04  0.191E-02    0.13       1.0  T
   6    -84.6055973  0.121956E-04  0.209E-02    0.13       1.0  T
   7    -84.6056377 -0.403609E-04  0.109E-02    0.13       1.4  T
   8    -84.6056507 -0.130276E-04  0.440E-03    0.13       3.5  T
   9    -84.6056526 -0.186308E-05  0.218E-03    0.13       7.0  T
  10    -84.6056531 -0.501863E-06  0.893E-04    0.13      17.1  T
  11    -84.6056532 -0.998345E-07  0.111E-04    0.13     137.8  T
  12    -84.6056532 -0.146424E-08  0.228E-05    0.13     668.2  T
     SCC iter.                  ...        0 min,  0.044 sec
     gradient                   ...        0 min,  0.085 sec
 * total energy  :   -83.8440068 Eh     change       -0.8652614E-04 Eh
   gradient norm :     0.0135268 Eh/α   predicted    -0.2434681E-03 ( 181.38%)
   displ. norm   :     0.1597599 α      lambda       -0.3133107E-03
   maximum displ.:     0.0888607 α      in ANC's #2, #4, #3, ...
 * RMSD in coord.:     0.7990870 α      energy gain  -0.2855870E-01 Eh

generating ANC from model Hessian ...
Using Lindh-Hessian (1995)
 Shifting diagonal of input Hessian by   9.791641387845974E-003
 Lowest  eigenvalues of input Hessian
    0.000000    0.000000    0.000000    0.000000    0.000000    0.000000
    0.010000    0.010050    0.010298    0.011029    0.011889    0.012089
    0.012490    0.012966    0.013616    0.014395    0.014668    0.016218
 Highest eigenvalues
    2.022936    2.026381    2.153499    2.174421    2.339427    2.372439
 

........................................................................
.............................. CYCLE   21 ..............................
........................................................................
   1    -84.6022330 -0.846022E+02  0.682E-02    0.11       0.0  T
   2    -84.5997985  0.243458E-02  0.173E-01    0.30       1.0  T
   3    -84.6021350 -0.233658E-02  0.797E-02    0.17       1.0  T
   4    -84.6027572 -0.622149E-03  0.350E-02    0.15       1.0  T
   5    -84.6028496 -0.923877E-04  0.187E-02    0.13       1.0  T
   6    -84.6028765 -0.269747E-04  0.136E-02    0.14       1.1  T
   7    -84.6028980 -0.214616E-04  0.129E-03    0.13      11.8  T
   8    -84.6028981 -0.820209E-07  0.956E-04    0.13      16.0  T
   9    -84.6028982 -0.117559E-06  0.309E-05    0.13     493.8  T
  10    -84.6028982  0.218201E-08  0.133E-04    0.13     114.4  T
     SCC iter.                  ...        0 min,  0.035 sec
     gradient                   ...        0 min,  0.085 sec
 * total energy  :   -83.8441980 Eh     change       -0.1911720E-03 Eh
   gradient norm :     0.0066354 Eh/α   predicted     0.0000000E+00 (-100.00%)
   displ. norm   :     0.0670220 α      lambda       -0.1252342E-03
   maximum displ.:     0.0288603 α      in ANC's #3, #12, #13, ...

........................................................................
.............................. CYCLE   22 ..............................
........................................................................
   1    -84.6027320 -0.846027E+02  0.513E-03    0.13       0.0  T
   2    -84.6026968  0.351997E-04  0.175E-02    0.14       1.0  T
   3    -84.6027340 -0.372103E-04  0.244E-03    0.13       6.2  T
   4    -84.6027335  0.530476E-06  0.286E-03    0.13       5.3  T
   5    -84.6027342 -0.657905E-06  0.774E-04    0.13      19.7  T
   6    -84.6027342 -0.486499E-07  0.972E-05    0.13     157.0  T
   7    -84.6027342  0.546692E-10  0.606E-05    0.13     251.5  T
     SCC iter.                  ...        0 min,  0.024 sec
     gradient                   ...        0 min,  0.085 sec
 * total energy  :   -83.8443036 Eh     change       -0.1056331E-03 Eh
   gradient norm :     0.0032555 Eh/α   predicted    -0.6472398E-04 ( -38.73%)
   displ. norm   :     0.2078826 α      lambda       -0.2383891E-03
   maximum displ.:     0.0933011 α      in ANC's #3, #12, #10, ...

........................................................................
.............................. CYCLE   23 ..............................
........................................................................
   1    -84.6020115 -0.846020E+02  0.108E-02    0.13       0.0  T
   2    -84.6019150  0.965381E-04  0.296E-02    0.15       1.0  T
   3    -84.6020174 -0.102393E-03  0.702E-03    0.13       2.2  T
   4    -84.6020174 -0.214074E-07  0.659E-03    0.14       2.3  T
   5    -84.6020214 -0.397155E-05  0.161E-03    0.13       9.5  T
   6    -84.6020216 -0.198110E-06  0.219E-04    0.13      69.7  T
   7    -84.6020216  0.213608E-08  0.185E-04    0.13      82.6  T
   8    -84.6020216 -0.395634E-08  0.232E-05    0.13     656.8  T
     SCC iter.                  ...        0 min,  0.028 sec
     gradient                   ...        0 min,  0.086 sec
 * total energy  :   -83.8444680 Eh     change       -0.1643373E-03 Eh
   gradient norm :     0.0045765 Eh/α   predicted    -0.1243492E-03 ( -24.33%)
   displ. norm   :     0.2242908 α      lambda       -0.1545472E-03
   maximum displ.:     0.1035767 α      in ANC's #3, #12, #10, ...

........................................................................
.............................. CYCLE   24 ..............................
........................................................................
   1    -84.6011542 -0.846012E+02  0.881E-03    0.13       0.0  T
   2    -84.6011393  0.148837E-04  0.131E-02    0.14       1.2  T
   3    -84.6011201  0.191732E-04  0.178E-02    0.13       1.0  T
   4    -84.6011580 -0.379105E-04  0.414E-03    0.13       3.7  T
   5    -84.6011595 -0.148131E-05  0.134E-03    0.13      11.4  T
   6    -84.6011597 -0.160925E-06  0.133E-04    0.13     114.6  T
   7    -84.6011597  0.364480E-09  0.960E-05    0.13     158.8  T
     SCC iter.                  ...        0 min,  0.025 sec
     gradient                   ...        0 min,  0.085 sec
 * total energy  :   -83.8445886 Eh     change       -0.1206567E-03 Eh
   gradient norm :     0.0078124 Eh/α   predicted    -0.8160953E-04 ( -32.36%)
   displ. norm   :     0.3261282 α      lambda       -0.2319990E-03
   maximum displ.:     0.1551242 α      in ANC's #3, #12, #10, ...

........................................................................
.............................. CYCLE   25 ..............................
........................................................................
   1    -84.6000516 -0.846001E+02  0.124E-02    0.13       0.0  T
   2    -84.6000093  0.422219E-04  0.217E-02    0.13       1.0  T
   3    -84.5999883  0.210543E-04  0.239E-02    0.14       1.0  T
   4    -84.6000607 -0.724445E-04  0.207E-03    0.13       7.4  T
   5    -84.6000608 -0.113602E-06  0.654E-04    0.13      23.3  T
   6    -84.6000608 -0.233418E-08  0.163E-04    0.13      93.8  T
   7    -84.6000608 -0.102034E-10  0.927E-05    0.13     164.5  T
     SCC iter.                  ...        0 min,  0.025 sec
     gradient                   ...        0 min,  0.085 sec
 * total energy  :   -83.8447560 Eh     change       -0.1674120E-03 Eh
   gradient norm :     0.0103862 Eh/α   predicted    -0.1283381E-03 ( -23.34%)
   displ. norm   :     0.2813141 α      lambda       -0.2977104E-03
   maximum displ.:     0.1482424 α      in ANC's #3, #1, #10, ...

........................................................................
.............................. CYCLE   26 ..............................
........................................................................
   1    -84.6010254 -0.846010E+02  0.150E-02    0.14       0.0  T
   2    -84.6003079  0.717503E-03  0.772E-02    0.11       1.0  T
   3    -84.6010339 -0.725997E-03  0.963E-03    0.14       1.6  T
   4    -84.6010456 -0.117109E-04  0.282E-03    0.13       5.4  T
   5    -84.6010460 -0.371395E-06  0.160E-03    0.13       9.5  T
   6    -84.6010462 -0.238409E-06  0.263E-04    0.13      58.0  T
   7    -84.6010462 -0.434179E-08  0.777E-05    0.13     196.2  T
   8    -84.6010462 -0.644050E-09  0.203E-05    0.13     753.0  T
     SCC iter.                  ...        0 min,  0.028 sec
     gradient                   ...        0 min,  0.085 sec
 * total energy  :   -83.8449890 Eh     change       -0.2329771E-03 Eh
   gradient norm :     0.0080415 Eh/α   predicted    -0.1606566E-03 ( -31.04%)
   displ. norm   :     0.3133010 α      lambda       -0.3446598E-03
   maximum displ.:     0.1799801 α      in ANC's #3, #1, #9, ...

........................................................................
.............................. CYCLE   27 ..............................
........................................................................
   1    -84.6033620 -0.846034E+02  0.247E-02    0.14       0.0  T
   2    -84.5989774  0.438461E-02  0.187E-01    0.08       1.0  T
   3    -84.6034230 -0.444559E-02  0.792E-03    0.14       1.9  T
   4    -84.6034287 -0.570531E-05  0.484E-03    0.13       3.2  T
   5    -84.6034288 -0.111992E-06  0.399E-03    0.13       3.8  T
   6    -84.6034304 -0.161856E-05  0.108E-03    0.13      14.1  T
   7    -84.6034305 -0.141806E-06  0.888E-05    0.13     171.7  T
   8    -84.6034305 -0.736847E-09  0.250E-05    0.13     609.9  T
     SCC iter.                  ...        0 min,  0.028 sec
     gradient                   ...        0 min,  0.085 sec
 * total energy  :   -83.8452315 Eh     change       -0.2424645E-03 Eh
   gradient norm :     0.0043438 Eh/α   predicted    -0.1892458E-03 ( -21.95%)
   displ. norm   :     0.5910086 α      lambda       -0.3358908E-03
   maximum displ.:     0.3288364 α      in ANC's #3, #1, #12, ...

........................................................................
.............................. CYCLE   28 ..............................
........................................................................
   1    -84.5976900 -0.845977E+02  0.408E-02    0.15       0.0  T
   2    -84.5843232  0.133668E-01  0.324E-01    0.06       1.0  T
   3    -84.5977712 -0.134480E-01  0.247E-02    0.15       1.0  T
   4    -84.5978445 -0.733222E-04  0.720E-03    0.14       2.1  T
   5    -84.5978428  0.175923E-05  0.560E-03    0.13       2.7  T
   6    -84.5978454 -0.267849E-05  0.269E-03    0.13       5.7  T
   7    -84.5978463 -0.878028E-06  0.693E-04    0.14      22.0  T
   8    -84.5978464 -0.554020E-07  0.186E-04    0.14      81.8  T
   9    -84.5978464 -0.411039E-08  0.310E-05    0.14     491.2  T
     SCC iter.                  ...        0 min,  0.031 sec
     gradient                   ...        0 min,  0.085 sec
 * total energy  :   -83.8452448 Eh     change       -0.1332903E-04 Eh
   gradient norm :     0.0147219 Eh/α   predicted    -0.2266146E-03 (1600.16%)
   displ. norm   :     0.1200654 α      lambda       -0.5351644E-03
   maximum displ.:     0.0585658 α      in ANC's #10, #8, #12, ...

........................................................................
.............................. CYCLE   29 ..............................
........................................................................
   1    -84.6036854 -0.846037E+02  0.162E-02    0.14       0.0  T
   2    -84.6035844  0.100995E-03  0.296E-02    0.12       1.0  T
   3    -84.6036500 -0.655836E-04  0.195E-02    0.14       1.0  T
   4    -84.6036862 -0.362426E-04  0.582E-03    0.14       2.6  T
   5    -84.6036896 -0.333108E-05  0.860E-04    0.14      17.7  T
   6    -84.6036896 -0.304530E-07  0.134E-04    0.14     113.5  T
   7    -84.6036896 -0.190425E-09  0.572E-05    0.14     266.5  T
     SCC iter.                  ...        0 min,  0.025 sec
     gradient                   ...        0 min,  0.085 sec
 * total energy  :   -83.8455145 Eh     change       -0.2696583E-03 Eh
   gradient norm :     0.0052410 Eh/α   predicted    -0.2714432E-03 (   0.66%)
   displ. norm   :     0.2378402 α      lambda       -0.1331197E-03
   maximum displ.:     0.1485092 α      in ANC's #3, #1, #12, ...

........................................................................
.............................. CYCLE   30 ..............................
........................................................................
   1    -84.6039389 -0.846039E+02  0.195E-02    0.14       0.0  T
   2    -84.6017391  0.219981E-02  0.133E-01    0.10       1.0  T
   3    -84.6039683 -0.222921E-02  0.949E-03    0.14       1.6  T
   4    -84.6039797 -0.113860E-04  0.247E-03    0.14       6.2  T
   5    -84.6039804 -0.656729E-06  0.487E-04    0.14      31.3  T
   6    -84.6039804  0.160608E-07  0.362E-04    0.14      42.1  T
   7    -84.6039804 -0.165252E-07  0.271E-05    0.14     563.7  T
   8    -84.6039804 -0.227800E-10  0.948E-06    0.14    1607.8  T
     SCC iter.                  ...        0 min,  0.028 sec
     gradient                   ...        0 min,  0.085 sec
 * total energy  :   -83.8456348 Eh     change       -0.1203757E-03 Eh
   gradient norm :     0.0052064 Eh/α   predicted    -0.7032576E-04 ( -41.58%)
   displ. norm   :     0.6162452 α      lambda       -0.3510122E-03
   maximum displ.:     0.3835275 α      in ANC's #3, #1, #12, ...

........................................................................
.............................. CYCLE   31 ..............................
........................................................................
   1    -84.6015394 -0.846015E+02  0.467E-02    0.16       0.0  T
   2    -84.5801996  0.213398E-01  0.407E-01    0.05       1.0  T
   3    -84.6015992 -0.213996E-01  0.350E-02    0.16       1.0  T
   4    -84.6017195 -0.120309E-03  0.179E-02    0.15       1.0  T
   5    -84.6017540 -0.344302E-04  0.519E-03    0.14       2.9  T
   6    -84.6017562 -0.218991E-05  0.243E-03    0.14       6.3  T
   7    -84.6017568 -0.678754E-06  0.823E-04    0.14      18.5  T
   8    -84.6017569 -0.869765E-07  0.114E-04    0.14     134.2  T
   9    -84.6017569 -0.113465E-08  0.617E-05    0.14     247.3  T
     SCC iter.                  ...        0 min,  0.032 sec
     gradient                   ...        0 min,  0.085 sec
 * total energy  :   -83.8458480 Eh     change       -0.2131841E-03 Eh
   gradient norm :     0.0075848 Eh/α   predicted    -0.2421579E-03 (  13.59%)
   displ. norm   :     0.2203082 α      lambda       -0.1963566E-03
   maximum displ.:     0.1320777 α      in ANC's #3, #1, #11, ...

........................................................................
.............................. CYCLE   32 ..............................
........................................................................
   1    -84.6040879 -0.846041E+02  0.179E-02    0.15       0.0  T
   2    -84.6028110  0.127688E-02  0.102E-01    0.11       1.0  T
   3    -84.6041056 -0.129459E-02  0.105E-02    0.14       1.5  T
   4    -84.6041175 -0.118919E-04  0.315E-03    0.14       4.8  T
   5    -84.6041180 -0.520985E-06  0.101E-03    0.14      15.1  T
   6    -84.6041181 -0.581298E-07  0.182E-04    0.14      83.6  T
   7    -84.6041181 -0.323938E-08  0.366E-05    0.14     416.2  T
     SCC iter.                  ...        0 min,  0.025 sec
     gradient                   ...        0 min,  0.085 sec
 * total energy  :   -83.8459934 Eh     change       -0.1453969E-03 Eh
   gradient norm :     0.0047506 Eh/α   predicted    -0.1029469E-03 ( -29.20%)
   displ. norm   :     0.5117750 α      lambda       -0.2241738E-03
   maximum displ.:     0.3191091 α      in ANC's #3, #1, #11, ...

........................................................................
.............................. CYCLE   33 ..............................
........................................................................
   1    -84.6024460 -0.846024E+02  0.471E-02    0.16       0.0  T
   2    -84.5794522  0.229938E-01  0.424E-01    0.05       1.0  T
   3    -84.6025699 -0.231177E-01  0.301E-02    0.16       1.0  T
   4    -84.6026599 -0.899965E-04  0.155E-02    0.15       1.0  T
   5    -84.6026860 -0.261326E-04  0.518E-03    0.14       2.9  T
   6    -84.6026885 -0.247486E-05  0.239E-03    0.14       6.4  T
   7    -84.6026891 -0.618360E-06  0.957E-04    0.14      15.9  T
   8    -84.6026892 -0.113537E-06  0.150E-04    0.14     101.9  T
   9    -84.6026892 -0.269864E-08  0.106E-05    0.14    1435.3  T
     SCC iter.                  ...        0 min,  0.032 sec
     gradient                   ...        0 min,  0.085 sec
 * total energy  :   -83.8461614 Eh     change       -0.1680193E-03 Eh
   gradient norm :     0.0071010 Eh/α   predicted    -0.1414477E-03 ( -15.81%)
   displ. norm   :     0.3968852 α      lambda       -0.2450498E-03
   maximum displ.:     0.2363792 α      in ANC's #3, #1, #11, ...

........................................................................
.............................. CYCLE   34 ..............................
........................................................................
   1    -84.6044086 -0.846044E+02  0.367E-02    0.16       0.0  T
   2    -84.5943992  0.100094E-01  0.282E-01    0.07       1.0  T
   3    -84.6045095 -0.101103E-01  0.198E-02    0.15       1.0  T
   4    -84.6045496 -0.401152E-04  0.893E-03    0.15       1.7  T
   5    -84.6045585 -0.895948E-05  0.110E-03    0.14      13.8  T
   6    -84.6045582  0.296633E-06  0.158E-03    0.14       9.7  T
   7    -84.6045585 -0.301519E-06  0.430E-04    0.14      35.5  T
   8    -84.6045586 -0.225146E-07  0.384E-05    0.14     397.2  T
   9    -84.6045586 -0.104691E-09  0.796E-06    0.14    1915.1  T
     SCC iter.                  ...        0 min,  0.032 sec
     gradient                   ...        0 min,  0.085 sec
 * total energy  :   -83.8463265 Eh     change       -0.1650865E-03 Eh
   gradient norm :     0.0059953 Eh/α   predicted    -0.1418254E-03 ( -14.09%)
   displ. norm   :     0.4575700 α      lambda       -0.1980364E-03
   maximum displ.:     0.2808118 α      in ANC's #3, #1, #11, ...

........................................................................
.............................. CYCLE   35 ..............................
........................................................................
   1    -84.6028499 -0.846028E+02  0.408E-02    0.17       0.0  T
   2    -84.5907692  0.120807E-01  0.310E-01    0.07       1.0  T
   3    -84.6029588 -0.121896E-01  0.236E-02    0.16       1.0  T
   4    -84.6030163 -0.575610E-04  0.109E-02    0.15       1.4  T
   5    -84.6030299 -0.135850E-04  0.110E-03    0.15      13.8  T
   6    -84.6030291  0.783709E-06  0.249E-03    0.15       6.1  T
   7    -84.6030299 -0.705539E-06  0.832E-04    0.15      18.3  T
   8    -84.6030299 -0.859447E-07  0.733E-05    0.15     208.1  T
   9    -84.6030299 -0.577714E-09  0.994E-06    0.15    1533.6  T
     SCC iter.                  ...        0 min,  0.032 sec
     gradient                   ...        0 min,  0.085 sec
 * total energy  :   -83.8464338 Eh     change       -0.1072586E-03 Eh
   gradient norm :     0.0065093 Eh/α   predicted    -0.1197500E-03 (  11.65%)
   displ. norm   :     0.2053483 α      lambda       -0.2509947E-03
   maximum displ.:     0.0918178 α      in ANC's #1, #11, #5, ...

........................................................................
.............................. CYCLE   36 ..............................
........................................................................
   1    -84.6077198 -0.846077E+02  0.153E-02    0.15       0.0  T
   2    -84.6072003  0.519504E-03  0.657E-02    0.12       1.0  T
   3    -84.6077391 -0.538812E-03  0.611E-03    0.15       2.5  T
   4    -84.6077396 -0.555378E-06  0.347E-03    0.15       4.4  T
   5    -84.6077403 -0.689336E-06  0.103E-03    0.15      14.7  T
   6    -84.6077404 -0.722069E-07  0.248E-04    0.15      61.6  T
   7    -84.6077404 -0.599306E-08  0.400E-05    0.15     381.5  T
   8    -84.6077404 -0.156319E-11  0.235E-05    0.15     648.0  T
     SCC iter.                  ...        0 min,  0.028 sec
     gradient                   ...        0 min,  0.086 sec
 * total energy  :   -83.8465393 Eh     change       -0.1054990E-03 Eh
   gradient norm :     0.0075653 Eh/α   predicted    -0.1307943E-03 (  23.98%)
   displ. norm   :     0.4028709 α      lambda       -0.2181459E-03
   maximum displ.:     0.2152824 α      in ANC's #3, #11, #1, ...

........................................................................
.............................. CYCLE   37 ..............................
........................................................................
   1    -84.6052322 -0.846052E+02  0.415E-02    0.17       0.0  T
   2    -84.5946677  0.105645E-01  0.292E-01    0.07       1.0  T
   3    -84.6053540 -0.106863E-01  0.222E-02    0.16       1.0  T
   4    -84.6054083 -0.542673E-04  0.918E-03    0.16       1.7  T
   5    -84.6054149 -0.660547E-05  0.443E-03    0.15       3.4  T
   6    -84.6054155 -0.620155E-06  0.349E-03    0.15       4.4  T
   7    -84.6054170 -0.144715E-05  0.870E-04    0.15      17.5  T
   8    -84.6054171 -0.901159E-07  0.163E-04    0.15      93.5  T
   9    -84.6054171 -0.280500E-08  0.490E-05    0.15     311.4  T
     SCC iter.                  ...        0 min,  0.031 sec
     gradient                   ...        0 min,  0.085 sec
 * total energy  :   -83.8466439 Eh     change       -0.1046299E-03 Eh
   gradient norm :     0.0071549 Eh/α   predicted    -0.1267777E-03 (  21.17%)
   displ. norm   :     0.0983377 α      lambda       -0.1112602E-03
   maximum displ.:     0.0490227 α      in ANC's #1, #3, #11, ...

........................................................................
.............................. CYCLE   38 ..............................
........................................................................
   1    -84.6053659 -0.846054E+02  0.556E-03    0.15       0.0  T
   2    -84.6053641  0.174560E-05  0.576E-03    0.15       2.6  T
   3    -84.6053598  0.433772E-05  0.823E-03    0.15       1.9  T
   4    -84.6053676 -0.778559E-05  0.180E-03    0.15       8.5  T
   5    -84.6053677 -0.150622E-06  0.656E-04    0.15      23.2  T
   6    -84.6053677 -0.223678E-07  0.160E-04    0.15      95.4  T
   7    -84.6053677 -0.226628E-08  0.243E-05    0.15     628.3  T
     SCC iter.                  ...        0 min,  0.024 sec
     gradient                   ...        0 min,  0.085 sec
 * total energy  :   -83.8467243 Eh     change       -0.8040908E-04 Eh
   gradient norm :     0.0038106 Eh/α   predicted    -0.5617182E-04 ( -30.14%)
   displ. norm   :     0.2263871 α      lambda       -0.1278170E-03
   maximum displ.:     0.1020353 α      in ANC's #1, #11, #3, ...

........................................................................
.............................. CYCLE   39 ..............................
........................................................................
   1    -84.6048177 -0.846048E+02  0.116E-02    0.15       0.0  T
   2    -84.6046577  0.159999E-03  0.383E-02    0.14       1.0  T
   3    -84.6048217 -0.163914E-03  0.697E-03    0.15       2.2  T
   4    -84.6048272 -0.549308E-05  0.235E-03    0.15       6.5  T
   5    -84.6048274 -0.259434E-06  0.806E-04    0.15      18.9  T
   6    -84.6048274 -0.344860E-07  0.122E-04    0.15     124.5  T
   7    -84.6048274 -0.489919E-09  0.388E-05    0.15     393.2  T
     SCC iter.                  ...        0 min,  0.025 sec
     gradient                   ...        0 min,  0.085 sec
 * total energy  :   -83.8467976 Eh     change       -0.7324693E-04 Eh
   gradient norm :     0.0046928 Eh/α   predicted    -0.6718509E-04 (  -8.28%)
   displ. norm   :     0.1741554 α      lambda       -0.7433735E-04
   maximum displ.:     0.0862335 α      in ANC's #11, #1, #4, ...

........................................................................
.............................. CYCLE   40 ..............................
........................................................................
   1    -84.6062490 -0.846062E+02  0.589E-03    0.15       0.0  T
   2    -84.6062385  0.104814E-04  0.104E-02    0.15       1.5  T
   3    -84.6062455 -0.704016E-05  0.660E-03    0.15       2.3  T
   4    -84.6062502 -0.460295E-05  0.143E-03    0.15      10.7  T
   5    -84.6062502 -0.339947E-07  0.527E-04    0.15      29.0  T
   6    -84.6062502 -0.225944E-07  0.100E-04    0.15     152.2  T
   7    -84.6062502 -0.479972E-09  0.299E-05    0.15     510.0  T
     SCC iter.                  ...        0 min,  0.025 sec
     gradient                   ...        0 min,  0.085 sec
 * total energy  :   -83.8468318 Eh     change       -0.3428883E-04 Eh
   gradient norm :     0.0047844 Eh/α   predicted    -0.3829909E-04 (  11.70%)
   displ. norm   :     0.1402807 α      lambda       -0.5172085E-04
   maximum displ.:     0.0741480 α      in ANC's #1, #11, #3, ...

........................................................................
.............................. CYCLE   41 ..............................
........................................................................
   1    -84.6058351 -0.846058E+02  0.787E-03    0.16       0.0  T
   2    -84.6057142  0.120908E-03  0.328E-02    0.14       1.0  T
   3    -84.6058408 -0.126558E-03  0.225E-03    0.15       6.8  T
   4    -84.6058413 -0.467410E-06  0.115E-03    0.15      13.3  T
   5    -84.6058413 -0.643046E-07  0.520E-04    0.15      29.3  T
   6    -84.6058414 -0.206208E-07  0.672E-05    0.15     227.1  T
   7    -84.6058414 -0.667768E-10  0.326E-05    0.15     467.6  T
     SCC iter.                  ...        0 min,  0.025 sec
     gradient                   ...        0 min,  0.085 sec
 * total energy  :   -83.8468714 Eh     change       -0.3960193E-04 Eh
   gradient norm :     0.0031933 Eh/α   predicted    -0.2637038E-04 ( -33.41%)
   displ. norm   :     0.2090897 α      lambda       -0.7688366E-04
   maximum displ.:     0.1133591 α      in ANC's #1, #11, #7, ...

........................................................................
.............................. CYCLE   42 ..............................
........................................................................
   1    -84.6063853 -0.846064E+02  0.129E-02    0.16       0.0  T
   2    -84.6060246  0.360688E-03  0.561E-02    0.13       1.0  T
   3    -84.6063987 -0.374113E-03  0.483E-03    0.16       3.2  T
   4    -84.6064017 -0.295156E-05  0.877E-04    0.15      17.4  T
   5    -84.6064017  0.180848E-07  0.651E-04    0.15      23.4  T
   6    -84.6064017 -0.210677E-07  0.236E-04    0.15      64.6  T
   7    -84.6064017 -0.537598E-08  0.519E-05    0.15     293.6  T
   8    -84.6064017 -0.209411E-09  0.155E-05    0.15     983.7  T
     SCC iter.                  ...        0 min,  0.032 sec
     gradient                   ...        0 min,  0.088 sec
 * total energy  :   -83.8469176 Eh     change       -0.4611257E-04 Eh
   gradient norm :     0.0034844 Eh/α   predicted    -0.4012763E-04 ( -12.98%)
   displ. norm   :     0.3116263 α      lambda       -0.5697631E-04
   maximum displ.:     0.1730022 α      in ANC's #1, #11, #3, ...
 * RMSD in coord.:     0.8206695 α      energy gain  -0.2910749E-02 Eh

generating ANC from model Hessian ...
Using Lindh-Hessian (1995)
 Shifting diagonal of input Hessian by   9.786601245225490E-003
 Lowest  eigenvalues of input Hessian
    0.000000    0.000000    0.000000    0.000000    0.000000    0.000000
    0.010000    0.010041    0.010332    0.011096    0.011622    0.011964
    0.012434    0.012681    0.013306    0.014141    0.014669    0.015768
 Highest eigenvalues
    2.023711    2.028662    2.164940    2.175628    2.347590    2.384816
 

........................................................................
.............................. CYCLE   43 ..............................
........................................................................
   1    -84.6039422 -0.846039E+02  0.265E-02    0.17       0.0  T
   2    -84.6016150  0.232716E-02  0.140E-01    0.11       1.0  T
   3    -84.6039982 -0.238322E-02  0.116E-02    0.16       1.3  T
   4    -84.6040143 -0.160826E-04  0.294E-03    0.16       5.2  T
   5    -84.6040136  0.697584E-06  0.315E-03    0.15       4.8  T
   6    -84.6040144 -0.828478E-06  0.156E-03    0.15       9.8  T
   7    -84.6040147 -0.299280E-06  0.107E-04    0.16     143.1  T
   8    -84.6040147 -0.819426E-09  0.283E-05    0.16     538.9  T
     SCC iter.                  ...        0 min,  0.030 sec
     gradient                   ...        0 min,  0.085 sec
 * total energy  :   -83.8469138 Eh     change        0.3797419E-05 Eh
   gradient norm :     0.0070119 Eh/α   predicted     0.0000000E+00 (-100.00%)
   displ. norm   :     0.0468363 α      lambda       -0.1213930E-03
   maximum displ.:     0.0173158 α      in ANC's #6, #3, #7, ...

........................................................................
.............................. CYCLE   44 ..............................
........................................................................
   1    -84.6062349 -0.846062E+02  0.675E-03    0.16       0.0  T
   2    -84.6062027  0.321590E-04  0.170E-02    0.15       1.0  T
   3    -84.6062360 -0.333127E-04  0.390E-03    0.16       3.9  T
   4    -84.6062369 -0.847086E-06  0.115E-03    0.16      13.2  T
   5    -84.6062370 -0.902993E-07  0.205E-04    0.16      74.5  T
   6    -84.6062370 -0.667100E-09  0.698E-05    0.16     218.4  T
   7    -84.6062370 -0.485187E-09  0.117E-05    0.16    1307.0  T
     SCC iter.                  ...        0 min,  0.024 sec
     gradient                   ...        0 min,  0.085 sec
 * total energy  :   -83.8469982 Eh     change       -0.8444649E-04 Eh
   gradient norm :     0.0020605 Eh/α   predicted    -0.6134725E-04 ( -27.35%)
   displ. norm   :     0.0758236 α      lambda       -0.5988121E-04
   maximum displ.:     0.0309708 α      in ANC's #6, #3, #7, ...

........................................................................
.............................. CYCLE   45 ..............................
........................................................................
   1    -84.6074461 -0.846074E+02  0.615E-03    0.16       0.0  T
   2    -84.6073925  0.535536E-04  0.217E-02    0.15       1.0  T
   3    -84.6074491 -0.565404E-04  0.215E-03    0.16       7.1  T
   4    -84.6074494 -0.304680E-06  0.753E-04    0.16      20.3  T
   5    -84.6074494 -0.135793E-08  0.370E-04    0.16      41.3  T
   6    -84.6074494 -0.122170E-07  0.574E-05    0.16     265.6  T
   7    -84.6074494 -0.821245E-10  0.144E-05    0.16    1059.1  T
     SCC iter.                  ...        0 min,  0.024 sec
     gradient                   ...        0 min,  0.085 sec
 * total energy  :   -83.8470429 Eh     change       -0.4466647E-04 Eh
   gradient norm :     0.0017695 Eh/α   predicted    -0.3011407E-04 ( -32.58%)
   displ. norm   :     0.2247555 α      lambda       -0.7377407E-04
   maximum displ.:     0.0960362 α      in ANC's #6, #7, #3, ...

........................................................................
.............................. CYCLE   46 ..............................
........................................................................
   1    -84.6080569 -0.846081E+02  0.150E-02    0.16       0.0  T
   2    -84.6075837  0.473234E-03  0.641E-02    0.13       1.0  T
   3    -84.6080765 -0.492883E-03  0.553E-03    0.16       2.8  T
   4    -84.6080798 -0.329446E-05  0.180E-03    0.16       8.5  T
   5    -84.6080800 -0.149689E-06  0.862E-04    0.16      17.7  T
   6    -84.6080800 -0.470202E-07  0.190E-04    0.16      80.1  T
   7    -84.6080800 -0.101925E-08  0.666E-05    0.16     229.0  T
     SCC iter.                  ...        0 min,  0.024 sec
     gradient                   ...        0 min,  0.085 sec
 * total energy  :   -83.8471238 Eh     change       -0.8094228E-04 Eh
   gradient norm :     0.0041461 Eh/α   predicted    -0.3773377E-04 ( -53.38%)
   displ. norm   :     0.2465446 α      lambda       -0.9636161E-04
   maximum displ.:     0.1144728 α      in ANC's #7, #6, #12, ...

........................................................................
.............................. CYCLE   47 ..............................
........................................................................
   1    -84.6068550 -0.846069E+02  0.158E-02    0.17       0.0  T
   2    -84.6063884  0.466557E-03  0.641E-02    0.13       1.0  T
   3    -84.6068745 -0.486100E-03  0.643E-03    0.16       2.4  T
   4    -84.6068789 -0.444053E-05  0.204E-03    0.16       7.5  T
   5    -84.6068790 -0.400823E-07  0.789E-04    0.16      19.3  T
   6    -84.6068790 -0.561023E-07  0.107E-04    0.16     143.0  T
   7    -84.6068790  0.427036E-10  0.642E-05    0.16     237.6  T
     SCC iter.                  ...        0 min,  0.024 sec
     gradient                   ...        0 min,  0.085 sec
 * total energy  :   -83.8471935 Eh     change       -0.6971746E-04 Eh
   gradient norm :     0.0037230 Eh/α   predicted    -0.5116410E-04 ( -26.61%)
   displ. norm   :     0.1908856 α      lambda       -0.5642914E-04
   maximum displ.:     0.0945807 α      in ANC's #7, #6, #3, ...

........................................................................
.............................. CYCLE   48 ..............................
........................................................................
   1    -84.6058027 -0.846058E+02  0.108E-02    0.16       0.0  T
   2    -84.6056308  0.171835E-03  0.394E-02    0.14       1.0  T
   3    -84.6058115 -0.180681E-03  0.419E-03    0.16       3.6  T
   4    -84.6058134 -0.184772E-05  0.129E-03    0.16      11.8  T
   5    -84.6058133  0.110063E-07  0.500E-04    0.16      30.5  T
   6    -84.6058134 -0.250810E-07  0.106E-04    0.16     143.4  T
   7    -84.6058134 -0.836039E-09  0.343E-05    0.16     444.8  T
     SCC iter.                  ...        0 min,  0.024 sec
     gradient                   ...        0 min,  0.085 sec
 * total energy  :   -83.8472240 Eh     change       -0.3049054E-04 Eh
   gradient norm :     0.0040859 Eh/α   predicted    -0.2924960E-04 (  -4.07%)
   displ. norm   :     0.0445017 α      lambda       -0.4967578E-04
   maximum displ.:     0.0234985 α      in ANC's #4, #7, #13, ...

........................................................................
.............................. CYCLE   49 ..............................
........................................................................
   1    -84.6064840 -0.846065E+02  0.335E-03    0.16       0.0  T
   2    -84.6064806  0.346840E-05  0.615E-03    0.16       2.5  T
   3    -84.6064843 -0.371590E-05  0.208E-03    0.16       7.3  T
   4    -84.6064845 -0.227283E-06  0.824E-04    0.16      18.5  T
   5    -84.6064845 -0.261848E-08  0.290E-04    0.16      52.6  T
   6    -84.6064845 -0.847747E-08  0.587E-05    0.16     259.9  T
   7    -84.6064845 -0.340066E-09  0.133E-05    0.16    1142.3  T
     SCC iter.                  ...        0 min,  0.026 sec
     gradient                   ...        0 min,  0.085 sec
 * total energy  :   -83.8472569 Eh     change       -0.3290433E-04 Eh
   gradient norm :     0.0024134 Eh/α   predicted    -0.2488785E-04 ( -24.36%)
   displ. norm   :     0.0762728 α      lambda       -0.2755063E-04
   maximum displ.:     0.0410600 α      in ANC's #4, #7, #6, ...

........................................................................
.............................. CYCLE   50 ..............................
........................................................................
   1    -84.6068295 -0.846068E+02  0.380E-03    0.16       0.0  T
   2    -84.6068141  0.153858E-04  0.120E-02    0.15       1.3  T
   3    -84.6068306 -0.164488E-04  0.145E-03    0.16      10.5  T
   4    -84.6068308 -0.175970E-06  0.492E-04    0.16      31.0  T
   5    -84.6068308 -0.213261E-08  0.178E-04    0.16      85.8  T
   6    -84.6068308 -0.512131E-09  0.498E-05    0.16     306.2  T
     SCC iter.                  ...        0 min,  0.021 sec
     gradient                   ...        0 min,  0.085 sec
 * total energy  :   -83.8472769 Eh     change       -0.1995880E-04 Eh
   gradient norm :     0.0022648 Eh/α   predicted    -0.1385565E-04 ( -30.58%)
   displ. norm   :     0.0834601 α      lambda       -0.2289974E-04
   maximum displ.:     0.0460535 α      in ANC's #4, #7, #6, ...

........................................................................
.............................. CYCLE   51 ..............................
........................................................................
   1    -84.6070837 -0.846071E+02  0.522E-03    0.16       0.0  T
   2    -84.6070417  0.419614E-04  0.196E-02    0.15       1.0  T
   3    -84.6070866 -0.448597E-04  0.899E-04    0.16      17.0  T
   4    -84.6070867 -0.546793E-07  0.423E-04    0.16      36.0  T
   5    -84.6070867 -0.470729E-08  0.186E-04    0.16      82.0  T
   6    -84.6070867 -0.155677E-08  0.623E-05    0.16     244.6  T
     SCC iter.                  ...        0 min,  0.021 sec
     gradient                   ...        0 min,  0.085 sec
 * total energy  :   -83.8472934 Eh     change       -0.1653465E-04 Eh
   gradient norm :     0.0016677 Eh/α   predicted    -0.1153307E-04 ( -30.25%)
   displ. norm   :     0.1281896 α      lambda       -0.1597988E-04
   maximum displ.:     0.0689718 α      in ANC's #4, #7, #6, ...

........................................................................
.............................. CYCLE   52 ..............................
........................................................................
   1    -84.6070167 -0.846070E+02  0.796E-03    0.16       0.0  T
   2    -84.6069081  0.108613E-03  0.315E-02    0.14       1.0  T
   3    -84.6070238 -0.115670E-03  0.125E-03    0.16      12.2  T
   4    -84.6070239 -0.121375E-06  0.652E-04    0.16      23.4  T
   5    -84.6070239 -0.503735E-08  0.395E-04    0.16      38.6  T
   6    -84.6070239 -0.108755E-07  0.700E-05    0.16     217.9  T
   7    -84.6070239 -0.344755E-09  0.195E-05    0.16     782.0  T
     SCC iter.                  ...        0 min,  0.025 sec
     gradient                   ...        0 min,  0.085 sec
 * total energy  :   -83.8473064 Eh     change       -0.1298546E-04 Eh
   gradient norm :     0.0015207 Eh/α   predicted    -0.8060040E-05 ( -37.93%)
   displ. norm   :     0.0256141 α      lambda       -0.5498377E-05
   maximum displ.:     0.0099403 α      in ANC's #4, #5, #1, ...

........................................................................
.............................. CYCLE   53 ..............................
........................................................................
   1    -84.6073303 -0.846073E+02  0.141E-03    0.16       0.0  T
   2    -84.6073304 -0.659843E-08  0.812E-04    0.16      18.8  T
   3    -84.6073300  0.343499E-06  0.187E-03    0.16       8.1  T
   4    -84.6073304 -0.392765E-06  0.250E-04    0.16      61.1  T
   5    -84.6073304 -0.466756E-09  0.119E-04    0.16     128.4  T
   6    -84.6073304 -0.618883E-09  0.290E-05    0.16     526.4  T
     SCC iter.                  ...        0 min,  0.021 sec
     gradient                   ...        0 min,  0.086 sec
 * total energy  :   -83.8473118 Eh     change       -0.5423296E-05 Eh
   gradient norm :     0.0007506 Eh/α   predicted    -0.2753653E-05 ( -49.23%)
   displ. norm   :     0.0803298 α      lambda       -0.6410598E-05
   maximum displ.:     0.0328912 α      in ANC's #4, #10, #12, ...

........................................................................
.............................. CYCLE   54 ..............................
........................................................................
   1    -84.6069445 -0.846069E+02  0.292E-03    0.16       0.0  T
   2    -84.6069411  0.346373E-05  0.610E-03    0.16       2.5  T
   3    -84.6069446 -0.357144E-05  0.204E-03    0.16       7.5  T
   4    -84.6069450 -0.390857E-06  0.731E-04    0.16      20.9  T
   5    -84.6069450 -0.146602E-07  0.291E-04    0.16      52.4  T
   6    -84.6069450 -0.453791E-08  0.572E-05    0.16     266.4  T
   7    -84.6069450 -0.142222E-09  0.116E-05    0.16    1313.3  T
     SCC iter.                  ...        0 min,  0.024 sec
     gradient                   ...        0 min,  0.085 sec
 * total energy  :   -83.8473149 Eh     change       -0.3062286E-05 Eh
   gradient norm :     0.0013130 Eh/α   predicted    -0.3216351E-05 (   5.03%)
   displ. norm   :     0.0250173 α      lambda       -0.3372205E-05
   maximum displ.:     0.0149786 α      in ANC's #7, #6, #3, ...

........................................................................
.............................. CYCLE   55 ..............................
........................................................................
   1    -84.6073398 -0.846073E+02  0.222E-03    0.16       0.0  T
   2    -84.6073352  0.462155E-05  0.670E-03    0.16       2.3  T
   3    -84.6073402 -0.504168E-05  0.665E-04    0.16      22.9  T
   4    -84.6073402  0.699740E-08  0.402E-04    0.16      37.9  T
   5    -84.6073402 -0.890215E-08  0.130E-04    0.16     117.7  T
   6    -84.6073402 -0.194227E-08  0.130E-05    0.16    1170.4  T
     SCC iter.                  ...        0 min,  0.021 sec
     gradient                   ...        0 min,  0.086 sec
 * total energy  :   -83.8473182 Eh     change       -0.3314617E-05 Eh
   gradient norm :     0.0005258 Eh/α   predicted    -0.1687160E-05 ( -49.10%)
   displ. norm   :     0.0304944 α      lambda       -0.2245701E-05
   maximum displ.:     0.0139977 α      in ANC's #1, #10, #2, ...

   *** GEOMETRY OPTIMIZATION CONVERGED AFTER 55 ITERATIONS ***

------------------------------------------------------------------------
[...]
H30-C5-O4=110.81               H30-C5-H29=109.19              H31-C5-O4=111.13               H31-C5-H29=109.41              
H31-C5-H30=109.03              N7-C6-C3=115.01                C24-C6-C3=126.82               C24-C6-N7=118.17               
C8-N7-C6=119.21                C9-C8-N7=119.28                N21-C8-N7=124.06               N21-C8-C9=116.59               
C10-C9-C8=108.84               C11-C9-C8=110.58               C11-C9-C10=110.55              N12-C9-C8=109.37               
N12-C9-C10=107.31              N12-C9-C11=110.11              H32-C10-C9=110.29              H33-C10-C9=109.70              
H33-C10-H32=108.90             H34-C10-C9=110.25              H34-C10-H32=108.87             H34-C10-H33=108.81             
 
 selected dihedral angles (degree)
 ---------------------------------
C3-O2-C1-H26=294.21           C3-O2-C1-H27= 55.96           C3-O2-C1-H28=175.30           O4-C3-O2-C1=263.39            
C6-C3-O2-C1= 79.96            C5-O4-C3-O2=303.57            C5-O4-C3-C6=127.02            H29-C5-O4-C3=176.88           
H30-C5-O4-C3= 57.80           H31-C5-O4-C3=296.41           N7-C6-C3-O2=357.95            N7-C6-C3-O4=174.22            
C24-C6-C3-O2=178.38           C24-C6-C3-O4=354.65           C8-N7-C6-C3=179.63            C8-N7-C6-C24=359.24           
C9-C8-N7-C6=182.37            N21-C8-N7-C6=359.29           C10-C9-C8-N7=102.49           C10-C9-C8-N21=285.34          
C11-C9-C8-N7=340.87           C11-C9-C8-N21=163.72          N12-C9-C8-N7=219.44           N12-C9-C8-N21= 42.29          
H32-C10-C9-C8= 59.46          H32-C10-C9-C11=181.10         H32-C10-C9-N12=301.20         H33-C10-C9-C8=299.51          
H33-C10-C9-C11= 61.15         H33-C10-C9-N12=181.25         H34-C10-C9-C8=179.71          H34-C10-C9-C11=301.35         
H34-C10-C9-N12= 61.45         
           -------------------------------------------------
          |                Final Singlepoint                |
           -------------------------------------------------

          ...................................................
          :                      SETUP                      :
          :.................................................:
          :  # basis functions                 136          :
          :  # atomic orbitals                 136          :
          :  # shells                           86          :
          :  # electrons                       136          :
          :  # halogen bonds                     0          :
          :  max. iterations                   250          :
          :  Hamiltonian                  GFN1-xTB          :
          :  restarted?                      false          :
          :  GBSA solvation                   true          :
          :  PC potential                    false          :
          :  electronic temp.          300.0000000     K    :
          :  accuracy                    1.0000000          :
          :  -> integral cutoff          0.2500000E+02      :
          :  -> integral neglect         0.1000000E-07      :
          :  -> SCF convergence          0.1000000E-05 Eh   :
          :  -> wf. convergence          0.2000000E-04 e    :
          :  Broyden damping             0.4000000          :
          ...................................................

 iter      E             dE          RMSdq      gap      omega  full diag
   1    -84.6073402 -0.846073E+02  0.677E-06    0.16       0.0  T
   2    -84.6073402  0.385398E-10  0.189E-05    0.16     807.2  T
   3    -84.6073402 -0.417089E-10  0.257E-06    0.16    5925.3  T

   *** convergence criteria satisfied after 3 iterations ***

         #    Occupation            Energy/Eh            Energy/eV
      -------------------------------------------------------------
         1        2.0000           -0.8520653             -23.1859
       ...           ...                  ...                  ...
        62        2.0000           -0.4382377             -11.9251
        63        2.0000           -0.4306362             -11.7182
        64        2.0000           -0.4225069             -11.4970
        65        2.0000           -0.3918809             -10.6636
        66        2.0000           -0.3880579             -10.5596
        67        2.0000           -0.3708033             -10.0901
        68        1.9135           -0.3031109              -8.2481 (HOMO)
        69        0.0865           -0.2972265              -8.0879 (LUMO)
        70                         -0.2461368              -6.6977
        71                         -0.2254424              -6.1346
        72                         -0.1920334              -5.2255
        73                         -0.1832465              -4.9864
       ...                                ...                  ...
       136                          0.7299843              19.8639
      -------------------------------------------------------------
                  HL-Gap            0.0058844 Eh            0.1601 eV
             Fermi-level           -0.3001687 Eh           -8.1680 eV

 SCC (total)                   0 d,  0 h,  0 min,  0.135 sec
 SCC setup                      ...        0 min,  0.002 sec (  1.395%)
 Dispersion                     ...        0 min,  0.000 sec (  0.251%)
 classical contributions        ...        0 min,  0.000 sec (  0.083%)
 integral evaluation            ...        0 min,  0.036 sec ( 26.409%)
 iterations                     ...        0 min,  0.011 sec (  8.105%)
 molecular gradient             ...        0 min,  0.085 sec ( 63.128%)
 printout                       ...        0 min,  0.001 sec (  0.603%)

         :::::::::::::::::::::::::::::::::::::::::::::::::::::
         ::                     SUMMARY                     ::
         :::::::::::::::::::::::::::::::::::::::::::::::::::::
         :: total energy             -83.847318209276 Eh    ::
         :: total w/o Gsasa/hb       -83.824999278139 Eh    ::
         :: gradient norm              0.000526034102 Eh/a0 ::
         :: HOMO-LUMO gap              0.160121464259 eV    ::
         ::.................................................::
         :: SCC energy               -84.607340220107 Eh    ::
         :: -> electrostatic           0.463087937063 Eh    ::
         :: -> Gsolv                  -0.134045000671 Eh    ::
         ::    -> Gelec               -0.111726069533 Eh    ::
         ::    -> Gsasa               -0.024785603009 Eh    ::
         ::    -> Ghb                 -0.005157607133 Eh    ::
         ::    -> Gshift               0.007624279005 Eh    ::
         :: repulsion energy           0.786594324555 Eh    ::
         :: dispersion energy         -0.026572313725 Eh    ::
         :: halogen bond corr.         0.000000000000 Eh    ::
         :: add. restraining           0.000000000000 Eh    ::
         :: total charge              -1.000000000000 e     ::
         :::::::::::::::::::::::::::::::::::::::::::::::::::::

           -------------------------------------------------
          |                Property Printout                |
           -------------------------------------------------

    * Orbital Energies and Occupations

         #    Occupation            Energy/Eh            Energy/eV
      -------------------------------------------------------------
         1        2.0000           -0.8520653             -23.1859
       ...           ...                  ...                  ...
        56        2.0000           -0.4695463             -12.7770
        57        2.0000           -0.4659705             -12.6797
        58        2.0000           -0.4507704             -12.2661
        59        2.0000           -0.4467238             -12.1560
        60        2.0000           -0.4423277             -12.0364
        61        2.0000           -0.4390944             -11.9484
        62        2.0000           -0.4382377             -11.9251
        63        2.0000           -0.4306362             -11.7182
        64        2.0000           -0.4225069             -11.4970
        65        2.0000           -0.3918809             -10.6636
        66        2.0000           -0.3880579             -10.5596
        67        2.0000           -0.3708033             -10.0901
        68        1.9135           -0.3031109              -8.2481 (HOMO)
        69        0.0865           -0.2972265              -8.0879 (LUMO)
        70                         -0.2461368              -6.6977
        71                         -0.2254424              -6.1346
        72                         -0.1920334              -5.2255
        73                         -0.1832465              -4.9864
        74                         -0.1372895              -3.7358
        75                         -0.1199338              -3.2636
        76                         -0.1187745              -3.2320
        77                         -0.1156546              -3.1471
        78                         -0.1059553              -2.8832
        79                         -0.0903118              -2.4575
       ...                                ...                  ...
       136                          0.7299843              19.8639
      -------------------------------------------------------------
                  HL-Gap            0.0058844 Eh            0.1601 eV
             Fermi-level           -0.3001687 Eh           -8.1680 eV

  Mulliken/CM5 charges         n(s)   n(p)   n(d)
     1C     0.17227  0.05313   0.973  2.855  0.000
     2O    -0.48452 -0.56730   1.691  4.793  0.000
     3C     0.31736  0.36461   0.932  2.750  0.000
     4O    -0.48265 -0.57805   1.698  4.785  0.000
     5C     0.17137  0.05132   0.972  2.856  0.000
     6C     0.05020  0.11862   1.048  2.902  0.000
     7N    -0.43091 -0.61598   1.537  3.894  0.000
     8C     0.28402  0.43994   1.004  2.712  0.000
     9C     0.15055  0.19070   1.065  2.785  0.000
    10C    -0.10847 -0.24906   1.021  3.088  0.000
    11C    -0.09254 -0.23083   1.013  3.079  0.000
    12N    -0.34897 -0.70544   1.434  3.915  0.000
    13C     0.45787  0.56674   0.975  2.568  0.000
    14O    -0.59610 -0.63579   1.729  4.867  0.000
    15C     0.32306  0.44739   1.009  2.668  0.000
    16N    -0.24214 -0.34491   1.569  3.673  0.000
    17N    -0.27807 -0.38598   1.566  3.712  0.000
    18C     0.38642  0.49527   1.004  2.609  0.000
    19C    -0.11162 -0.24906   1.011  3.100  0.000
    20O    -0.36519 -0.42147   1.698  4.667  0.000
    21N    -0.34879 -0.68892   1.433  3.916  0.000
    22C     0.38431  0.47596   0.977  2.638  0.000
    23O    -0.71017 -0.74583   1.746  4.964  0.000
    24C     0.07867  0.10861   1.003  2.918  0.000
    25O    -0.58655 -0.77635   1.705  4.881  0.000
    26H     0.01115  0.07355   0.989  0.000  0.000
    27H     0.01236  0.07175   0.988  0.000  0.000
    28H     0.02089  0.08069   0.979  0.000  0.000
    29H     0.02610  0.08602   0.974  0.000  0.000
    30H     0.02125  0.08334   0.979  0.000  0.000
    31H     0.01406  0.07311   0.986  0.000  0.000
    32H     0.04465  0.10254   0.955  0.000  0.000
    33H     0.04520  0.09996   0.955  0.000  0.000
    34H     0.04595  0.10144   0.954  0.000  0.000
    35H     0.03204  0.08777   0.968  0.000  0.000
    36H     0.03651  0.09443   0.963  0.000  0.000
    37H     0.04542  0.10719   0.955  0.000  0.000
    38H     0.25682  0.46311   0.743  0.000  0.000
    39H     0.06493  0.12073   0.935  0.000  0.000
    40H     0.07551  0.12999   0.924  0.000  0.000
    41H     0.07540  0.12997   0.925  0.000  0.000
    42H     0.23343  0.44008   0.767  0.000  0.000
    43H     0.34893  0.53697   0.651  0.000  0.000

Wiberg/Mayer (AO) data.
largest (>0.10) Wiberg bond orders for each atom

 ---------------------------------------------------------------------------
     #   Z sym  total        # sym  WBO       # sym  WBO       # sym  WBO
 ---------------------------------------------------------------------------
     1   6 C    3.913 --    28 H    0.986    27 H    0.983    26 H    0.981
                             2 O    0.930
     2   8 O    2.014 --     3 C    0.947     1 C    0.930
     3   6 C    3.710 --     6 C    1.520     2 O    0.947     4 O    0.932
     4   8 O    2.047 --     3 C    0.932     5 C    0.931
     5   6 C    3.910 --    29 H    0.986    31 H    0.983    30 H    0.982
                             4 O    0.931
     6   6 C    3.952 --     3 C    1.520    24 C    1.173     7 N    1.071
     7   7 N    3.002 --     8 C    1.624     6 C    1.071    21 N    0.132
     8   6 C    3.947 --     7 N    1.624    21 N    1.195     9 C    0.965
     9   6 C    3.933 --    11 C    0.992    10 C    0.990     8 C    0.965
                            12 N    0.920
    10   6 C    3.993 --     9 C    0.990    33 H    0.985    32 H    0.984
                            34 H    0.984
    11   6 C    3.992 --     9 C    0.992    35 H    0.987    36 H    0.984
                            37 H    0.981
    12   7 N    3.328 --    13 C    1.243     9 C    0.920    38 H    0.899
                            14 O    0.171
    13   6 C    3.891 --    14 O    1.565    12 N    1.243    15 C    1.005
    14   8 O    1.855 --    13 C    1.565    12 N    0.171
    15   6 C    3.835 --    16 N    1.594    20 O    1.036    13 C    1.005
    16   7 N    2.953 --    15 C    1.594    17 N    1.192
    17   7 N    2.980 --    18 C    1.618    16 N    1.192
    18   6 C    3.861 --    17 N    1.618    20 O    1.068    19 C    1.030
    19   6 C    3.988 --    18 C    1.030    39 H    0.983    41 H    0.966
                            40 H    0.964
    20   8 O    2.294 --    18 C    1.068    15 C    1.036
    21   7 N    3.361 --     8 C    1.195    22 C    0.959    42 H    0.907
                             7 N    0.132
    22   6 C    3.896 --    23 O    1.413    24 C    1.369    21 N    0.959
    23   8 O    1.711 --    22 C    1.413    24 C    0.131
    24   6 C    3.807 --    22 C    1.369     6 C    1.173    25 O    0.966
                            23 O    0.131
    25   8 O    1.928 --    24 C    0.966    43 H    0.847
    26   1 H    1.030 --     1 C    0.981
    27   1 H    1.014 --     1 C    0.983
    28   1 H    1.019 --     1 C    0.986
    29   1 H    1.018 --     5 C    0.986
    30   1 H    1.021 --     5 C    0.982
    31   1 H    1.014 --     5 C    0.983
    32   1 H    1.002 --    10 C    0.984
    33   1 H    1.004 --    10 C    0.985
    34   1 H    0.999 --    10 C    0.984
    35   1 H    1.003 --    11 C    0.987
    36   1 H    1.016 --    11 C    0.984
    37   1 H    1.017 --    11 C    0.981
    38   1 H    0.941 --    12 N    0.899
    39   1 H    1.000 --    19 C    0.983
    40   1 H    0.998 --    19 C    0.964
    41   1 H    0.997 --    19 C    0.966
    42   1 H    0.959 --    21 N    0.907
    43   1 H    0.899 --    25 O    0.847
 ---------------------------------------------------------------------------

Topologies differ in total number of bonds
Writing topology from bond orders to xtbtopo.mol

 dipole moment from electron density (au)
     X       Y       Z   
   4.4334  -3.2324   5.3840  total (Debye):   19.539

           -------------------------------------------------
          |                Geometry Summary                 |
           -------------------------------------------------

      molecular mass/u    :      352.3231817
   center of mass at/Å    :        0.1167134       0.2691793      -0.3879407
  moments of inertia/u·Å² :        0.1112592E+04   0.4746872E+04   0.5075187E+04
rotational constants/cm⁻¹ :        0.1515168E-01   0.3551314E-02   0.3321579E-02

 * 35 selected distances

     #   Z          #   Z                                           value/Å
     1   6 C        2   8 O                                       1.4251830
     2   8 O        3   6 C                                       1.3931481
     4   8 O        5   6 C                                       1.4233069
     3   6 C        6   6 C                                       1.3676406
     7   7 N        8   6 C                                       1.2830168
     9   6 C       10   6 C                                       1.5318785 (max)
     9   6 C       11   6 C                                       1.5310587
     9   6 C       12   7 N                                       1.4670437
    12   7 N       13   6 C                                       1.3525055
    13   6 C       14   8 O                                       1.2239492
    15   6 C       16   7 N                                       1.3017935
    17   7 N       18   6 C                                       1.2950607
    18   6 C       19   6 C                                       1.4795443
    15   6 C       20   8 O                                       1.3555616
    18   6 C       20   8 O                                       1.3451455
     8   6 C       21   7 N                                       1.3529551
    22   6 C       24   6 C                                       1.3895497
     1   6 C       26   1 H                                       1.0977993
     1   6 C       27   1 H                                       1.0967724
     1   6 C       28   1 H                                       1.0914740
     5   6 C       29   1 H                                       1.0905587
     5   6 C       30   1 H                                       1.0958742
     5   6 C       31   1 H                                       1.0973354
    10   6 C       32   1 H                                       1.0889604
    10   6 C       33   1 H                                       1.0891633
    10   6 C       34   1 H                                       1.0884053
    11   6 C       35   1 H                                       1.0880837
    11   6 C       36   1 H                                       1.0892676
    11   6 C       37   1 H                                       1.0896295
    12   7 N       38   1 H                                       1.0043018
    19   6 C       39   1 H                                       1.0872290
    19   6 C       40   1 H                                       1.0897693
    19   6 C       41   1 H                                       1.0895632
    21   7 N       42   1 H                                       1.0051661
    25   8 O       43   1 H                                       0.9702372 (min)

 * 6 distinct bonds (by element types)

   Z      Z             #   av. dist./Å        max./Å        min./Å
   1 H    6 C          15     1.0913257     1.0977993     1.0872290
   6 C    6 C           5     1.4599343     1.5318785     1.3676406
   1 H    7 N           2     1.0047340     1.0051661     1.0043018
   6 C    7 N           6     1.3420625     1.4670437     1.2830168
   1 H    8 O           1     0.9702372     0.9702372     0.9702372
   6 C    8 O           6     1.3610490     1.4251830     1.2239492


optimized geometry written to: xtbopt.xyz


           -------------------------------------------------
          | TOTAL ENERGY              -83.847318209276 Eh   |
          | GRADIENT NORM               0.000526034102 Eh/α |
          | HOMO-LUMO GAP               0.160121464259 eV   |
           -------------------------------------------------

------------------------------------------------------------------------
 * finished run on 2023/06/20 at 14:55:13.049     
------------------------------------------------------------------------
 total:
 * wall-time:     0 d,  0 h,  0 min,  8.993 sec
 *  cpu-time:     0 d,  0 h,  0 min,  8.922 sec
 * ratio c/w:     0.992 speedup
 SCF:
 * wall-time:     0 d,  0 h,  0 min,  0.178 sec
 *  cpu-time:     0 d,  0 h,  0 min,  0.177 sec
 * ratio c/w:     0.998 speedup
 ANC optimizer:
 * wall-time:     0 d,  0 h,  0 min,  8.733 sec
 *  cpu-time:     0 d,  0 h,  0 min,  8.694 sec
 * ratio c/w:     0.996 speedup

