16
 energy: -34.130780637814 gnorm: 0.000868565085 xtb: 6.5.1 (579679a)
C           -3.09211556036695       -0.18118555597319       -0.06177489255579
O           -2.47950631686238        0.35857167752554        1.11009432993762
C           -1.24043605911667        0.94518766375456        0.96875240686537
Cl          -1.35051497687690        2.60310590722651        0.18465688965543
C           -0.18415870970244        0.15817898269152        0.48547063282407
N           -0.06534071687050       -1.16432565351930        0.63285043875447
N            1.24833792435400       -1.47271917077066        0.32113254962813
C            1.83820067504906       -0.37269689115255        0.01606437006890
C            3.25530971507335       -0.18768873120332       -0.39304219136438
O            1.01196109127399        0.71099733365195        0.09599090460876
H           -3.28858320674636        0.60646483228949       -0.79944932715870
H           -4.03891599507273       -0.63096498584270        0.24334265268258
H           -2.45570856148877       -0.95040107918169       -0.51942979212344
H            3.73047099052986       -1.16095865187259       -0.49600738165398
H            3.79894405364153        0.39621412582193        0.35121195416623
H            3.31205565318214        0.34221919655473       -1.34392354433527
