      -----------------------------------------------------------      
     |                   =====================                   |     
     |                           x T B                           |     
     |                   =====================                   |     
     |                         S. Grimme                         |     
     |          Mulliken Center for Theoretical Chemistry        |     
     |                    University of Bonn                     |     
      -----------------------------------------------------------      

   * xtb version 6.5.1 (579679a) compiled by 'ehlert@majestix' on 2022-07-11

   xtb is free software: you can redistribute it and/or modify it under
   the terms of the GNU Lesser General Public License as published by
   the Free Software Foundation, either version 3 of the License, or
   (at your option) any later version.
   
   xtb is distributed in the hope that it will be useful,
   but WITHOUT ANY WARRANTY; without even the implied warranty of
   MERCHANTABILITY or FITNESS FOR A PARTICULAR PURPOSE.  See the
   GNU Lesser General Public License for more details.
   
   Cite this work as:
   * C. Bannwarth, E. Caldeweyher, S. Ehlert, A. Hansen, P. Pracht,
     J. Seibert, S. Spicher, S. Grimme, WIREs Comput. Mol. Sci., 2020, 11,
     e01493. DOI: 10.1002/wcms.1493
   
   for GFN2-xTB:
   * C. Bannwarth, S. Ehlert and S. Grimme., J. Chem. Theory Comput., 2019,
     15, 1652-1671. DOI: 10.1021/acs.jctc.8b01176
   for GFN1-xTB:
   * S. Grimme, C. Bannwarth, P. Shushkov, J. Chem. Theory Comput., 2017,
     13, 1989-2009. DOI: 10.1021/acs.jctc.7b00118
   for GFN0-xTB:
   * P. Pracht, E. Caldeweyher, S. Ehlert, S. Grimme, ChemRxiv, 2019, preprint.
     DOI: 10.26434/chemrxiv.8326202.v1
   for GFN-FF:
   * S. Spicher and S. Grimme, Angew. Chem. Int. Ed., 2020, 59, 15665-15673.
     DOI: 10.1002/anie.202004239
   
   for ALPB and GBSA implicit solvation:
   * S. Ehlert, M. Stahn, S. Spicher, S. Grimme, J. Chem. Theory Comput.,
     2021, 17, 4250-4261. DOI: 10.1021/acs.jctc.1c00471
   
   for DFT-D4:
   * E. Caldeweyher, C. Bannwarth and S. Grimme, J. Chem. Phys., 2017,
     147, 034112. DOI: 10.1063/1.4993215
   * E. Caldeweyher, S. Ehlert, A. Hansen, H. Neugebauer, S. Spicher,
     C. Bannwarth and S. Grimme, J. Chem. Phys., 2019, 150, 154122.
     DOI: 10.1063/1.5090222
   * E. Caldeweyher, J.-M. Mewes, S. Ehlert and S. Grimme, Phys. Chem. Chem. Phys.
     2020, 22, 8499-8512. DOI: 10.1039/D0CP00502A
   
   for sTDA-xTB:
   * S. Grimme and C. Bannwarth, J. Chem. Phys., 2016, 145, 054103.
     DOI: 10.1063/1.4959605
   
   in the mass-spec context:
   * V. Asgeirsson, C. Bauer and S. Grimme, Chem. Sci., 2017, 8, 4879.
     DOI: 10.1039/c7sc00601b
   * J. Koopman and S. Grimme, ACS Omega 2019, 4, 12, 15120-15133.
     DOI: 10.1021/acsomega.9b02011
   
   for metadynamics refer to:
   * S. Grimme, J. Chem. Theory Comput., 2019, 155, 2847-2862
     DOI: 10.1021/acs.jctc.9b00143
   
   for SPH calculations refer to:
   * S. Spicher and S. Grimme, J. Chem. Theory Comput., 2021, 17, 1701-1714
     DOI: 10.1021/acs.jctc.0c01306
   
   with help from (in alphabetical order)
   P. Atkinson, C. Bannwarth, F. Bohle, G. Brandenburg, E. Caldeweyher
   M. Checinski, S. Dohm, S. Ehlert, S. Ehrlich, I. Gerasimov, C. Hölzer
   A. Katbashev, J. Koopman, C. Lavigne, S. Lehtola, F. März, M. Müller,
   F. Musil, H. Neugebauer, J. Pisarek, C. Plett, P. Pracht, F. Pultar,
   J. Seibert, P. Shushkov, S. Spicher, M. Stahn, M. Steiner, T. Strunk,
   J. Stückrath, T. Rose, and J. Unsleber
   
 * started run on 2023/06/20 at 15:29:32.508     

           -------------------------------------------------
          |                Calculation Setup                |
           -------------------------------------------------

          program call               : /lustre/hpc/kemi/ree/PhD/git/ReactivityQM/dep/xtb-6.5.1/bin/xtb --gfn 1 /lustre/hpc/kemi/ree/PhD/git/ReactivityQM/calculations/R02/reac01prodN09/conf10/R02_reac01prodN09_conf10_gfn1.xyz --opt --vfukui --chrg 1 --uhf 0 --alpb DMSO
          hostname                   : node315
          coordinate file            : /lustre/hpc/kemi/ree/PhD/git/ReactivityQM/calculations/R02/reac01prodN09/conf10/R02_reac01prodN09_conf10_gfn1.xyz
          omp threads                :                     1

   ID    Z sym.   atoms
    1    6 C      1, 3, 5, 6, 8-11, 13, 15, 18, 19, 22, 24
    2    8 O      2, 4, 14, 20, 23, 25
    3    7 N      7, 12, 16, 17, 21
    4    1 H      26-43

           -------------------------------------------------
          |                 G F N 1 - x T B                 |
           -------------------------------------------------

        Reference                      10.1021/acs.jctc.7b00118
      * Hamiltonian:
        H0-scaling (s, p, d)           1.850000    2.250000    2.000000
        zeta-weighting                 0.000000
      * Dispersion:
        s8                             2.400000
        a1                             0.630000
        a2                             5.000000
        s9                             0.000000
      * Repulsion:
        kExp                           1.500000
        rExp                           1.000000
      * Coulomb:
        alpha                          2.000000
        third order                    atomic
        anisotropic                    false
      * Halogen bond correction:
        rad-scale                      1.300000
        damping                        0.440000

      * Solvation model:               ALPB
        Solvent                        DMSO
        Parameter file                 internal GFN1-xTB/ALPB
        Dielectric constant                4.6680E+01
        Reference state                gsolv [1 M gas/solution]
        Free energy shift                  7.6243E-03 Eh       4.7843E+00 kcal/mol
        Temperature                        2.9815E+02 K
        Density                            1.1000E+00 kg/L
        Solvent mass                       7.8130E+01 g/mol
        Interaction kernel             P16
        Born radius scaling (c1)           1.7672E+00
        Born radii integrator          GBOBC
        Born offset                        0.0000E+00 a0       0.0000E+00 AA
        H-bond correction              true
        Ion screening                  false
        Surface tension                    1.0000E-05 Eh       1.5569E+01 dyn/cm
        Grid points                               230 per atom

          ...................................................
          :                      SETUP                      :
          :.................................................:
          :  # basis functions                 136          :
          :  # atomic orbitals                 136          :
          :  # shells                           86          :
          :  # electrons                       134          :
          :  # halogen bonds                     0          :
          :  max. iterations                   250          :
          :  Hamiltonian                  GFN1-xTB          :
          :  restarted?                      false          :
          :  GBSA solvation                   true          :
          :  PC potential                    false          :
          :  electronic temp.          300.0000000     K    :
          :  accuracy                    1.0000000          :
          :  -> integral cutoff          0.2500000E+02      :
          :  -> integral neglect         0.1000000E-07      :
          :  -> SCF convergence          0.1000000E-05 Eh   :
          :  -> wf. convergence          0.2000000E-04 e    :
          :  Broyden damping             0.4000000          :
          ...................................................

 iter      E             dE          RMSdq      gap      omega  full diag
   1    -83.4473330 -0.834473E+02  0.832E+00    1.81       0.0  T
   2    -83.8330226 -0.385690E+00  0.501E+00    0.17       1.0  T
   3    -83.8173976  0.156250E-01  0.192E+00    0.26       1.0  T
   4    -83.4357274  0.381670E+00  0.184E+00    0.02       1.0  T
   5    -83.8640819 -0.428355E+00  0.181E-01    0.17       1.0  T
   6    -83.8647415 -0.659597E-03  0.107E-01    0.24       1.0  T
   7    -83.8650286 -0.287116E-03  0.854E-02    0.22       1.0  T
   8    -83.8652951 -0.266462E-03  0.649E-02    0.21       1.0  T
   9    -83.8655142 -0.219072E-03  0.479E-02    0.19       1.0  T
  10    -83.8656576 -0.143478E-03  0.333E-02    0.18       1.0  T
  11    -83.8657380 -0.803743E-04  0.214E-02    0.17       1.0  T
  12    -83.8657909 -0.528517E-04  0.601E-03    0.16       2.5  T
  13    -83.8657942 -0.337344E-05  0.317E-03    0.16       4.8  T
  14    -83.8657954 -0.117493E-05  0.854E-04    0.16      17.8  T
  15    -83.8657954  0.502979E-09  0.841E-04    0.16      18.1  T
  16    -83.8657955 -0.856852E-07  0.147E-04    0.16     103.4  T
  17    -83.8657955 -0.271744E-08  0.403E-06    0.16    3780.5  T

   *** convergence criteria satisfied after 17 iterations ***

         #    Occupation            Energy/Eh            Energy/eV
      -------------------------------------------------------------
         1        2.0000           -0.9007122             -24.5096
       ...           ...                  ...                  ...
        61        2.0000           -0.5078626             -13.8196
        62        2.0000           -0.4984449             -13.5634
        63        2.0000           -0.4967483             -13.5172
        64        2.0000           -0.4758212             -12.9478
        65        2.0000           -0.4687532             -12.7554
        66        1.9764           -0.4572010             -12.4411
        67        1.9258           -0.4560874             -12.4108 (HOMO)
        68        0.0978           -0.4501741             -12.2499 (LUMO)
        69                         -0.3450111              -9.3882
        70                         -0.3288528              -8.9485
        71                         -0.3208055              -8.7296
        72                         -0.2726878              -7.4202
       ...                                ...                  ...
       136                          0.6860976              18.6697
      -------------------------------------------------------------
                  HL-Gap            0.0059133 Eh            0.1609 eV
             Fermi-level           -0.4529938 Eh          -12.3266 eV

 SCC (total)                   0 d,  0 h,  0 min,  0.206 sec
 SCC setup                      ...        0 min,  0.002 sec (  1.179%)
 Dispersion                     ...        0 min,  0.000 sec (  0.230%)
 classical contributions        ...        0 min,  0.000 sec (  0.072%)
 integral evaluation            ...        0 min,  0.038 sec ( 18.570%)
 iterations                     ...        0 min,  0.075 sec ( 36.626%)
 molecular gradient             ...        0 min,  0.088 sec ( 42.783%)
 printout                       ...        0 min,  0.001 sec (  0.502%)

         :::::::::::::::::::::::::::::::::::::::::::::::::::::
         ::                     SUMMARY                     ::
         :::::::::::::::::::::::::::::::::::::::::::::::::::::
         :: total energy             -83.100144744435 Eh    ::
         :: total w/o Gsasa/hb       -83.073547738709 Eh    ::
         :: gradient norm              0.177945946840 Eh/a0 ::
         :: HOMO-LUMO gap              0.160909409596 eV    ::
         ::.................................................::
         :: SCC energy               -83.865795507518 Eh    ::
         :: -> electrostatic           0.414316782541 Eh    ::
         :: -> Gsolv                  -0.115550037065 Eh    ::
         ::    -> Gelec               -0.088953031339 Eh    ::
         ::    -> Gsasa               -0.024167915890 Eh    ::
         ::    -> Ghb                 -0.010053368841 Eh    ::
         ::    -> Gshift               0.007624279005 Eh    ::
         :: repulsion energy           0.792524693723 Eh    ::
         :: dispersion energy         -0.026873930640 Eh    ::
         :: halogen bond corr.         0.000000000000 Eh    ::
         :: add. restraining           0.000000000000 Eh    ::
         :: total charge               1.000000000002 e     ::
         :::::::::::::::::::::::::::::::::::::::::::::::::::::

      ----------------------------------------------------------- 
     |                   =====================                   |
     |                        A N C O P T                        |
     |                   =====================                   |
     |               Approximate Normal Coordinate               |
     |                Rational Function Optimizer                |
      ----------------------------------------------------------- 

          ...................................................
          :                      SETUP                      :
          :.................................................:
          :   optimization level            normal          :
          :   max. optcycles                   200          :
          :   ANC micro-cycles                  20          :
          :   degrees of freedom               123          :
          :.................................................:
          :   RF solver                   davidson          :
          :   write xtbopt.log                true          :
          :   linear?                        false          :
          :   energy convergence         0.5000000E-05 Eh   :
          :   grad. convergence          0.1000000E-02 Eh/α :
          :   maximium RF displ.         1.0000000          :
          :   Hlow (freq-cutoff)         0.1000000E-01      :
          :   Hmax (freq-cutoff)         5.0000000          :
          :   S6 in model hess.         20.0000000          :
          ...................................................

generating ANC from model Hessian ...
Using Lindh-Hessian (1995)
 Shifting diagonal of input Hessian by   9.821185232654316E-003
 Lowest  eigenvalues of input Hessian
    0.000000    0.000000    0.000000    0.000000    0.000000    0.000000
    0.010000    0.010178    0.010422    0.010774    0.011522    0.012267
    0.012912    0.014073    0.014887    0.016270    0.016356    0.016606
 Highest eigenvalues
    2.017457    2.151481    2.170376    2.294751    2.363390    2.381210
 

........................................................................
.............................. CYCLE    1 ..............................
........................................................................
   1    -83.8657955 -0.838658E+02  0.632E-06    0.16       0.0  T
   2    -83.8657955  0.908784E-10  0.285E-05    0.16     535.4  T
   3    -83.8657955 -0.957527E-10  0.105E-06    0.16   14572.0  T
     SCC iter.                  ...        0 min,  0.013 sec
     gradient                   ...        0 min,  0.105 sec
 * total energy  :   -83.1001447 Eh     change       -0.8242296E-12 Eh
   gradient norm :     0.1779458 Eh/α   predicted     0.0000000E+00 (-100.00%)
   displ. norm   :     0.2972642 α      lambda       -0.2517718E-01
   maximum displ.:     0.0947525 α      in ANC's #27, #22, #20, ...

........................................................................
.............................. CYCLE    2 ..............................
........................................................................
   1    -83.8967740 -0.838968E+02  0.174E-01    0.58       0.0  T
   2    -83.8979552 -0.118120E-02  0.136E-01    0.25       1.0  T
   3    -83.8990589 -0.110369E-02  0.319E-02    0.29       1.0  T
   4    -83.8991010 -0.420231E-04  0.231E-02    0.23       1.0  T
   5    -83.8991168 -0.158808E-04  0.108E-02    0.25       1.4  T
   6    -83.8991181 -0.125157E-05  0.433E-03    0.24       3.5  T
   7    -83.8991186 -0.518752E-06  0.157E-03    0.24       9.7  T
   8    -83.8991188 -0.212286E-06  0.756E-04    0.24      20.2  T
   9    -83.8991189 -0.519136E-07  0.150E-04    0.24     101.4  T
  10    -83.8991189  0.887894E-10  0.104E-04    0.24     146.8  T
     SCC iter.                  ...        0 min,  0.040 sec
     gradient                   ...        0 min,  0.085 sec
 * total energy  :   -83.1192315 Eh     change       -0.1908675E-01 Eh
   gradient norm :     0.0983750 Eh/α   predicted    -0.1371168E-01 ( -28.16%)
   displ. norm   :     0.3428929 α      lambda       -0.1493490E-01
   maximum displ.:     0.1234988 α      in ANC's #27, #20, #22, ...

........................................................................
.............................. CYCLE    3 ..............................
........................................................................
   1    -83.9262412 -0.839262E+02  0.140E-01    0.76       0.0  T
   2    -83.9272383 -0.997102E-03  0.798E-02    0.62       1.0  T
   3    -83.9275394 -0.301099E-03  0.237E-02    0.64       1.0  T
   4    -83.9275417 -0.231626E-05  0.141E-02    0.61       1.1  T
   5    -83.9275440 -0.229564E-05  0.327E-03    0.60       4.7  T
   6    -83.9275442 -0.153003E-06  0.962E-04    0.60      15.8  T
   7    -83.9275442 -0.147453E-07  0.311E-04    0.60      49.1  T
   8    -83.9275442 -0.194163E-08  0.784E-05    0.60     194.4  T
   9    -83.9275442 -0.539586E-10  0.315E-05    0.60     483.6  T
     SCC iter.                  ...        0 min,  0.036 sec
     gradient                   ...        0 min,  0.086 sec
 * total energy  :   -83.1274648 Eh     change       -0.8233301E-02 Eh
   gradient norm :     0.0323054 Eh/α   predicted    -0.8347843E-02 (   1.39%)
   displ. norm   :     0.2531171 α      lambda       -0.2226278E-02
   maximum displ.:     0.0907436 α      in ANC's #11, #20, #8, ...

........................................................................
.............................. CYCLE    4 ..............................
........................................................................
   1    -83.9263547 -0.839264E+02  0.269E-02    0.61       0.0  T
   2    -83.9263945 -0.398354E-04  0.203E-02    0.64       1.0  T
   3    -83.9264102 -0.156320E-04  0.706E-03    0.63       2.2  T
   4    -83.9264101  0.267117E-07  0.368E-03    0.63       4.1  T
   5    -83.9264102 -0.115286E-06  0.527E-04    0.63      28.9  T
   6    -83.9264103 -0.912401E-08  0.129E-04    0.63     118.6  T
   7    -83.9264103 -0.299622E-09  0.550E-05    0.63     277.1  T
     SCC iter.                  ...        0 min,  0.028 sec
     gradient                   ...        0 min,  0.085 sec
 * total energy  :   -83.1291463 Eh     change       -0.1681506E-02 Eh
   gradient norm :     0.0163316 Eh/α   predicted    -0.1184459E-02 ( -29.56%)
   displ. norm   :     0.3383172 α      lambda       -0.1568639E-02
   maximum displ.:     0.1238316 α      in ANC's #8, #9, #12, ...

........................................................................
.............................. CYCLE    5 ..............................
........................................................................
   1    -83.9264483 -0.839264E+02  0.298E-02    0.64       0.0  T
   2    -83.9265001 -0.518379E-04  0.219E-02    0.67       1.0  T
   3    -83.9265203 -0.202085E-04  0.669E-03    0.66       2.3  T
   4    -83.9265203 -0.106691E-07  0.377E-03    0.66       4.0  T
   5    -83.9265205 -0.109465E-06  0.521E-04    0.66      29.3  T
   6    -83.9265205 -0.880678E-08  0.145E-04    0.66     105.3  T
   7    -83.9265205 -0.630706E-09  0.554E-05    0.66     275.3  T
     SCC iter.                  ...        0 min,  0.028 sec
     gradient                   ...        0 min,  0.087 sec
 * total energy  :   -83.1301613 Eh     change       -0.1015006E-02 Eh
   gradient norm :     0.0097376 Eh/α   predicted    -0.8741054E-03 ( -13.88%)
   displ. norm   :     0.2425963 α      lambda       -0.5039063E-03
   maximum displ.:     0.0969771 α      in ANC's #8, #9, #7, ...

........................................................................
.............................. CYCLE    6 ..............................
........................................................................
   1    -83.9276664 -0.839277E+02  0.128E-02    0.67       0.0  T
   2    -83.9276749 -0.848824E-05  0.760E-03    0.68       2.0  T
   3    -83.9276775 -0.260339E-05  0.237E-03    0.68       6.4  T
   4    -83.9276775 -0.379720E-07  0.133E-03    0.68      11.5  T
   5    -83.9276775 -0.728652E-08  0.280E-04    0.68      54.5  T
   6    -83.9276775 -0.191181E-08  0.730E-05    0.68     208.9  T
   7    -83.9276775 -0.180918E-09  0.236E-05    0.68     646.0  T
     SCC iter.                  ...        0 min,  0.028 sec
     gradient                   ...        0 min,  0.087 sec
 * total energy  :   -83.1305470 Eh     change       -0.3856558E-03 Eh
   gradient norm :     0.0094249 Eh/α   predicted    -0.2667832E-03 ( -30.82%)
   displ. norm   :     0.3365669 α      lambda       -0.5293150E-03
   maximum displ.:     0.1323903 α      in ANC's #8, #2, #3, ...

........................................................................
.............................. CYCLE    7 ..............................
........................................................................
   1    -83.9291677 -0.839292E+02  0.127E-02    0.69       0.0  T
   2    -83.9291734 -0.573259E-05  0.597E-03    0.69       2.6  T
   3    -83.9291747 -0.129315E-05  0.315E-03    0.69       4.8  T
   4    -83.9291748 -0.113174E-06  0.126E-03    0.69      12.1  T
   5    -83.9291748 -0.348773E-08  0.326E-04    0.69      46.8  T
   6    -83.9291748 -0.298327E-08  0.622E-05    0.69     245.2  T
   7    -83.9291748 -0.138868E-09  0.210E-05    0.69     725.6  T
     SCC iter.                  ...        0 min,  0.028 sec
     gradient                   ...        0 min,  0.086 sec
 * total energy  :   -83.1309346 Eh     change       -0.3876258E-03 Eh
   gradient norm :     0.0068169 Eh/α   predicted    -0.2946708E-03 ( -23.98%)
   displ. norm   :     0.3183482 α      lambda       -0.3429388E-03
   maximum displ.:     0.1503070 α      in ANC's #2, #3, #8, ...

........................................................................
.............................. CYCLE    8 ..............................
........................................................................
   1    -83.9301932 -0.839302E+02  0.844E-03    0.69       0.0  T
   2    -83.9301945 -0.132640E-05  0.380E-03    0.69       4.0  T
   3    -83.9301947 -0.149226E-06  0.256E-03    0.69       5.9  T
   4    -83.9301948 -0.752350E-07  0.652E-04    0.69      23.4  T
   5    -83.9301948 -0.717161E-08  0.203E-04    0.69      75.2  T
   6    -83.9301948 -0.118240E-08  0.347E-05    0.69     439.0  T
   7    -83.9301948 -0.326139E-10  0.128E-05    0.69    1190.8  T
     SCC iter.                  ...        0 min,  0.028 sec
     gradient                   ...        0 min,  0.086 sec
 * total energy  :   -83.1311885 Eh     change       -0.2539251E-03 Eh
   gradient norm :     0.0050529 Eh/α   predicted    -0.1888478E-03 ( -25.63%)
   displ. norm   :     0.2972765 α      lambda       -0.2451583E-03
   maximum displ.:     0.1601549 α      in ANC's #2, #3, #8, ...

........................................................................
.............................. CYCLE    9 ..............................
........................................................................
   1    -83.9309830 -0.839310E+02  0.555E-03    0.69       0.0  T
   2    -83.9309834 -0.429420E-06  0.268E-03    0.69       5.7  T
   3    -83.9309835 -0.267597E-07  0.152E-03    0.69      10.0  T
   4    -83.9309835 -0.144438E-07  0.327E-04    0.69      46.6  T
   5    -83.9309835 -0.316363E-08  0.139E-04    0.69     109.6  T
   6    -83.9309835 -0.635794E-09  0.274E-05    0.69     555.9  T
     SCC iter.                  ...        0 min,  0.024 sec
     gradient                   ...        0 min,  0.086 sec
 * total energy  :   -83.1313791 Eh     change       -0.1905387E-03 Eh
   gradient norm :     0.0050394 Eh/α   predicted    -0.1334700E-03 ( -29.95%)
   displ. norm   :     0.3043807 α      lambda       -0.2288242E-03
   maximum displ.:     0.1771736 α      in ANC's #2, #3, #4, ...

........................................................................
.............................. CYCLE   10 ..............................
........................................................................
   1    -83.9315210 -0.839315E+02  0.499E-03    0.69       0.0  T
   2    -83.9315218 -0.763408E-06  0.229E-03    0.69       6.7  T
   3    -83.9315218 -0.744830E-07  0.114E-03    0.69      13.3  T
   4    -83.9315218 -0.450730E-08  0.393E-04    0.69      38.8  T
   5    -83.9315218 -0.660023E-09  0.947E-05    0.69     161.1  T
   6    -83.9315218 -0.268059E-09  0.375E-05    0.69     406.6  T
     SCC iter.                  ...        0 min,  0.024 sec
     gradient                   ...        0 min,  0.086 sec
 * total energy  :   -83.1315672 Eh     change       -0.1881291E-03 Eh
   gradient norm :     0.0052740 Eh/α   predicted    -0.1250166E-03 ( -33.55%)
   displ. norm   :     0.3735004 α      lambda       -0.2641038E-03
   maximum displ.:     0.2246862 α      in ANC's #2, #3, #4, ...

........................................................................
.............................. CYCLE   11 ..............................
........................................................................
   1    -83.9313724 -0.839314E+02  0.608E-03    0.69       0.0  T
   2    -83.9313736 -0.118913E-05  0.270E-03    0.69       5.7  T
   3    -83.9313737 -0.115266E-06  0.127E-03    0.69      12.0  T
   4    -83.9313737 -0.674807E-08  0.470E-04    0.69      32.5  T
   5    -83.9313737 -0.115809E-08  0.115E-04    0.69     132.8  T
   6    -83.9313737 -0.218733E-09  0.390E-05    0.69     391.3  T
     SCC iter.                  ...        0 min,  0.024 sec
     gradient                   ...        0 min,  0.087 sec
 * total energy  :   -83.1317823 Eh     change       -0.2151589E-03 Eh
   gradient norm :     0.0055934 Eh/α   predicted    -0.1504813E-03 ( -30.06%)
   displ. norm   :     0.3919459 α      lambda       -0.2482168E-03
   maximum displ.:     0.2433016 α      in ANC's #2, #3, #4, ...

........................................................................
.............................. CYCLE   12 ..............................
........................................................................
   1    -83.9311457 -0.839311E+02  0.708E-03    0.69       0.0  T
   2    -83.9311471 -0.141411E-05  0.331E-03    0.69       4.6  T
   3    -83.9311472 -0.148184E-06  0.162E-03    0.69       9.4  T
   4    -83.9311472 -0.145149E-07  0.739E-04    0.69      20.6  T
   5    -83.9311473 -0.918196E-08  0.191E-04    0.69      79.8  T
   6    -83.9311473 -0.742247E-09  0.621E-05    0.69     245.7  T
     SCC iter.                  ...        0 min,  0.024 sec
     gradient                   ...        0 min,  0.087 sec
 * total energy  :   -83.1319803 Eh     change       -0.1980053E-03 Eh
   gradient norm :     0.0058907 Eh/α   predicted    -0.1431773E-03 ( -27.69%)
   displ. norm   :     0.3770419 α      lambda       -0.2091340E-03
   maximum displ.:     0.2411723 α      in ANC's #2, #4, #3, ...

........................................................................
.............................. CYCLE   13 ..............................
........................................................................
   1    -83.9310990 -0.839311E+02  0.824E-03    0.70       0.0  T
   2    -83.9311012 -0.227076E-05  0.400E-03    0.71       3.8  T
   3    -83.9311017 -0.432557E-06  0.194E-03    0.70       7.9  T
   4    -83.9311017 -0.599033E-07  0.846E-04    0.70      18.0  T
   5    -83.9311017 -0.546014E-08  0.195E-04    0.70      78.2  T
   6    -83.9311017 -0.529312E-09  0.555E-05    0.70     275.0  T
     SCC iter.                  ...        0 min,  0.023 sec
     gradient                   ...        0 min,  0.088 sec
 * total energy  :   -83.1321420 Eh     change       -0.1616636E-03 Eh
   gradient norm :     0.0056008 Eh/α   predicted    -0.1194380E-03 ( -26.12%)
   displ. norm   :     0.3007636 α      lambda       -0.1585628E-03
   maximum displ.:     0.1978412 α      in ANC's #2, #4, #3, ...

........................................................................
.............................. CYCLE   14 ..............................
........................................................................
   1    -83.9322328 -0.839322E+02  0.876E-03    0.71       0.0  T
   2    -83.9322360 -0.323730E-05  0.422E-03    0.72       3.6  T
   3    -83.9322368 -0.833598E-06  0.173E-03    0.71       8.8  T
   4    -83.9322369 -0.584713E-07  0.735E-04    0.71      20.8  T
   5    -83.9322369 -0.106796E-08  0.188E-04    0.71      81.3  T
   6    -83.9322369 -0.532935E-09  0.439E-05    0.71     347.2  T
     SCC iter.                  ...        0 min,  0.018 sec
     gradient                   ...        0 min,  0.087 sec
 * total energy  :   -83.1322656 Eh     change       -0.1236170E-03 Eh
   gradient norm :     0.0047137 Eh/α   predicted    -0.8646036E-04 ( -30.06%)
   displ. norm   :     0.3066766 α      lambda       -0.1475964E-03
   maximum displ.:     0.2003884 α      in ANC's #2, #4, #6, ...

........................................................................
.............................. CYCLE   15 ..............................
........................................................................
   1    -83.9325295 -0.839325E+02  0.103E-02    0.72       0.0  T
   2    -83.9325339 -0.448175E-05  0.501E-03    0.73       3.0  T
   3    -83.9325354 -0.143371E-05  0.192E-03    0.73       7.9  T
   4    -83.9325354 -0.681854E-07  0.793E-04    0.73      19.2  T
   5    -83.9325354 -0.679549E-09  0.222E-04    0.73      68.8  T
   6    -83.9325354 -0.909864E-09  0.453E-05    0.73     336.6  T
   7    -83.9325354 -0.492832E-10  0.195E-05    0.73     780.2  T
     SCC iter.                  ...        0 min,  0.026 sec
     gradient                   ...        0 min,  0.089 sec
 * total energy  :   -83.1323811 Eh     change       -0.1155195E-03 Eh
   gradient norm :     0.0042317 Eh/α   predicted    -0.8074053E-04 ( -30.11%)
   displ. norm   :     0.3264378 α      lambda       -0.1392799E-03
   maximum displ.:     0.2125678 α      in ANC's #2, #4, #6, ...

........................................................................
.............................. CYCLE   16 ..............................
........................................................................
   1    -83.9335063 -0.839335E+02  0.117E-02    0.73       0.0  T
   2    -83.9335127 -0.646134E-05  0.608E-03    0.74       2.5  T
   3    -83.9335152 -0.251378E-05  0.188E-03    0.74       8.1  T
   4    -83.9335153 -0.550910E-07  0.885E-04    0.74      17.2  T
   5    -83.9335153 -0.267868E-08  0.248E-04    0.74      61.4  T
   6    -83.9335153 -0.919968E-09  0.475E-05    0.74     320.8  T
   7    -83.9335153 -0.451337E-10  0.199E-05    0.74     768.0  T
     SCC iter.                  ...        0 min,  0.026 sec
     gradient                   ...        0 min,  0.089 sec
 * total energy  :   -83.1324854 Eh     change       -0.1042524E-03 Eh
   gradient norm :     0.0042395 Eh/α   predicted    -0.7706385E-04 ( -26.08%)
   displ. norm   :     0.3319296 α      lambda       -0.1174590E-03
   maximum displ.:     0.2132204 α      in ANC's #2, #4, #6, ...

........................................................................
.............................. CYCLE   17 ..............................
........................................................................
   1    -83.9323341 -0.839323E+02  0.927E-03    0.74       0.0  T
   2    -83.9323373 -0.313124E-05  0.440E-03    0.75       3.5  T
   3    -83.9323385 -0.121527E-05  0.199E-03    0.74       7.6  T
   4    -83.9323385 -0.558511E-07  0.768E-04    0.74      19.8  T
   5    -83.9323385 -0.167259E-08  0.204E-04    0.74      74.9  T
   6    -83.9323385 -0.834206E-09  0.400E-05    0.74     381.6  T
   7    -83.9323385 -0.227942E-10  0.172E-05    0.74     886.8  T
     SCC iter.                  ...        0 min,  0.027 sec
     gradient                   ...        0 min,  0.086 sec
 * total energy  :   -83.1325672 Eh     change       -0.8179635E-04 Eh
   gradient norm :     0.0054302 Eh/α   predicted    -0.6520425E-04 ( -20.28%)
   displ. norm   :     0.2652883 α      lambda       -0.1091656E-03
   maximum displ.:     0.1625345 α      in ANC's #2, #4, #6, ...

........................................................................
.............................. CYCLE   18 ..............................
........................................................................
   1    -83.9345880 -0.839346E+02  0.961E-03    0.75       0.0  T
   2    -83.9345922 -0.428016E-05  0.549E-03    0.75       2.8  T
   3    -83.9345940 -0.172046E-05  0.220E-03    0.75       6.9  T
   4    -83.9345940 -0.305984E-07  0.919E-04    0.75      16.6  T
   5    -83.9345940 -0.120478E-08  0.191E-04    0.75      80.0  T
   6    -83.9345940 -0.867587E-09  0.433E-05    0.75     352.5  T
     SCC iter.                  ...        0 min,  0.018 sec
     gradient                   ...        0 min,  0.075 sec
 * total energy  :   -83.1326349 Eh     change       -0.6771249E-04 Eh
   gradient norm :     0.0045006 Eh/α   predicted    -0.5842605E-04 ( -13.71%)
   displ. norm   :     0.2680852 α      lambda       -0.8318185E-04
   maximum displ.:     0.1683754 α      in ANC's #2, #4, #6, ...

........................................................................
.............................. CYCLE   19 ..............................
........................................................................
   1    -83.9333916 -0.839334E+02  0.517E-03    0.75       0.0  T
   2    -83.9333923 -0.730438E-06  0.218E-03    0.75       7.0  T
   3    -83.9333924 -0.833967E-07  0.130E-03    0.75      11.7  T
   4    -83.9333924 -0.591126E-08  0.430E-04    0.75      35.4  T
   5    -83.9333924 -0.571455E-08  0.119E-04    0.75     127.7  T
   6    -83.9333924 -0.400263E-09  0.375E-05    0.75     406.6  T
     SCC iter.                  ...        0 min,  0.023 sec
     gradient                   ...        0 min,  0.083 sec
 * total energy  :   -83.1326897 Eh     change       -0.5481882E-04 Eh
   gradient norm :     0.0042515 Eh/α   predicted    -0.4458363E-04 ( -18.67%)
   displ. norm   :     0.1363934 α      lambda       -0.6097252E-04
   maximum displ.:     0.0764648 α      in ANC's #2, #4, #3, ...

........................................................................
.............................. CYCLE   20 ..............................
........................................................................
   1    -83.9338009 -0.839338E+02  0.516E-03    0.75       0.0  T
   2    -83.9338020 -0.110671E-05  0.231E-03    0.75       6.6  T
   3    -83.9338022 -0.212863E-06  0.103E-03    0.75      14.9  T
   4    -83.9338022 -0.122452E-07  0.446E-04    0.75      34.2  T
   5    -83.9338022 -0.596657E-09  0.137E-04    0.75     111.1  T
   6    -83.9338022 -0.477897E-09  0.284E-05    0.75     537.6  T
     SCC iter.                  ...        0 min,  0.023 sec
     gradient                   ...        0 min,  0.082 sec
 * total energy  :   -83.1327320 Eh     change       -0.4226103E-04 Eh
   gradient norm :     0.0040574 Eh/α   predicted    -0.3105647E-04 ( -26.51%)
   displ. norm   :     0.1613002 α      lambda       -0.6338945E-04
   maximum displ.:     0.0940210 α      in ANC's #2, #3, #4, ...
 * RMSD in coord.:     0.6971949 α      energy gain  -0.3258724E-01 Eh

generating ANC from model Hessian ...
Using Lindh-Hessian (1995)
 Shifting diagonal of input Hessian by   9.824898325512310E-003
 Lowest  eigenvalues of input Hessian
    0.000000    0.000000    0.000000    0.000000    0.000000    0.000000
    0.010000    0.010196    0.010447    0.010790    0.011485    0.012534
    0.012621    0.013743    0.014481    0.016521    0.016587    0.017537
 Highest eigenvalues
    2.051039    2.194376    2.210522    2.414301    2.470565    2.500599
 

........................................................................
.............................. CYCLE   21 ..............................
........................................................................
   1    -83.9338182 -0.839338E+02  0.501E-03    0.75       0.0  T
   2    -83.9338188 -0.631029E-06  0.235E-03    0.75       6.5  T
   3    -83.9338189 -0.643503E-07  0.132E-03    0.75      11.6  T
   4    -83.9338189 -0.861712E-08  0.364E-04    0.75      41.9  T
   5    -83.9338189 -0.300115E-08  0.160E-04    0.75      95.1  T
   6    -83.9338189 -0.753644E-09  0.296E-05    0.75     515.4  T
     SCC iter.                  ...        0 min,  0.022 sec
     gradient                   ...        0 min,  0.086 sec
 * total energy  :   -83.1327698 Eh     change       -0.3776361E-04 Eh
   gradient norm :     0.0036741 Eh/α   predicted     0.0000000E+00 (-100.00%)
   displ. norm   :     0.0385775 α      lambda       -0.3746245E-04
   maximum displ.:     0.0197643 α      in ANC's #3, #5, #14, ...

........................................................................
.............................. CYCLE   22 ..............................
........................................................................
   1    -83.9341318 -0.839341E+02  0.240E-03    0.75       0.0  T
   2    -83.9341319 -0.957481E-07  0.120E-03    0.75      12.7  T
   3    -83.9341319 -0.391704E-08  0.625E-04    0.75      24.4  T
   4    -83.9341319 -0.127457E-08  0.126E-04    0.75     120.9  T
   5    -83.9341319 -0.207351E-09  0.284E-05    0.75     537.5  T
     SCC iter.                  ...        0 min,  0.019 sec
     gradient                   ...        0 min,  0.087 sec
 * total energy  :   -83.1328011 Eh     change       -0.3132785E-04 Eh
   gradient norm :     0.0018095 Eh/α   predicted    -0.1934000E-04 ( -38.27%)
   displ. norm   :     0.1749127 α      lambda       -0.6898678E-04
   maximum displ.:     0.0969138 α      in ANC's #3, #5, #14, ...

........................................................................
.............................. CYCLE   23 ..............................
........................................................................
   1    -83.9343985 -0.839344E+02  0.683E-03    0.75       0.0  T
   2    -83.9343997 -0.123490E-05  0.306E-03    0.75       5.0  T
   3    -83.9343998 -0.669107E-07  0.173E-03    0.75       8.8  T
   4    -83.9343998 -0.567680E-08  0.487E-04    0.75      31.3  T
   5    -83.9343998 -0.309588E-08  0.116E-04    0.75     131.0  T
   6    -83.9343998 -0.549832E-09  0.403E-05    0.75     378.2  T
     SCC iter.                  ...        0 min,  0.023 sec
     gradient                   ...        0 min,  0.090 sec
 * total energy  :   -83.1328589 Eh     change       -0.5785723E-04 Eh
   gradient norm :     0.0041108 Eh/α   predicted    -0.3496473E-04 ( -39.57%)
   displ. norm   :     0.0827054 α      lambda       -0.3546432E-04
   maximum displ.:     0.0492925 α      in ANC's #3, #5, #1, ...

........................................................................
.............................. CYCLE   24 ..............................
........................................................................
   1    -83.9342643 -0.839343E+02  0.162E-03    0.75       0.0  T
   2    -83.9342644 -0.797410E-07  0.787E-04    0.76      19.4  T
   3    -83.9342644 -0.128849E-07  0.372E-04    0.76      41.0  T
   4    -83.9342644 -0.853333E-09  0.149E-04    0.76     102.6  T
   5    -83.9342644 -0.354220E-09  0.399E-05    0.76     381.9  T
     SCC iter.                  ...        0 min,  0.020 sec
     gradient                   ...        0 min,  0.084 sec
 * total energy  :   -83.1328917 Eh     change       -0.3273327E-04 Eh
   gradient norm :     0.0037449 Eh/α   predicted    -0.1785388E-04 ( -45.46%)
   displ. norm   :     0.2734810 α      lambda       -0.1179865E-03
   maximum displ.:     0.1588851 α      in ANC's #3, #5, #1, ...

........................................................................
.............................. CYCLE   25 ..............................
........................................................................
   1    -83.9331759 -0.839332E+02  0.571E-03    0.76       0.0  T
   2    -83.9331766 -0.721170E-06  0.304E-03    0.76       5.0  T
   3    -83.9331768 -0.166327E-06  0.155E-03    0.76       9.8  T
   4    -83.9331768 -0.246853E-07  0.489E-04    0.76      31.2  T
   5    -83.9331768 -0.338514E-08  0.109E-04    0.76     139.5  T
   6    -83.9331768 -0.213802E-09  0.379E-05    0.76     402.8  T
     SCC iter.                  ...        0 min,  0.023 sec
     gradient                   ...        0 min,  0.084 sec
 * total energy  :   -83.1329760 Eh     change       -0.8434858E-04 Eh
   gradient norm :     0.0035496 Eh/α   predicted    -0.6340568E-04 ( -24.83%)
   displ. norm   :     0.1887917 α      lambda       -0.5363292E-04
   maximum displ.:     0.1165668 α      in ANC's #3, #5, #1, ...

........................................................................
.............................. CYCLE   26 ..............................
........................................................................
   1    -83.9327534 -0.839328E+02  0.370E-03    0.77       0.0  T
   2    -83.9327538 -0.398289E-06  0.202E-03    0.77       7.5  T
   3    -83.9327539 -0.130073E-06  0.908E-04    0.77      16.8  T
   4    -83.9327539 -0.681834E-08  0.337E-04    0.77      45.3  T
   5    -83.9327539 -0.948816E-09  0.622E-05    0.77     245.1  T
   6    -83.9327539 -0.628546E-10  0.244E-05    0.77     624.4  T
     SCC iter.                  ...        0 min,  0.022 sec
     gradient                   ...        0 min,  0.085 sec
 * total energy  :   -83.1330151 Eh     change       -0.3912292E-04 Eh
   gradient norm :     0.0045067 Eh/α   predicted    -0.2777254E-04 ( -29.01%)
   displ. norm   :     0.1517512 α      lambda       -0.6140979E-04
   maximum displ.:     0.1009646 α      in ANC's #3, #1, #2, ...

........................................................................
.............................. CYCLE   27 ..............................
........................................................................
   1    -83.9337179 -0.839337E+02  0.407E-03    0.77       0.0  T
   2    -83.9337184 -0.469158E-06  0.220E-03    0.77       6.9  T
   3    -83.9337185 -0.167324E-06  0.103E-03    0.77      14.8  T
   4    -83.9337186 -0.814315E-08  0.378E-04    0.77      40.3  T
   5    -83.9337186 -0.117815E-08  0.687E-05    0.77     221.9  T
   6    -83.9337186 -0.954827E-10  0.200E-05    0.77     762.9  T
     SCC iter.                  ...        0 min,  0.023 sec
     gradient                   ...        0 min,  0.087 sec
 * total energy  :   -83.1330642 Eh     change       -0.4905578E-04 Eh
   gradient norm :     0.0037575 Eh/α   predicted    -0.3141346E-04 ( -35.96%)
   displ. norm   :     0.2383827 α      lambda       -0.7879786E-04
   maximum displ.:     0.1589399 α      in ANC's #3, #1, #2, ...

........................................................................
.............................. CYCLE   28 ..............................
........................................................................
   1    -83.9338699 -0.839339E+02  0.540E-03    0.76       0.0  T
   2    -83.9338710 -0.112252E-05  0.230E-03    0.77       6.6  T
   3    -83.9338712 -0.207914E-06  0.101E-03    0.77      15.1  T
   4    -83.9338713 -0.968004E-08  0.469E-04    0.77      32.5  T
   5    -83.9338713 -0.298542E-08  0.111E-04    0.77     137.0  T
   6    -83.9338713 -0.215394E-09  0.359E-05    0.77     425.2  T
     SCC iter.                  ...        0 min,  0.023 sec
     gradient                   ...        0 min,  0.084 sec
 * total energy  :   -83.1331251 Eh     change       -0.6086776E-04 Eh
   gradient norm :     0.0033075 Eh/α   predicted    -0.4164101E-04 ( -31.59%)
   displ. norm   :     0.2797467 α      lambda       -0.7460580E-04
   maximum displ.:     0.1880339 α      in ANC's #3, #1, #2, ...

........................................................................
.............................. CYCLE   29 ..............................
........................................................................
   1    -83.9338531 -0.839339E+02  0.536E-03    0.76       0.0  T
   2    -83.9338543 -0.122345E-05  0.272E-03    0.77       5.6  T
   3    -83.9338547 -0.405429E-06  0.883E-04    0.76      17.3  T
   4    -83.9338548 -0.712143E-08  0.404E-04    0.76      37.7  T
   5    -83.9338548 -0.128594E-08  0.114E-04    0.76     133.6  T
   6    -83.9338548 -0.202817E-09  0.318E-05    0.76     479.5  T
     SCC iter.                  ...        0 min,  0.023 sec
     gradient                   ...        0 min,  0.084 sec
 * total energy  :   -83.1331824 Eh     change       -0.5732075E-04 Eh
   gradient norm :     0.0033154 Eh/α   predicted    -0.4022449E-04 ( -29.83%)
   displ. norm   :     0.2755916 α      lambda       -0.6251415E-04
   maximum displ.:     0.1857697 α      in ANC's #3, #1, #2, ...

........................................................................
.............................. CYCLE   30 ..............................
........................................................................
   1    -83.9339882 -0.839340E+02  0.394E-03    0.76       0.0  T
   2    -83.9339890 -0.772893E-06  0.180E-03    0.76       8.5  T
   3    -83.9339892 -0.160252E-06  0.774E-04    0.76      19.7  T
   4    -83.9339892 -0.815672E-08  0.353E-04    0.76      43.2  T
   5    -83.9339892 -0.574630E-09  0.104E-04    0.76     146.6  T
   6    -83.9339892 -0.146358E-09  0.275E-05    0.76     554.9  T
     SCC iter.                  ...        0 min,  0.023 sec
     gradient                   ...        0 min,  0.084 sec
 * total energy  :   -83.1332288 Eh     change       -0.4640949E-04 Eh
   gradient norm :     0.0033972 Eh/α   predicted    -0.3363141E-04 ( -27.53%)
   displ. norm   :     0.2384998 α      lambda       -0.5549453E-04
   maximum displ.:     0.1575509 α      in ANC's #3, #1, #2, ...

........................................................................
.............................. CYCLE   31 ..............................
........................................................................
   1    -83.9353071 -0.839353E+02  0.413E-03    0.77       0.0  T
   2    -83.9353078 -0.716595E-06  0.244E-03    0.77       6.2  T
   3    -83.9353080 -0.227591E-06  0.113E-03    0.77      13.5  T
   4    -83.9353080 -0.587745E-08  0.443E-04    0.77      34.5  T
   5    -83.9353080 -0.562252E-09  0.116E-04    0.77     131.9  T
   6    -83.9353080 -0.412953E-09  0.235E-05    0.77     647.8  T
     SCC iter.                  ...        0 min,  0.023 sec
     gradient                   ...        0 min,  0.084 sec
 * total energy  :   -83.1332670 Eh     change       -0.3824044E-04 Eh
   gradient norm :     0.0028596 Eh/α   predicted    -0.2932620E-04 ( -23.31%)
   displ. norm   :     0.4290143 α      lambda       -0.7029235E-04
   maximum displ.:     0.2782643 α      in ANC's #3, #1, #2, ...

........................................................................
.............................. CYCLE   32 ..............................
........................................................................
   1    -83.9309930 -0.839310E+02  0.101E-02    0.77       0.0  T
   2    -83.9309959 -0.294025E-05  0.476E-03    0.77       3.2  T
   3    -83.9309961 -0.152453E-06  0.261E-03    0.77       5.8  T
   4    -83.9309961 -0.994041E-08  0.842E-04    0.77      18.1  T
   5    -83.9309961 -0.231354E-07  0.177E-04    0.77      86.1  T
   6    -83.9309961 -0.880391E-09  0.657E-05    0.77     232.3  T
     SCC iter.                  ...        0 min,  0.023 sec
     gradient                   ...        0 min,  0.084 sec
 * total energy  :   -83.1332476 Eh     change        0.1944211E-04 Eh
   gradient norm :     0.0084752 Eh/α   predicted    -0.4161510E-04 (-314.05%)
   displ. norm   :     0.1502417 α      lambda       -0.1362565E-03
   maximum displ.:     0.0952629 α      in ANC's #3, #6, #5, ...

........................................................................
.............................. CYCLE   33 ..............................
........................................................................
   1    -83.9354257 -0.839354E+02  0.904E-03    0.78       0.0  T
   2    -83.9354278 -0.208880E-05  0.457E-03    0.78       3.3  T
   3    -83.9354280 -0.228909E-06  0.252E-03    0.78       6.0  T
   4    -83.9354280 -0.186646E-07  0.689E-04    0.78      22.1  T
   5    -83.9354280 -0.117320E-07  0.189E-04    0.78      80.8  T
   6    -83.9354280 -0.132640E-08  0.577E-05    0.78     264.2  T
     SCC iter.                  ...        0 min,  0.022 sec
     gradient                   ...        0 min,  0.084 sec
 * total energy  :   -83.1333142 Eh     change       -0.6656750E-04 Eh
   gradient norm :     0.0018046 Eh/α   predicted    -0.6966550E-04 (   4.65%)
   displ. norm   :     0.1034291 α      lambda       -0.1545997E-04
   maximum displ.:     0.0557789 α      in ANC's #1, #3, #2, ...

........................................................................
.............................. CYCLE   34 ..............................
........................................................................
   1    -83.9355629 -0.839356E+02  0.225E-03    0.78       0.0  T
   2    -83.9355632 -0.306258E-06  0.119E-03    0.78      12.8  T
   3    -83.9355632 -0.371784E-07  0.516E-04    0.78      29.6  T
   4    -83.9355632 -0.557179E-09  0.287E-04    0.78      53.2  T
   5    -83.9355632 -0.919513E-09  0.670E-05    0.78     227.8  T
   6    -83.9355632 -0.112408E-09  0.176E-05    0.78     865.7  T
     SCC iter.                  ...        0 min,  0.023 sec
     gradient                   ...        0 min,  0.084 sec
 * total energy  :   -83.1333312 Eh     change       -0.1707522E-04 Eh
   gradient norm :     0.0024123 Eh/α   predicted    -0.7771983E-05 ( -54.48%)
   displ. norm   :     0.1347281 α      lambda       -0.2622750E-04
   maximum displ.:     0.0759526 α      in ANC's #1, #2, #3, ...

........................................................................
.............................. CYCLE   35 ..............................
........................................................................
   1    -83.9352394 -0.839352E+02  0.348E-03    0.78       0.0  T
   2    -83.9352399 -0.579102E-06  0.180E-03    0.78       8.5  T
   3    -83.9352401 -0.111115E-06  0.800E-04    0.78      19.1  T
   4    -83.9352401 -0.259489E-08  0.411E-04    0.78      37.1  T
   5    -83.9352401 -0.180565E-08  0.560E-05    0.78     272.1  T
   6    -83.9352401 -0.588471E-10  0.170E-05    0.78     895.2  T
     SCC iter.                  ...        0 min,  0.022 sec
     gradient                   ...        0 min,  0.084 sec
 * total energy  :   -83.1333480 Eh     change       -0.1681065E-04 Eh
   gradient norm :     0.0017087 Eh/α   predicted    -0.1335255E-04 ( -20.57%)
   displ. norm   :     0.1570228 α      lambda       -0.1495167E-04
   maximum displ.:     0.0935682 α      in ANC's #1, #2, #3, ...

........................................................................
.............................. CYCLE   36 ..............................
........................................................................
   1    -83.9346400 -0.839346E+02  0.278E-03    0.78       0.0  T
   2    -83.9346402 -0.205817E-06  0.119E-03    0.78      12.9  T
   3    -83.9346402 -0.148221E-07  0.623E-04    0.78      24.5  T
   4    -83.9346402 -0.734644E-09  0.200E-04    0.78      76.3  T
   5    -83.9346402 -0.676337E-09  0.566E-05    0.78     269.3  T
     SCC iter.                  ...        0 min,  0.024 sec
     gradient                   ...        0 min,  0.090 sec
 * total energy  :   -83.1333610 Eh     change       -0.1299133E-04 Eh
   gradient norm :     0.0017032 Eh/α   predicted    -0.7558127E-05 ( -41.82%)
   displ. norm   :     0.0670155 α      lambda       -0.9221402E-05
   maximum displ.:     0.0448683 α      in ANC's #1, #4, #2, ...

........................................................................
.............................. CYCLE   37 ..............................
........................................................................
   1    -83.9350161 -0.839350E+02  0.189E-03    0.78       0.0  T
   2    -83.9350163 -0.123828E-06  0.938E-04    0.78      16.3  T
   3    -83.9350163 -0.267246E-07  0.482E-04    0.78      31.6  T
   4    -83.9350163 -0.109634E-08  0.175E-04    0.78      87.0  T
   5    -83.9350163 -0.530065E-09  0.437E-05    0.78     349.2  T
     SCC iter.                  ...        0 min,  0.019 sec
     gradient                   ...        0 min,  0.084 sec
 * total energy  :   -83.1333716 Eh     change       -0.1054560E-04 Eh
   gradient norm :     0.0011968 Eh/α   predicted    -0.4620564E-05 ( -56.18%)
   displ. norm   :     0.0997304 α      lambda       -0.1286154E-04
   maximum displ.:     0.0686454 α      in ANC's #1, #4, #7, ...

........................................................................
.............................. CYCLE   38 ..............................
........................................................................
   1    -83.9352806 -0.839353E+02  0.203E-03    0.77       0.0  T
   2    -83.9352808 -0.170717E-06  0.105E-03    0.77      14.5  T
   3    -83.9352808 -0.357830E-07  0.522E-04    0.77      29.2  T
   4    -83.9352808 -0.148972E-09  0.186E-04    0.77      82.1  T
   5    -83.9352808 -0.988251E-09  0.525E-05    0.77     290.7  T
     SCC iter.                  ...        0 min,  0.019 sec
     gradient                   ...        0 min,  0.084 sec
 * total energy  :   -83.1333856 Eh     change       -0.1398905E-04 Eh
   gradient norm :     0.0012056 Eh/α   predicted    -0.6461800E-05 ( -53.81%)
   displ. norm   :     0.1115008 α      lambda       -0.1017139E-04
   maximum displ.:     0.0788734 α      in ANC's #1, #4, #7, ...

........................................................................
.............................. CYCLE   39 ..............................
........................................................................
   1    -83.9348848 -0.839349E+02  0.211E-03    0.77       0.0  T
   2    -83.9348850 -0.159858E-06  0.864E-04    0.77      17.6  T
   3    -83.9348850 -0.369202E-07  0.409E-04    0.77      37.2  T
   4    -83.9348850 -0.127838E-08  0.159E-04    0.77      96.1  T
   5    -83.9348850 -0.237264E-09  0.431E-05    0.77     354.2  T
     SCC iter.                  ...        0 min,  0.019 sec
     gradient                   ...        0 min,  0.084 sec
 * total energy  :   -83.1333970 Eh     change       -0.1147322E-04 Eh
   gradient norm :     0.0014939 Eh/α   predicted    -0.5117596E-05 ( -55.40%)
   displ. norm   :     0.1084566 α      lambda       -0.9191738E-05
   maximum displ.:     0.0764313 α      in ANC's #1, #4, #5, ...

........................................................................
.............................. CYCLE   40 ..............................
........................................................................
   1    -83.9350872 -0.839351E+02  0.185E-03    0.78       0.0  T
   2    -83.9350874 -0.167866E-06  0.928E-04    0.78      16.4  T
   3    -83.9350874 -0.433719E-07  0.325E-04    0.78      47.0  T
   4    -83.9350874 -0.117039E-08  0.169E-04    0.78      90.0  T
   5    -83.9350874 -0.793534E-10  0.422E-05    0.78     361.7  T
     SCC iter.                  ...        0 min,  0.019 sec
     gradient                   ...        0 min,  0.095 sec
 * total energy  :   -83.1334079 Eh     change       -0.1089602E-04 Eh
   gradient norm :     0.0011351 Eh/α   predicted    -0.4624539E-05 ( -57.56%)
   displ. norm   :     0.0993653 α      lambda       -0.8155484E-05
   maximum displ.:     0.0724672 α      in ANC's #1, #5, #4, ...

........................................................................
.............................. CYCLE   41 ..............................
........................................................................
   1    -83.9350535 -0.839351E+02  0.221E-03    0.78       0.0  T
   2    -83.9350537 -0.205299E-06  0.116E-03    0.78      13.1  T
   3    -83.9350537 -0.546639E-07  0.443E-04    0.78      34.4  T
   4    -83.9350537 -0.161468E-08  0.203E-04    0.78      75.2  T
   5    -83.9350537 -0.236255E-09  0.457E-05    0.78     333.9  T
   6    -83.9350537 -0.440679E-10  0.102E-05    0.78    1500.2  T
     SCC iter.                  ...        0 min,  0.023 sec
     gradient                   ...        0 min,  0.084 sec
 * total energy  :   -83.1334173 Eh     change       -0.9381700E-05 Eh
   gradient norm :     0.0007599 Eh/α   predicted    -0.4097602E-05 ( -56.32%)
   displ. norm   :     0.0768043 α      lambda       -0.5651219E-05
   maximum displ.:     0.0598646 α      in ANC's #1, #5, #4, ...

........................................................................
.............................. CYCLE   42 ..............................
........................................................................
   1    -83.9352591 -0.839353E+02  0.184E-03    0.79       0.0  T
   2    -83.9352592 -0.148835E-06  0.933E-04    0.79      16.3  T
   3    -83.9352593 -0.370613E-07  0.265E-04    0.79      57.5  T
   4    -83.9352593 -0.667427E-09  0.148E-04    0.79     102.9  T
   5    -83.9352593 -0.235900E-09  0.394E-05    0.79     387.5  T
     SCC iter.                  ...        0 min,  0.020 sec
     gradient                   ...        0 min,  0.085 sec
 * total energy  :   -83.1334237 Eh     change       -0.6376047E-05 Eh
   gradient norm :     0.0006813 Eh/α   predicted    -0.2835685E-05 ( -55.53%)
   displ. norm   :     0.0569328 α      lambda       -0.3847389E-05
   maximum displ.:     0.0450491 α      in ANC's #1, #5, #2, ...
 * RMSD in coord.:     0.4174774 α      energy gain  -0.6917119E-03 Eh

generating ANC from model Hessian ...
Using Lindh-Hessian (1995)
 Shifting diagonal of input Hessian by   9.833988989746910E-003
 Lowest  eigenvalues of input Hessian
    0.000000    0.000000    0.000000    0.000000    0.000000    0.000000
    0.010000    0.010249    0.010436    0.010805    0.011404    0.012440
    0.012778    0.013770    0.014508    0.016582    0.016695    0.017548
 Highest eigenvalues
    2.049018    2.190856    2.211797    2.411386    2.472034    2.510603
 

........................................................................
.............................. CYCLE   43 ..............................
........................................................................
   1    -83.9352674 -0.839353E+02  0.114E-03    0.79       0.0  T
   2    -83.9352674 -0.547416E-07  0.714E-04    0.79      21.4  T
   3    -83.9352675 -0.184821E-07  0.282E-04    0.79      54.0  T
   4    -83.9352675 -0.195413E-09  0.121E-04    0.79     125.7  T
   5    -83.9352675 -0.112792E-09  0.252E-05    0.79     605.2  T
     SCC iter.                  ...        0 min,  0.019 sec
     gradient                   ...        0 min,  0.084 sec
 * total energy  :   -83.1334281 Eh     change       -0.4380885E-05 Eh
   gradient norm :     0.0008820 Eh/α   predicted     0.0000000E+00 (-100.00%)
   displ. norm   :     0.0166107 α      lambda       -0.1854144E-05
   maximum displ.:     0.0129181 α      in ANC's #1, #8, #5, ...

   *** GEOMETRY OPTIMIZATION CONVERGED AFTER 43 ITERATIONS ***

------------------------------------------------------------------------
 total energy gain   :        -0.0332833 Eh      -20.8856 kcal/mol
 total RMSD          :         0.8593244 a0        0.4547 Å
 total power (kW/mol):        -2.0322183 (step)  -13.2946 (real)
------------------------------------------------------------------------

 ANCopt (total)                0 d,  0 h,  0 min,  6.573 sec
 optimizer setup                ...        0 min,  0.001 sec (  0.013%)
 model hessian                  ...        0 min,  0.096 sec (  1.458%)
 ANC generation                 ...        0 min,  0.008 sec (  0.128%)
 coordinate transformation      ...        0 min,  0.002 sec (  0.028%)
 single point calculation       ...        0 min,  6.439 sec ( 97.961%)
 optimization log               ...        0 min,  0.014 sec (  0.206%)
 hessian update                 ...        0 min,  0.002 sec (  0.024%)
 rational function              ...        0 min,  0.007 sec (  0.106%)

================
 final structure:
================
43
 xtb: 6.5.1 (579679a)
C           -2.56866260941738        2.24232995633670       -2.04861933262342
O           -2.28562721072893        1.31638903372571       -0.96873969393351
C           -2.25306311123709        1.77390183199191        0.23562193900012
O           -2.46690991166402        2.86361927788261        0.65083242020766
C           -1.84985591868463        0.57954517511383        1.28143929202787
C           -1.45186735866643        1.25681228325131        2.59382676060452
N           -0.75086682203126       -0.08530139491354        0.67120703917677
C           -0.90230641814128       -1.15546399180813       -0.00966406701440
C            0.28599841706432       -1.81732029589920       -0.67241252444253
C            0.49328558318037       -3.21803997395505       -0.07547039383951
C            0.05943222466991       -1.87785318488859       -2.19129520076416
N            1.44689085657711       -0.98401504506466       -0.38759404189318
C            2.68808831748318       -1.26004908875755       -0.84285452320732
O            2.99705946020383       -2.24249678791237       -1.49531054167370
C            3.67444089603344       -0.21824345515175       -0.46793109582627
N            4.94240815988318       -0.19900468083744       -0.73423204658424
N            5.43601490547214        0.95970546934806       -0.21502531398533
C            4.43881106148925        1.57815776160363        0.33533310956759
C            4.45413227073235        2.88305420075319        1.03091837736439
O            3.29272873363002        0.88593357273038        0.21204055708088
N           -2.12775816702932       -1.78059706432629       -0.17493628049008
C           -3.26888922748157       -1.37791385346178        0.43856313581411
O           -4.34557222562776       -1.92230372691612        0.36154091809853
C           -3.08798710958293       -0.17114985751926        1.30102653911914
O           -4.08884413724507        0.20662561568398        1.99452176154668
H           -2.92291775226308        1.63146300864166       -2.87508411990831
H           -1.64728110770514        2.75884719129587       -2.31703496160889
H           -3.32799941769509        2.95544484092090       -1.72770183190424
H           -1.18135454810252        0.49054333287764        3.31669838302420
H           -0.59772450005501        1.90496930241099        2.41432403957060
H           -2.28666264510172        1.84254579044386        2.97258554852630
H           -0.38852842495435       -3.83084831438617       -0.24544049331411
H            1.34969444912520       -3.69150230236916       -0.55328548005495
H            0.67448181693291       -3.14063920477644        0.99496878569762
H           -0.82357688870805       -2.47044234634359       -2.41812274318799
H           -0.07418915523727       -0.87125462966309       -2.58320221621534
H            0.92380689728716       -2.33900435718608       -2.66687296594576
H            1.28347270962201       -0.14231951930445        0.14527344492773
H            3.79260915327201        3.58265570265848        0.52065142870414
H            4.09360083393795        2.76304276495416        2.05189940548012
H            5.46670841251218        3.28082050412407        1.04404970829530
H           -2.20641549229965       -2.60910781316093       -0.75177402821678
H           -4.88880399942132       -0.35153372814918        1.85528130279711
 
 Bond Distances (Angstroems)
 ---------------------------
C1-O2=1.4504         C1-H26=1.0871        C1-H27=1.0899        C1-H28=1.0900        O2-C1=1.4504         O2-C3=1.2887         
C3-O2=1.2887         C3-O4=1.1856         C3-C5=1.6379         O4-C3=1.1856         C5-C3=1.6379         C5-C6=1.5295         
C5-N7=1.4220         C5-C24=1.4481        C6-C5=1.5295         C6-H29=1.0876        C6-H30=1.0871        C6-H31=1.0879        
N7-C5=1.4220         N7-C8=1.2774         C8-N7=1.2774         C8-C9=1.5131         C8-N21=1.3856        C9-C8=1.5131         
C9-C10=1.5367        C9-C11=1.5369        C9-N12=1.4571        C10-C9=1.5367        C10-H32=1.0872       C10-H33=1.0890       
C10-H34=1.0884       C11-C9=1.5369        C11-H35=1.0873       C11-H36=1.0884       C11-H37=1.0890       N12-C9=1.4571        
N12-C13=1.3506       N12-H38=1.0095       C13-N12=1.3506       C13-O14=1.2192       C13-C15=1.4828       O14-C13=1.2192       
C15-C13=1.4828       C15-N16=1.2958       C15-O20=1.3518       N16-C15=1.2958       N16-N17=1.3623       N17-N16=1.3623       
N17-C18=1.2961       C18-N17=1.2961       C18-C19=1.4788       C18-O20=1.3446       C19-C18=1.4788       C19-H39=1.0897       
C19-H40=1.0894       C19-H41=1.0880       O20-C15=1.3518       O20-C18=1.3446       N21-C8=1.3856        N21-C22=1.3567       
N21-H42=1.0126       C22-N21=1.3567       C22-O23=1.2089       C22-C24=1.4943       O23-C22=1.2089       C24-C5=1.4481        
C24-C22=1.4943       C24-O25=1.2749       O25-C24=1.2749       O25-H43=0.9853       H26-C1=1.0871        H27-C1=1.0899        
H28-C1=1.0900        H29-C6=1.0876        H30-C6=1.0871        H31-C6=1.0879        H32-C10=1.0872       H33-C10=1.0890       
H34-C10=1.0884       H35-C11=1.0873       H36-C11=1.0884       H37-C11=1.0890       H38-N12=1.0095       H39-C19=1.0897       
H40-C19=1.0894       H41-C19=1.0880       H42-N21=1.0126       H43-O25=0.9853       
 C  H  Rav=1.0884 sigma=0.0010  Rmin=1.0871  Rmax=1.0900    15
 C  C  Rav=1.5176 sigma=0.0511  Rmin=1.4481  Rmax=1.6379     9
 N  H  Rav=1.0111 sigma=0.0015  Rmin=1.0095  Rmax=1.0126     2
 N  C  Rav=1.3552 sigma=0.0601  Rmin=1.2774  Rmax=1.4571     8
 N  N  Rav=1.3623 sigma=0.0000  Rmin=1.3623  Rmax=1.3623     1
 O  H  Rav=0.9853 sigma=0.0000  Rmin=0.9853  Rmax=0.9853     1
 O  C  Rav=1.2905 sigma=0.0831  Rmin=1.1856  Rmax=1.4504     8
 
 selected bond angles (degree)
 --------------------
H26-C1-O2=105.72               H27-C1-O2=108.72               H27-C1-H26=110.77              H28-C1-O2=109.54               
H28-C1-H26=111.37              H28-C1-H27=110.57              C3-O2-C1=118.30                O4-C3-O2=130.47                
C5-C3-O2=110.12                C5-C3-O4=119.41                C6-C5-C3=106.80                N7-C5-C3=104.90                
N7-C5-C6=111.97                C24-C5-C3=100.15               C24-C5-C6=116.13               C24-C5-N7=115.10               
H29-C6-C5=108.85               H30-C6-C5=109.07               H30-C6-H29=109.53              H31-C6-C5=109.72               
H31-C6-H29=109.80              H31-C6-H30=109.84              C8-N7-C5=121.92                C9-C8-N7=120.45                
N21-C8-N7=123.12               N21-C8-C9=116.42               C10-C9-C8=109.54               C11-C9-C8=109.53               
C11-C9-C10=111.59              N12-C9-C8=106.85               N12-C9-C10=109.75              N12-C9-C11=109.46              
H32-C10-C9=110.10              H33-C10-C9=109.39              H33-C10-H32=108.92             H34-C10-C9=109.86              
H34-C10-H32=109.20             H34-C10-H33=109.36             
 
 selected dihedral angles (degree)
 ---------------------------------
C3-O2-C1-H26=201.28           C3-O2-C1-H27= 82.31           C3-O2-C1-H28=321.38           O4-C3-O2-C1=  2.98            
C5-C3-O2-C1=182.64            C6-C5-C3-O2=164.50            C6-C5-C3-O4=344.20            N7-C5-C3-O2= 45.50            
N7-C5-C3-O4=225.21            C24-C5-C3-O2=285.93           C24-C5-C3-O4=105.63           H29-C6-C5-C3=179.72           
H29-C6-C5-N7=294.02           H29-C6-C5-C24= 69.05          H30-C6-C5-C3=299.19           H30-C6-C5-N7= 53.48           
H30-C6-C5-C24=188.51          H31-C6-C5-C3= 59.55           H31-C6-C5-N7=173.84           H31-C6-C5-C24=308.87          
C8-N7-C5-C3=262.62            C8-N7-C5-C6=147.16            C8-N7-C5-C24= 11.64           C9-C8-N7-C5=178.53            
N21-C8-N7-C5=357.79           C10-C9-C8-N7=117.18           C10-C9-C8-N21=297.87          C11-C9-C8-N7=239.87           
C11-C9-C8-N21= 60.56          N12-C9-C8-N7=358.35           N12-C9-C8-N21=179.04          H32-C10-C9-C8= 60.42          
H32-C10-C9-C11=298.95         H32-C10-C9-N12=177.44         H33-C10-C9-C8=180.07          H33-C10-C9-C11= 58.60         
H33-C10-C9-N12=297.09         H34-C10-C9-C8=300.12          H34-C10-C9-C11=178.65         H34-C10-C9-N12= 57.14         
           -------------------------------------------------
          |                Final Singlepoint                |
           -------------------------------------------------

          ...................................................
          :                      SETUP                      :
          :.................................................:
          :  # basis functions                 136          :
          :  # atomic orbitals                 136          :
          :  # shells                           86          :
          :  # electrons                       134          :
          :  # halogen bonds                     0          :
          :  max. iterations                   250          :
          :  Hamiltonian                  GFN1-xTB          :
          :  restarted?                      false          :
          :  GBSA solvation                   true          :
          :  PC potential                    false          :
          :  electronic temp.          300.0000000     K    :
          :  accuracy                    1.0000000          :
          :  -> integral cutoff          0.2500000E+02      :
          :  -> integral neglect         0.1000000E-07      :
          :  -> SCF convergence          0.1000000E-05 Eh   :
          :  -> wf. convergence          0.2000000E-04 e    :
          :  Broyden damping             0.4000000          :
          ...................................................

 iter      E             dE          RMSdq      gap      omega  full diag
   1    -83.9352675 -0.839353E+02  0.760E-06    0.79       0.0  T
   2    -83.9352675 -0.980549E-12  0.329E-06    0.79    4637.8  T
   3    -83.9352675 -0.227374E-12  0.177E-06    0.79    8600.2  T

   *** convergence criteria satisfied after 3 iterations ***

         #    Occupation            Energy/Eh            Energy/eV
      -------------------------------------------------------------
         1        2.0000           -0.9189060             -25.0047
       ...           ...                  ...                  ...
        61        2.0000           -0.4992747             -13.5860
        62        2.0000           -0.4955084             -13.4835
        63        2.0000           -0.4849232             -13.1954
        64        2.0000           -0.4721509             -12.8479
        65        2.0000           -0.4673928             -12.7184
        66        2.0000           -0.4572091             -12.4413
        67        2.0000           -0.4556750             -12.3995 (HOMO)
        68        0.0000           -0.4267135             -11.6115 (LUMO)
        69                         -0.3380870              -9.1998
        70                         -0.3169180              -8.6238
        71                         -0.3100467              -8.4368
        72                         -0.2703183              -7.3557
       ...                                ...                  ...
       136                          0.7531796              20.4951
      -------------------------------------------------------------
                  HL-Gap            0.0289615 Eh            0.7881 eV
             Fermi-level           -0.4411081 Eh          -12.0032 eV

 SCC (total)                   0 d,  0 h,  0 min,  0.136 sec
 SCC setup                      ...        0 min,  0.002 sec (  1.519%)
 Dispersion                     ...        0 min,  0.000 sec (  0.260%)
 classical contributions        ...        0 min,  0.000 sec (  0.087%)
 integral evaluation            ...        0 min,  0.037 sec ( 27.019%)
 iterations                     ...        0 min,  0.012 sec (  8.828%)
 molecular gradient             ...        0 min,  0.084 sec ( 61.587%)
 printout                       ...        0 min,  0.001 sec (  0.652%)

         :::::::::::::::::::::::::::::::::::::::::::::::::::::
         ::                     SUMMARY                     ::
         :::::::::::::::::::::::::::::::::::::::::::::::::::::
         :: total energy             -83.133428079745 Eh    ::
         :: total w/o Gsasa/hb       -83.107385939548 Eh    ::
         :: gradient norm              0.000882656023 Eh/a0 ::
         :: HOMO-LUMO gap              0.788082208112 eV    ::
         ::.................................................::
         :: SCC energy               -83.935267462428 Eh    ::
         :: -> electrostatic           0.421988368343 Eh    ::
         :: -> Gsolv                  -0.122529850480 Eh    ::
         ::    -> Gelec               -0.096487710282 Eh    ::
         ::    -> Gsasa               -0.023833656623 Eh    ::
         ::    -> Ghb                 -0.009832762579 Eh    ::
         ::    -> Gshift               0.007624279005 Eh    ::
         :: repulsion energy           0.829383721067 Eh    ::
         :: dispersion energy         -0.027544338384 Eh    ::
         :: halogen bond corr.         0.000000000000 Eh    ::
         :: add. restraining           0.000000000000 Eh    ::
         :: total charge               1.000000000261 e     ::
         :::::::::::::::::::::::::::::::::::::::::::::::::::::

           -------------------------------------------------
          |                Property Printout                |
           -------------------------------------------------

    * Orbital Energies and Occupations

         #    Occupation            Energy/Eh            Energy/eV
      -------------------------------------------------------------
         1        2.0000           -0.9189060             -25.0047
       ...           ...                  ...                  ...
        55        2.0000           -0.5351300             -14.5616
        56        2.0000           -0.5298888             -14.4190
        57        2.0000           -0.5254620             -14.2985
        58        2.0000           -0.5184114             -14.1067
        59        2.0000           -0.5113326             -13.9141
        60        2.0000           -0.5098938             -13.8749
        61        2.0000           -0.4992747             -13.5860
        62        2.0000           -0.4955084             -13.4835
        63        2.0000           -0.4849232             -13.1954
        64        2.0000           -0.4721509             -12.8479
        65        2.0000           -0.4673928             -12.7184
        66        2.0000           -0.4572091             -12.4413
        67        2.0000           -0.4556750             -12.3995 (HOMO)
        68        0.0000           -0.4267135             -11.6115 (LUMO)
        69                         -0.3380870              -9.1998
        70                         -0.3169180              -8.6238
        71                         -0.3100467              -8.4368
        72                         -0.2703183              -7.3557
        73                         -0.2611865              -7.1072
        74                         -0.2043784              -5.5614
        75                         -0.1661996              -4.5225
        76                         -0.1606256              -4.3708
        77                         -0.1549806              -4.2172
        78                         -0.1506790              -4.1002
       ...                                ...                  ...
       136                          0.7531796              20.4951
      -------------------------------------------------------------
                  HL-Gap            0.0289615 Eh            0.7881 eV
             Fermi-level           -0.4411081 Eh          -12.0032 eV

  Mulliken/CM5 charges         n(s)   n(p)   n(d)
     1C     0.15375  0.03107   0.999  2.847  0.000
     2O    -0.37910 -0.46444   1.677  4.703  0.000
     3C     0.62974  0.70026   0.958  2.412  0.000
     4O    -0.45467 -0.50697   1.713  4.742  0.000
     5C     0.13345  0.19143   1.068  2.798  0.000
     6C    -0.08557 -0.22344   1.024  3.062  0.000
     7N    -0.36246 -0.55655   1.526  3.836  0.000
     8C     0.30408  0.45495   1.029  2.667  0.000
     9C     0.15445  0.19581   1.064  2.781  0.000
    10C    -0.11145 -0.25101   1.024  3.087  0.000
    11C    -0.11112 -0.25070   1.024  3.087  0.000
    12N    -0.34258 -0.69424   1.427  3.916  0.000
    13C     0.47164  0.58019   0.976  2.553  0.000
    14O    -0.57189 -0.61825   1.725  4.847  0.000
    15C     0.33089  0.45696   1.006  2.663  0.000
    16N    -0.21746 -0.32158   1.565  3.652  0.000
    17N    -0.26467 -0.37255   1.563  3.702  0.000
    18C     0.39207  0.50076   1.008  2.600  0.000
    19C    -0.11221 -0.24959   1.012  3.100  0.000
    20O    -0.36035 -0.41686   1.697  4.663  0.000
    21N    -0.27176 -0.61985   1.438  3.834  0.000
    22C     0.47293  0.57856   0.974  2.553  0.000
    23O    -0.50598 -0.55242   1.718  4.788  0.000
    24C     0.34425  0.38089   1.089  2.567  0.000
    25O    -0.39617 -0.59266   1.688  4.708  0.000
    26H     0.08565  0.14605   0.914  0.000  0.000
    27H     0.08346  0.14354   0.917  0.000  0.000
    28H     0.08088  0.14385   0.919  0.000  0.000
    29H     0.08184  0.13771   0.918  0.000  0.000
    30H     0.08372  0.14188   0.916  0.000  0.000
    31H     0.08086  0.14068   0.919  0.000  0.000
    32H     0.05257  0.10931   0.947  0.000  0.000
    33H     0.08025  0.14097   0.920  0.000  0.000
    34H     0.05802  0.11494   0.942  0.000  0.000
    35H     0.05310  0.10984   0.947  0.000  0.000
    36H     0.05577  0.11311   0.944  0.000  0.000
    37H     0.08098  0.14188   0.919  0.000  0.000
    38H     0.26420  0.48082   0.736  0.000  0.000
    39H     0.08032  0.13486   0.920  0.000  0.000
    40H     0.07977  0.13438   0.920  0.000  0.000
    41H     0.07204  0.12773   0.928  0.000  0.000
    42H     0.31121  0.50981   0.689  0.000  0.000
    43H     0.47552  0.64887   0.524  0.000  0.000

Wiberg/Mayer (AO) data.
largest (>0.10) Wiberg bond orders for each atom

 ---------------------------------------------------------------------------
     #   Z sym  total        # sym  WBO       # sym  WBO       # sym  WBO
 ---------------------------------------------------------------------------
     1   6 C    3.814 --    26 H    0.980    28 H    0.980    27 H    0.976
                             2 O    0.834
     2   8 O    2.256 --     3 C    1.224     1 C    0.834     4 O    0.149
     3   6 C    3.857 --     4 O    1.754     2 O    1.224     5 C    0.694
     4   8 O    2.100 --     3 C    1.754     2 O    0.149
     5   6 C    3.954 --    24 C    1.111     7 N    1.021     6 C    0.952
                             3 C    0.694
     6   6 C    3.965 --    30 H    0.980    31 H    0.980    29 H    0.976
                             5 C    0.952
     7   7 N    3.047 --     8 C    1.686     5 C    1.021
     8   6 C    3.911 --     7 N    1.686    21 N    1.099     9 C    0.985
     9   6 C    3.938 --     8 C    0.985    11 C    0.972    10 C    0.971
                            12 N    0.944
    10   6 C    3.982 --    34 H    0.984    32 H    0.983    33 H    0.975
                             9 C    0.971
    11   6 C    3.983 --    36 H    0.985    35 H    0.982    37 H    0.975
                             9 C    0.972
    12   7 N    3.342 --    13 C    1.248     9 C    0.944    38 H    0.878
                            14 O    0.175
    13   6 C    3.915 --    14 O    1.589    12 N    1.248    15 C    0.995
    14   8 O    1.908 --    13 C    1.589    12 N    0.175
    15   6 C    3.874 --    16 N    1.623    20 O    1.046    13 C    0.995
    16   7 N    3.002 --    15 C    1.623    17 N    1.199
    17   7 N    2.983 --    18 C    1.612    16 N    1.199
    18   6 C    3.868 --    17 N    1.612    20 O    1.070    19 C    1.032
    19   6 C    3.986 --    18 C    1.032    41 H    0.982    40 H    0.963
                            39 H    0.962
    20   8 O    2.313 --    18 C    1.070    15 C    1.046
    21   7 N    3.479 --    22 C    1.196     8 C    1.099    42 H    0.864
                            23 O    0.166
    22   6 C    3.921 --    23 O    1.643    21 N    1.196    24 C    0.972
    23   8 O    1.981 --    22 C    1.643    21 N    0.166
    24   6 C    3.806 --    25 O    1.365     5 C    1.111    22 C    0.972
    25   8 O    2.284 --    24 C    1.365    43 H    0.741
    26   1 H    1.002 --     1 C    0.980
    27   1 H    0.997 --     1 C    0.976
    28   1 H    0.997 --     1 C    0.980
    29   1 H    0.993 --     6 C    0.976
    30   1 H    0.997 --     6 C    0.980
    31   1 H    0.998 --     6 C    0.980
    32   1 H    0.997 --    10 C    0.983
    33   1 H    1.005 --    10 C    0.975
    34   1 H    0.999 --    10 C    0.984
    35   1 H    0.997 --    11 C    0.982
    36   1 H    0.999 --    11 C    0.985
    37   1 H    1.004 --    11 C    0.975
    38   1 H    0.949 --    12 N    0.878
    39   1 H    0.997 --    19 C    0.962
    40   1 H    0.997 --    19 C    0.963
    41   1 H    0.998 --    19 C    0.982
    42   1 H    0.910 --    21 N    0.864
    43   1 H    0.785 --    25 O    0.741
 ---------------------------------------------------------------------------

Topologies differ in total number of bonds
Writing topology from bond orders to xtbtopo.mol

 dipole moment from electron density (au)
     X       Y       Z   
  -6.4779   1.1717   1.5672  total (Debye):   17.200

           -------------------------------------------------
          |                Geometry Summary                 |
           -------------------------------------------------

      molecular mass/u    :      352.3231817
   center of mass at/Å    :        0.0588278      -0.0543730       0.0294791
  moments of inertia/u·Å² :        0.1449899E+04   0.3644626E+04   0.4359921E+04
rotational constants/cm⁻¹ :        0.1162676E-01   0.4625339E-02   0.3866500E-02

 * 38 selected distances

     #   Z          #   Z                                           value/Å
     2   8 O        3   6 C                                       1.2887458
     3   6 C        4   8 O                                       1.1855862
     5   6 C        6   6 C                                       1.5295251
     5   6 C        7   7 N                                       1.4220344
     7   7 N        8   6 C                                       1.2774066
     9   6 C       10   6 C                                       1.5366600
     9   6 C       11   6 C                                       1.5368804 (max)
     9   6 C       12   7 N                                       1.4571173
    12   7 N       13   6 C                                       1.3505659
    13   6 C       14   8 O                                       1.2191660
    15   6 C       16   7 N                                       1.2957730
    17   7 N       18   6 C                                       1.2960685
    18   6 C       19   6 C                                       1.4787930
    15   6 C       20   8 O                                       1.3517666
    18   6 C       20   8 O                                       1.3445744
     8   6 C       21   7 N                                       1.3855824
    21   7 N       22   6 C                                       1.3567298
    22   6 C       23   8 O                                       1.2089414
     5   6 C       24   6 C                                       1.4480663
    24   6 C       25   8 O                                       1.2748980
     1   6 C       26   1 H                                       1.0870600
     1   6 C       27   1 H                                       1.0898537
     1   6 C       28   1 H                                       1.0900062
     6   6 C       29   1 H                                       1.0876070
     6   6 C       30   1 H                                       1.0871472
     6   6 C       31   1 H                                       1.0878536
    10   6 C       32   1 H                                       1.0872075
    10   6 C       33   1 H                                       1.0889950
    10   6 C       34   1 H                                       1.0884223
    11   6 C       35   1 H                                       1.0873445
    11   6 C       36   1 H                                       1.0884331
    11   6 C       37   1 H                                       1.0890264
    12   7 N       38   1 H                                       1.0095072
    19   6 C       39   1 H                                       1.0896916
    19   6 C       40   1 H                                       1.0893981
    19   6 C       41   1 H                                       1.0879803
    21   7 N       42   1 H                                       1.0126001
    25   8 O       43   1 H                                       0.9853252 (min)

 * 6 distinct bonds (by element types)

   Z      Z             #   av. dist./Å        max./Å        min./Å
   1 H    6 C          15     1.0884017     1.0900062     1.0870600
   6 C    6 C           5     1.5059850     1.5368804     1.4480663
   1 H    7 N           2     1.0110537     1.0126001     1.0095072
   6 C    7 N           8     1.3551597     1.4571173     1.2774066
   1 H    8 O           1     0.9853252     0.9853252     0.9853252
   6 C    8 O           7     1.2676683     1.3517666     1.1855862


optimized geometry written to: xtbopt.xyz


           -------------------------------------------------
          | TOTAL ENERGY              -83.133428079745 Eh   |
          | GRADIENT NORM               0.000882656023 Eh/α |
          | HOMO-LUMO GAP               0.788082208112 eV   |
           -------------------------------------------------

------------------------------------------------------------------------
 * finished run on 2023/06/20 at 15:29:39.539     
------------------------------------------------------------------------
 total:
 * wall-time:     0 d,  0 h,  0 min,  7.031 sec
 *  cpu-time:     0 d,  0 h,  0 min,  6.915 sec
 * ratio c/w:     0.984 speedup
 SCF:
 * wall-time:     0 d,  0 h,  0 min,  0.206 sec
 *  cpu-time:     0 d,  0 h,  0 min,  0.197 sec
 * ratio c/w:     0.956 speedup
 ANC optimizer:
 * wall-time:     0 d,  0 h,  0 min,  6.716 sec
 *  cpu-time:     0 d,  0 h,  0 min,  6.661 sec
 * ratio c/w:     0.992 speedup

