43
 energy: -83.133428079745 gnorm: 0.000882656023 xtb: 6.5.1 (579679a)
C           -2.56866260941738        2.24232995633670       -2.04861933262342
O           -2.28562721072893        1.31638903372571       -0.96873969393351
C           -2.25306311123709        1.77390183199191        0.23562193900012
O           -2.46690991166402        2.86361927788261        0.65083242020766
C           -1.84985591868463        0.57954517511383        1.28143929202787
C           -1.45186735866643        1.25681228325131        2.59382676060452
N           -0.75086682203126       -0.08530139491354        0.67120703917677
C           -0.90230641814128       -1.15546399180813       -0.00966406701440
C            0.28599841706432       -1.81732029589920       -0.67241252444253
C            0.49328558318037       -3.21803997395505       -0.07547039383951
C            0.05943222466991       -1.87785318488859       -2.19129520076416
N            1.44689085657711       -0.98401504506466       -0.38759404189318
C            2.68808831748318       -1.26004908875755       -0.84285452320732
O            2.99705946020383       -2.24249678791237       -1.49531054167370
C            3.67444089603344       -0.21824345515175       -0.46793109582627
N            4.94240815988318       -0.19900468083744       -0.73423204658424
N            5.43601490547214        0.95970546934806       -0.21502531398533
C            4.43881106148925        1.57815776160363        0.33533310956759
C            4.45413227073235        2.88305420075319        1.03091837736439
O            3.29272873363002        0.88593357273038        0.21204055708088
N           -2.12775816702932       -1.78059706432629       -0.17493628049008
C           -3.26888922748157       -1.37791385346178        0.43856313581411
O           -4.34557222562776       -1.92230372691612        0.36154091809853
C           -3.08798710958293       -0.17114985751926        1.30102653911914
O           -4.08884413724507        0.20662561568398        1.99452176154668
H           -2.92291775226308        1.63146300864166       -2.87508411990831
H           -1.64728110770514        2.75884719129587       -2.31703496160889
H           -3.32799941769509        2.95544484092090       -1.72770183190424
H           -1.18135454810252        0.49054333287764        3.31669838302420
H           -0.59772450005501        1.90496930241099        2.41432403957060
H           -2.28666264510172        1.84254579044386        2.97258554852630
H           -0.38852842495435       -3.83084831438617       -0.24544049331411
H            1.34969444912520       -3.69150230236916       -0.55328548005495
H            0.67448181693291       -3.14063920477644        0.99496878569762
H           -0.82357688870805       -2.47044234634359       -2.41812274318799
H           -0.07418915523727       -0.87125462966309       -2.58320221621534
H            0.92380689728716       -2.33900435718608       -2.66687296594576
H            1.28347270962201       -0.14231951930445        0.14527344492773
H            3.79260915327201        3.58265570265848        0.52065142870414
H            4.09360083393795        2.76304276495416        2.05189940548012
H            5.46670841251218        3.28082050412407        1.04404970829530
H           -2.20641549229965       -2.60910781316093       -0.75177402821678
H           -4.88880399942132       -0.35153372814918        1.85528130279711
