      -----------------------------------------------------------      
     |                   =====================                   |     
     |                           x T B                           |     
     |                   =====================                   |     
     |                         S. Grimme                         |     
     |          Mulliken Center for Theoretical Chemistry        |     
     |                    University of Bonn                     |     
      -----------------------------------------------------------      

   * xtb version 6.5.1 (579679a) compiled by 'ehlert@majestix' on 2022-07-11

   xtb is free software: you can redistribute it and/or modify it under
   the terms of the GNU Lesser General Public License as published by
   the Free Software Foundation, either version 3 of the License, or
   (at your option) any later version.
   
   xtb is distributed in the hope that it will be useful,
   but WITHOUT ANY WARRANTY; without even the implied warranty of
   MERCHANTABILITY or FITNESS FOR A PARTICULAR PURPOSE.  See the
   GNU Lesser General Public License for more details.
   
   Cite this work as:
   * C. Bannwarth, E. Caldeweyher, S. Ehlert, A. Hansen, P. Pracht,
     J. Seibert, S. Spicher, S. Grimme, WIREs Comput. Mol. Sci., 2020, 11,
     e01493. DOI: 10.1002/wcms.1493
   
   for GFN2-xTB:
   * C. Bannwarth, S. Ehlert and S. Grimme., J. Chem. Theory Comput., 2019,
     15, 1652-1671. DOI: 10.1021/acs.jctc.8b01176
   for GFN1-xTB:
   * S. Grimme, C. Bannwarth, P. Shushkov, J. Chem. Theory Comput., 2017,
     13, 1989-2009. DOI: 10.1021/acs.jctc.7b00118
   for GFN0-xTB:
   * P. Pracht, E. Caldeweyher, S. Ehlert, S. Grimme, ChemRxiv, 2019, preprint.
     DOI: 10.26434/chemrxiv.8326202.v1
   for GFN-FF:
   * S. Spicher and S. Grimme, Angew. Chem. Int. Ed., 2020, 59, 15665-15673.
     DOI: 10.1002/anie.202004239
   
   for ALPB and GBSA implicit solvation:
   * S. Ehlert, M. Stahn, S. Spicher, S. Grimme, J. Chem. Theory Comput.,
     2021, 17, 4250-4261. DOI: 10.1021/acs.jctc.1c00471
   
   for DFT-D4:
   * E. Caldeweyher, C. Bannwarth and S. Grimme, J. Chem. Phys., 2017,
     147, 034112. DOI: 10.1063/1.4993215
   * E. Caldeweyher, S. Ehlert, A. Hansen, H. Neugebauer, S. Spicher,
     C. Bannwarth and S. Grimme, J. Chem. Phys., 2019, 150, 154122.
     DOI: 10.1063/1.5090222
   * E. Caldeweyher, J.-M. Mewes, S. Ehlert and S. Grimme, Phys. Chem. Chem. Phys.
     2020, 22, 8499-8512. DOI: 10.1039/D0CP00502A
   
   for sTDA-xTB:
   * S. Grimme and C. Bannwarth, J. Chem. Phys., 2016, 145, 054103.
     DOI: 10.1063/1.4959605
   
   in the mass-spec context:
   * V. Asgeirsson, C. Bauer and S. Grimme, Chem. Sci., 2017, 8, 4879.
     DOI: 10.1039/c7sc00601b
   * J. Koopman and S. Grimme, ACS Omega 2019, 4, 12, 15120-15133.
     DOI: 10.1021/acsomega.9b02011
   
   for metadynamics refer to:
   * S. Grimme, J. Chem. Theory Comput., 2019, 155, 2847-2862
     DOI: 10.1021/acs.jctc.9b00143
   
   for SPH calculations refer to:
   * S. Spicher and S. Grimme, J. Chem. Theory Comput., 2021, 17, 1701-1714
     DOI: 10.1021/acs.jctc.0c01306
   
   with help from (in alphabetical order)
   P. Atkinson, C. Bannwarth, F. Bohle, G. Brandenburg, E. Caldeweyher
   M. Checinski, S. Dohm, S. Ehlert, S. Ehrlich, I. Gerasimov, C. Hölzer
   A. Katbashev, J. Koopman, C. Lavigne, S. Lehtola, F. März, M. Müller,
   F. Musil, H. Neugebauer, J. Pisarek, C. Plett, P. Pracht, F. Pultar,
   J. Seibert, P. Shushkov, S. Spicher, M. Stahn, M. Steiner, T. Strunk,
   J. Stückrath, T. Rose, and J. Unsleber
   
 * started run on 2023/06/20 at 15:00:27.867     

           -------------------------------------------------
          |                Calculation Setup                |
           -------------------------------------------------

          program call               : /lustre/hpc/kemi/ree/PhD/git/ReactivityQM/dep/xtb-6.5.1/bin/xtb --gfn 1 /lustre/hpc/kemi/ree/PhD/git/ReactivityQM/calculations/R01/reac02prodE05/conf08/R01_reac02prodE05_conf08_gfn1.xyz --opt --vfukui --chrg -1 --uhf 0 --alpb DMSO
          hostname                   : node312
          coordinate file            : /lustre/hpc/kemi/ree/PhD/git/ReactivityQM/calculations/R01/reac02prodE05/conf08/R01_reac02prodE05_conf08_gfn1.xyz
          omp threads                :                     1

   ID    Z sym.   atoms
    1    6 C      1, 3, 5, 6, 8, 11-15
    2    8 O      2, 4, 7, 9
    3    7 N      10, 16, 17
    4    1 H      18-33

           -------------------------------------------------
          |                 G F N 1 - x T B                 |
           -------------------------------------------------

        Reference                      10.1021/acs.jctc.7b00118
      * Hamiltonian:
        H0-scaling (s, p, d)           1.850000    2.250000    2.000000
        zeta-weighting                 0.000000
      * Dispersion:
        s8                             2.400000
        a1                             0.630000
        a2                             5.000000
        s9                             0.000000
      * Repulsion:
        kExp                           1.500000
        rExp                           1.000000
      * Coulomb:
        alpha                          2.000000
        third order                    atomic
        anisotropic                    false
      * Halogen bond correction:
        rad-scale                      1.300000
        damping                        0.440000

      * Solvation model:               ALPB
        Solvent                        DMSO
        Parameter file                 internal GFN1-xTB/ALPB
        Dielectric constant                4.6680E+01
        Reference state                gsolv [1 M gas/solution]
        Free energy shift                  7.6243E-03 Eh       4.7843E+00 kcal/mol
        Temperature                        2.9815E+02 K
        Density                            1.1000E+00 kg/L
        Solvent mass                       7.8130E+01 g/mol
        Interaction kernel             P16
        Born radius scaling (c1)           1.7672E+00
        Born radii integrator          GBOBC
        Born offset                        0.0000E+00 a0       0.0000E+00 AA
        H-bond correction              true
        Ion screening                  false
        Surface tension                    1.0000E-05 Eh       1.5569E+01 dyn/cm
        Grid points                               230 per atom

          ...................................................
          :                      SETUP                      :
          :.................................................:
          :  # basis functions                 100          :
          :  # atomic orbitals                 100          :
          :  # shells                           66          :
          :  # electrons                        96          :
          :  # halogen bonds                     0          :
          :  max. iterations                   250          :
          :  Hamiltonian                  GFN1-xTB          :
          :  restarted?                      false          :
          :  GBSA solvation                   true          :
          :  PC potential                    false          :
          :  electronic temp.          300.0000000     K    :
          :  accuracy                    1.0000000          :
          :  -> integral cutoff          0.2500000E+02      :
          :  -> integral neglect         0.1000000E-07      :
          :  -> SCF convergence          0.1000000E-05 Eh   :
          :  -> wf. convergence          0.2000000E-04 e    :
          :  Broyden damping             0.4000000          :
          ...................................................

 iter      E             dE          RMSdq      gap      omega  full diag
   1    -58.9007591 -0.589008E+02  0.829E+00    1.83       0.0  T
   2    -59.0674313 -0.166672E+00  0.495E+00    1.16       1.0  T
   3    -59.0476588  0.197725E-01  0.143E+00    1.44       1.0  T
   4    -59.0682159 -0.205571E-01  0.464E-01    1.30       1.0  T
   5    -59.0772036 -0.898772E-02  0.124E-01    1.22       1.0  T
   6    -59.0777667 -0.563059E-03  0.168E-02    1.23       1.0  T
   7    -59.0777733 -0.661732E-05  0.467E-03    1.23       3.7  T
   8    -59.0777735 -0.190697E-06  0.184E-03    1.23       9.4  T
   9    -59.0777735 -0.171864E-07  0.852E-04    1.23      20.4  T
  10    -59.0777735 -0.130547E-08  0.116E-04    1.23     149.5  T
  11    -59.0777735 -0.257920E-09  0.409E-05    1.23     425.8  T

   *** convergence criteria satisfied after 11 iterations ***

         #    Occupation            Energy/Eh            Energy/eV
      -------------------------------------------------------------
         1        2.0000           -0.8057494             -21.9256
       ...           ...                  ...                  ...
        42        2.0000           -0.4390876             -11.9482
        43        2.0000           -0.4185826             -11.3902
        44        2.0000           -0.3965485             -10.7906
        45        2.0000           -0.3923305             -10.6759
        46        2.0000           -0.3793331             -10.3222
        47        2.0000           -0.3647543              -9.9255
        48        2.0000           -0.3062438              -8.3333 (HOMO)
        49                         -0.2612186              -7.1081 (LUMO)
        50                         -0.1891733              -5.1477
        51                         -0.1215382              -3.3072
        52                         -0.1158509              -3.1525
        53                         -0.1102364              -2.9997
       ...                                ...                  ...
       100                          0.7324474              19.9309
      -------------------------------------------------------------
                  HL-Gap            0.0450253 Eh            1.2252 eV
             Fermi-level           -0.2837312 Eh           -7.7207 eV

 SCC (total)                   0 d,  0 h,  0 min,  0.078 sec
 SCC setup                      ...        0 min,  0.001 sec (  1.402%)
 Dispersion                     ...        0 min,  0.000 sec (  0.252%)
 classical contributions        ...        0 min,  0.000 sec (  0.089%)
 integral evaluation            ...        0 min,  0.014 sec ( 17.462%)
 iterations                     ...        0 min,  0.018 sec ( 22.801%)
 molecular gradient             ...        0 min,  0.045 sec ( 57.470%)
 printout                       ...        0 min,  0.000 sec (  0.484%)

         :::::::::::::::::::::::::::::::::::::::::::::::::::::
         ::                     SUMMARY                     ::
         :::::::::::::::::::::::::::::::::::::::::::::::::::::
         :: total energy             -58.547036357970 Eh    ::
         :: total w/o Gsasa/hb       -58.529348785521 Eh    ::
         :: gradient norm              0.099330732917 Eh/a0 ::
         :: HOMO-LUMO gap              1.225199984515 eV    ::
         ::.................................................::
         :: SCC energy               -59.077773535068 Eh    ::
         :: -> electrostatic           0.348962323977 Eh    ::
         :: -> Gsolv                  -0.095755098274 Eh    ::
         ::    -> Gelec               -0.078067525825 Eh    ::
         ::    -> Gsasa               -0.017630828652 Eh    ::
         ::    -> Ghb                 -0.007681022801 Eh    ::
         ::    -> Gshift               0.007624279005 Eh    ::
         :: repulsion energy           0.550655517273 Eh    ::
         :: dispersion energy         -0.019918340175 Eh    ::
         :: halogen bond corr.         0.000000000000 Eh    ::
         :: add. restraining           0.000000000000 Eh    ::
         :: total charge              -1.000000000000 e     ::
         :::::::::::::::::::::::::::::::::::::::::::::::::::::

      ----------------------------------------------------------- 
     |                   =====================                   |
     |                        A N C O P T                        |
     |                   =====================                   |
     |               Approximate Normal Coordinate               |
     |                Rational Function Optimizer                |
      ----------------------------------------------------------- 

          ...................................................
          :                      SETUP                      :
          :.................................................:
          :   optimization level            normal          :
          :   max. optcycles                   200          :
          :   ANC micro-cycles                  20          :
          :   degrees of freedom                93          :
          :.................................................:
          :   RF solver                   davidson          :
          :   write xtbopt.log                true          :
          :   linear?                        false          :
          :   energy convergence         0.5000000E-05 Eh   :
          :   grad. convergence          0.1000000E-02 Eh/α :
          :   maximium RF displ.         1.0000000          :
          :   Hlow (freq-cutoff)         0.1000000E-01      :
          :   Hmax (freq-cutoff)         5.0000000          :
          :   S6 in model hess.         20.0000000          :
          ...................................................

generating ANC from model Hessian ...
Using Lindh-Hessian (1995)
 Shifting diagonal of input Hessian by   9.462311104305805E-003
 Lowest  eigenvalues of input Hessian
    0.000000    0.000000    0.000000    0.000000    0.000000    0.000000
    0.010000    0.010295    0.011490    0.012538    0.012919    0.013877
    0.015444    0.017090    0.018051    0.018585    0.018776    0.019368
 Highest eigenvalues
    1.617141    1.792546    1.866517    2.043120    2.236659    2.311526
 

........................................................................
.............................. CYCLE    1 ..............................
........................................................................
   1    -59.0777735 -0.590778E+02  0.142E-05    1.23       0.0  T
   2    -59.0777735 -0.102318E-11  0.855E-06    1.23    2035.0  T
   3    -59.0777735 -0.227374E-12  0.618E-06    1.23    2814.5  T
     SCC iter.                  ...        0 min,  0.006 sec
     gradient                   ...        0 min,  0.056 sec
 * total energy  :   -58.5470364 Eh     change       -0.6245671E-11 Eh
   gradient norm :     0.0993313 Eh/α   predicted     0.0000000E+00 (-100.00%)
   displ. norm   :     0.2407934 α      lambda       -0.1111876E-01
   maximum displ.:     0.0761705 α      in ANC's #21, #22, #13, ...

........................................................................
.............................. CYCLE    2 ..............................
........................................................................
   1    -59.0858144 -0.590858E+02  0.768E-02    1.40       0.0  T
   2    -59.0859747 -0.160380E-03  0.567E-02    1.36       1.0  T
   3    -59.0861270 -0.152220E-03  0.151E-02    1.37       1.2  T
   4    -59.0861296 -0.266961E-05  0.818E-03    1.37       2.1  T
   5    -59.0861297 -0.617544E-07  0.254E-03    1.36       6.8  T
   6    -59.0861298 -0.684054E-07  0.498E-04    1.36      35.0  T
   7    -59.0861298 -0.454907E-08  0.125E-04    1.36     139.3  T
   8    -59.0861298 -0.180222E-09  0.473E-05    1.36     367.8  T
     SCC iter.                  ...        0 min,  0.015 sec
     gradient                   ...        0 min,  0.056 sec
 * total energy  :   -58.5546028 Eh     change       -0.7566427E-02 Eh
   gradient norm :     0.0408494 Eh/α   predicted    -0.5884628E-02 ( -22.23%)
   displ. norm   :     0.2285437 α      lambda       -0.3550735E-02
   maximum displ.:     0.0897073 α      in ANC's #13, #21, #4, ...

........................................................................
.............................. CYCLE    3 ..............................
........................................................................
   1    -59.0910460 -0.590910E+02  0.609E-02    1.48       0.0  T
   2    -59.0911236 -0.775409E-04  0.373E-02    1.46       1.0  T
   3    -59.0911930 -0.694461E-04  0.137E-02    1.46       1.3  T
   4    -59.0911954 -0.235946E-05  0.652E-03    1.46       2.7  T
   5    -59.0911954 -0.719525E-07  0.203E-03    1.45       8.6  T
   6    -59.0911955 -0.593367E-07  0.293E-04    1.45      59.4  T
   7    -59.0911955 -0.170479E-08  0.977E-05    1.45     178.1  T
   8    -59.0911955 -0.830909E-10  0.318E-05    1.45     547.5  T
     SCC iter.                  ...        0 min,  0.015 sec
     gradient                   ...        0 min,  0.056 sec
 * total energy  :   -58.5566261 Eh     change       -0.2023322E-02 Eh
   gradient norm :     0.0128074 Eh/α   predicted    -0.1869288E-02 (  -7.61%)
   displ. norm   :     0.1251667 α      lambda       -0.4437863E-03
   maximum displ.:     0.0632013 α      in ANC's #13, #4, #21, ...

........................................................................
.............................. CYCLE    4 ..............................
........................................................................
   1    -59.0917495 -0.590917E+02  0.218E-02    1.47       0.0  T
   2    -59.0917559 -0.645190E-05  0.135E-02    1.46       1.3  T
   3    -59.0917645 -0.853803E-05  0.480E-03    1.46       3.6  T
   4    -59.0917647 -0.262148E-06  0.178E-03    1.46       9.8  T
   5    -59.0917647 -0.262283E-08  0.298E-04    1.46      58.5  T
   6    -59.0917647 -0.203566E-08  0.704E-05    1.46     247.1  T
   7    -59.0917647 -0.549250E-10  0.291E-05    1.46     597.3  T
     SCC iter.                  ...        0 min,  0.013 sec
     gradient                   ...        0 min,  0.056 sec
 * total energy  :   -58.5569555 Eh     change       -0.3294134E-03 Eh
   gradient norm :     0.0093507 Eh/α   predicted    -0.2253901E-03 ( -31.58%)
   displ. norm   :     0.1858689 α      lambda       -0.3848672E-03
   maximum displ.:     0.1122547 α      in ANC's #4, #13, #3, ...

........................................................................
.............................. CYCLE    5 ..............................
........................................................................
   1    -59.0920760 -0.590921E+02  0.273E-02    1.46       0.0  T
   2    -59.0920882 -0.122386E-04  0.170E-02    1.46       1.0  T
   3    -59.0921014 -0.132110E-04  0.559E-03    1.46       3.1  T
   4    -59.0921018 -0.387665E-06  0.248E-03    1.46       7.0  T
   5    -59.0921018 -0.122608E-08  0.310E-04    1.46      56.1  T
   6    -59.0921018 -0.245929E-08  0.989E-05    1.46     176.0  T
   7    -59.0921018 -0.639133E-10  0.207E-05    1.46     842.2  T
     SCC iter.                  ...        0 min,  0.013 sec
     gradient                   ...        0 min,  0.056 sec
 * total energy  :   -58.5571984 Eh     change       -0.2428640E-03 Eh
   gradient norm :     0.0057462 Eh/α   predicted    -0.1990850E-03 ( -18.03%)
   displ. norm   :     0.1250651 α      lambda       -0.1259284E-03
   maximum displ.:     0.0798058 α      in ANC's #4, #3, #13, ...

........................................................................
.............................. CYCLE    6 ..............................
........................................................................
   1    -59.0922319 -0.590922E+02  0.116E-02    1.45       0.0  T
   2    -59.0922360 -0.409030E-05  0.702E-03    1.45       2.5  T
   3    -59.0922378 -0.176502E-05  0.279E-03    1.45       6.2  T
   4    -59.0922379 -0.812544E-07  0.158E-03    1.45      11.0  T
   5    -59.0922379 -0.570662E-08  0.254E-04    1.45      68.6  T
   6    -59.0922379 -0.678902E-09  0.624E-05    1.45     279.0  T
   7    -59.0922379 -0.295870E-10  0.189E-05    1.45     920.3  T
     SCC iter.                  ...        0 min,  0.013 sec
     gradient                   ...        0 min,  0.056 sec
 * total energy  :   -58.5572878 Eh     change       -0.8945430E-04 Eh
   gradient norm :     0.0044245 Eh/α   predicted    -0.6394976E-04 ( -28.51%)
   displ. norm   :     0.1492616 α      lambda       -0.1037092E-03
   maximum displ.:     0.0915223 α      in ANC's #4, #3, #2, ...

........................................................................
.............................. CYCLE    7 ..............................
........................................................................
   1    -59.0922688 -0.590923E+02  0.100E-02    1.44       0.0  T
   2    -59.0922729 -0.403091E-05  0.587E-03    1.45       3.0  T
   3    -59.0922738 -0.945174E-06  0.271E-03    1.45       6.4  T
   4    -59.0922739 -0.519179E-07  0.175E-03    1.45      10.0  T
   5    -59.0922739 -0.199983E-07  0.336E-04    1.45      51.8  T
   6    -59.0922739 -0.954131E-09  0.607E-05    1.45     286.8  T
   7    -59.0922739 -0.343405E-10  0.210E-05    1.45     829.3  T
     SCC iter.                  ...        0 min,  0.014 sec
     gradient                   ...        0 min,  0.056 sec
 * total energy  :   -58.5573562 Eh     change       -0.6834866E-04 Eh
   gradient norm :     0.0039007 Eh/α   predicted    -0.5301399E-04 ( -22.44%)
   displ. norm   :     0.0959465 α      lambda       -0.5124887E-04
   maximum displ.:     0.0560051 α      in ANC's #3, #4, #2, ...

........................................................................
.............................. CYCLE    8 ..............................
........................................................................
   1    -59.0922385 -0.590922E+02  0.597E-03    1.44       0.0  T
   2    -59.0922398 -0.124252E-05  0.278E-03    1.44       6.3  T
   3    -59.0922400 -0.174727E-06  0.153E-03    1.44      11.3  T
   4    -59.0922400 -0.219811E-07  0.813E-04    1.44      21.4  T
   5    -59.0922400 -0.126577E-08  0.250E-04    1.44      69.6  T
   6    -59.0922400 -0.173802E-08  0.274E-05    1.44     634.5  T
   7    -59.0922400 -0.966338E-11  0.109E-05    1.44    1594.7  T
     SCC iter.                  ...        0 min,  0.014 sec
     gradient                   ...        0 min,  0.056 sec
 * total energy  :   -58.5573917 Eh     change       -0.3553469E-04 Eh
   gradient norm :     0.0031535 Eh/α   predicted    -0.2586247E-04 ( -27.22%)
   displ. norm   :     0.0730816 α      lambda       -0.3124553E-04
   maximum displ.:     0.0437475 α      in ANC's #3, #2, #10, ...

........................................................................
.............................. CYCLE    9 ..............................
........................................................................
   1    -59.0921960 -0.590922E+02  0.531E-03    1.44       0.0  T
   2    -59.0921965 -0.477754E-06  0.355E-03    1.44       4.9  T
   3    -59.0921971 -0.567892E-06  0.852E-04    1.44      20.4  T
   4    -59.0921971 -0.124599E-07  0.383E-04    1.44      45.5  T
   5    -59.0921971 -0.297575E-10  0.996E-05    1.44     174.7  T
   6    -59.0921971 -0.209418E-09  0.203E-05    1.44     856.0  T
     SCC iter.                  ...        0 min,  0.012 sec
     gradient                   ...        0 min,  0.056 sec
 * total energy  :   -58.5574143 Eh     change       -0.2262178E-04 Eh
   gradient norm :     0.0021477 Eh/α   predicted    -0.1571195E-04 ( -30.55%)
   displ. norm   :     0.0781130 α      lambda       -0.2497654E-04
   maximum displ.:     0.0455025 α      in ANC's #3, #2, #6, ...

........................................................................
.............................. CYCLE   10 ..............................
........................................................................
   1    -59.0920294 -0.590920E+02  0.573E-03    1.43       0.0  T
   2    -59.0920300 -0.632271E-06  0.457E-03    1.43       3.8  T
   3    -59.0920310 -0.961469E-06  0.696E-04    1.43      25.0  T
   4    -59.0920310 -0.419079E-08  0.377E-04    1.43      46.2  T
   5    -59.0920310 -0.426319E-09  0.117E-04    1.43     148.5  T
   6    -59.0920310 -0.995044E-10  0.258E-05    1.43     674.4  T
     SCC iter.                  ...        0 min,  0.012 sec
     gradient                   ...        0 min,  0.056 sec
 * total energy  :   -58.5574333 Eh     change       -0.1892497E-04 Eh
   gradient norm :     0.0020282 Eh/α   predicted    -0.1256686E-04 ( -33.60%)
   displ. norm   :     0.1060217 α      lambda       -0.2770937E-04
   maximum displ.:     0.0589311 α      in ANC's #3, #2, #6, ...

........................................................................
.............................. CYCLE   11 ..............................
........................................................................
   1    -59.0918771 -0.590919E+02  0.590E-03    1.43       0.0  T
   2    -59.0918780 -0.879692E-06  0.502E-03    1.43       3.5  T
   3    -59.0918791 -0.111458E-05  0.875E-04    1.43      19.9  T
   4    -59.0918791 -0.295981E-08  0.547E-04    1.43      31.8  T
   5    -59.0918791 -0.173109E-08  0.170E-04    1.43     102.3  T
   6    -59.0918791 -0.175298E-09  0.280E-05    1.43     622.7  T
     SCC iter.                  ...        0 min,  0.012 sec
     gradient                   ...        0 min,  0.056 sec
 * total energy  :   -58.5574541 Eh     change       -0.2088050E-04 Eh
   gradient norm :     0.0025939 Eh/α   predicted    -0.1401448E-04 ( -32.88%)
   displ. norm   :     0.1319025 α      lambda       -0.2837715E-04
   maximum displ.:     0.0723703 α      in ANC's #3, #2, #6, ...

........................................................................
.............................. CYCLE   12 ..............................
........................................................................
   1    -59.0916553 -0.590917E+02  0.453E-03    1.42       0.0  T
   2    -59.0916559 -0.624278E-06  0.401E-03    1.42       4.3  T
   3    -59.0916566 -0.650443E-06  0.917E-04    1.42      19.0  T
   4    -59.0916566 -0.251068E-08  0.584E-04    1.42      29.8  T
   5    -59.0916566 -0.279440E-08  0.158E-04    1.42     109.9  T
   6    -59.0916566 -0.122853E-09  0.256E-05    1.42     680.8  T
     SCC iter.                  ...        0 min,  0.012 sec
     gradient                   ...        0 min,  0.056 sec
 * total energy  :   -58.5574748 Eh     change       -0.2064893E-04 Eh
   gradient norm :     0.0031820 Eh/α   predicted    -0.1444400E-04 ( -30.05%)
   displ. norm   :     0.1247972 α      lambda       -0.2650246E-04
   maximum displ.:     0.0660685 α      in ANC's #3, #2, #6, ...

........................................................................
.............................. CYCLE   13 ..............................
........................................................................
   1    -59.0918246 -0.590918E+02  0.286E-03    1.42       0.0  T
   2    -59.0918248 -0.210196E-06  0.150E-03    1.42      11.6  T
   3    -59.0918248 -0.243743E-07  0.767E-04    1.42      22.7  T
   4    -59.0918248 -0.966659E-08  0.521E-04    1.42      33.4  T
   5    -59.0918248 -0.428941E-08  0.695E-05    1.42     250.4  T
   6    -59.0918248 -0.717861E-10  0.178E-05    1.42     975.7  T
     SCC iter.                  ...        0 min,  0.013 sec
     gradient                   ...        0 min,  0.056 sec
 * total energy  :   -58.5574939 Eh     change       -0.1913983E-04 Eh
   gradient norm :     0.0026472 Eh/α   predicted    -0.1346378E-04 ( -29.66%)
   displ. norm   :     0.1189017 α      lambda       -0.2202376E-04
   maximum displ.:     0.0637013 α      in ANC's #3, #2, #6, ...

........................................................................
.............................. CYCLE   14 ..............................
........................................................................
   1    -59.0918084 -0.590918E+02  0.388E-03    1.41       0.0  T
   2    -59.0918088 -0.373293E-06  0.134E-03    1.42      13.0  T
   3    -59.0918089 -0.531566E-07  0.953E-04    1.42      18.3  T
   4    -59.0918089 -0.236528E-07  0.335E-04    1.42      52.0  T
   5    -59.0918089 -0.974225E-10  0.913E-05    1.42     190.7  T
   6    -59.0918089 -0.666560E-10  0.202E-05    1.42     862.8  T
     SCC iter.                  ...        0 min,  0.013 sec
     gradient                   ...        0 min,  0.056 sec
 * total energy  :   -58.5575102 Eh     change       -0.1622409E-04 Eh
   gradient norm :     0.0019506 Eh/α   predicted    -0.1116919E-04 ( -31.16%)
   displ. norm   :     0.1760710 α      lambda       -0.2410559E-04
   maximum displ.:     0.0860937 α      in ANC's #3, #6, #2, ...

........................................................................
.............................. CYCLE   15 ..............................
........................................................................
   1    -59.0923692 -0.590924E+02  0.771E-03    1.42       0.0  T
   2    -59.0923702 -0.981052E-06  0.502E-03    1.42       3.5  T
   3    -59.0923713 -0.107396E-05  0.177E-03    1.42       9.8  T
   4    -59.0923713 -0.435131E-07  0.740E-04    1.42      23.5  T
   5    -59.0923713 -0.992181E-09  0.140E-04    1.42     124.1  T
   6    -59.0923713 -0.185857E-09  0.252E-05    1.42     690.8  T
     SCC iter.                  ...        0 min,  0.012 sec
     gradient                   ...        0 min,  0.056 sec
 * total energy  :   -58.5575288 Eh     change       -0.1859096E-04 Eh
   gradient norm :     0.0027458 Eh/α   predicted    -0.1222088E-04 ( -34.26%)
   displ. norm   :     0.1961543 α      lambda       -0.2574892E-04
   maximum displ.:     0.1092543 α      in ANC's #3, #6, #2, ...

........................................................................
.............................. CYCLE   16 ..............................
........................................................................
   1    -59.0904244 -0.590904E+02  0.900E-03    1.39       0.0  T
   2    -59.0904275 -0.312675E-05  0.417E-03    1.40       4.2  T
   3    -59.0904278 -0.277237E-06  0.207E-03    1.40       8.4  T
   4    -59.0904278 -0.145432E-07  0.138E-03    1.40      12.6  T
   5    -59.0904278 -0.233871E-07  0.461E-04    1.40      37.7  T
   6    -59.0904278 -0.680426E-08  0.593E-05    1.40     293.7  T
   7    -59.0904278 -0.874678E-10  0.114E-05    1.40    1528.2  T
     SCC iter.                  ...        0 min,  0.014 sec
     gradient                   ...        0 min,  0.056 sec
 * total energy  :   -58.5575260 Eh     change        0.2774250E-05 Eh
   gradient norm :     0.0059920 Eh/α   predicted    -0.1337188E-04 (-582.00%)
   displ. norm   :     0.0926522 α      lambda       -0.4671666E-04
   maximum displ.:     0.0510460 α      in ANC's #3, #2, #6, ...

........................................................................
.............................. CYCLE   17 ..............................
........................................................................
   1    -59.0919109 -0.590919E+02  0.566E-03    1.41       0.0  T
   2    -59.0919117 -0.866303E-06  0.264E-03    1.41       6.6  T
   3    -59.0919118 -0.779643E-07  0.146E-03    1.41      11.9  T
   4    -59.0919118 -0.271285E-08  0.410E-04    1.41      42.5  T
   5    -59.0919118  0.245301E-09  0.210E-04    1.41      82.7  T
   6    -59.0919118 -0.191399E-08  0.261E-05    1.41     667.8  T
   7    -59.0919118 -0.225668E-10  0.701E-06    1.41    2484.2  T
     SCC iter.                  ...        0 min,  0.013 sec
     gradient                   ...        0 min,  0.056 sec
 * total energy  :   -58.5575516 Eh     change       -0.2560713E-04 Eh
   gradient norm :     0.0021088 Eh/α   predicted    -0.2356001E-04 (  -7.99%)
   displ. norm   :     0.0622766 α      lambda       -0.1579899E-04
   maximum displ.:     0.0300323 α      in ANC's #6, #1, #3, ...

........................................................................
.............................. CYCLE   18 ..............................
........................................................................
   1    -59.0919200 -0.590919E+02  0.234E-03    1.41       0.0  T
   2    -59.0919201 -0.779254E-07  0.146E-03    1.41      11.9  T
   3    -59.0919202 -0.874767E-07  0.592E-04    1.41      29.4  T
   4    -59.0919202 -0.591661E-08  0.241E-04    1.41      72.2  T
   5    -59.0919202 -0.315907E-10  0.237E-05    1.41     734.9  T
   6    -59.0919202 -0.579092E-11  0.833E-06    1.41    2088.6  T
     SCC iter.                  ...        0 min,  0.012 sec
     gradient                   ...        0 min,  0.056 sec
 * total energy  :   -58.5575642 Eh     change       -0.1263590E-04 Eh
   gradient norm :     0.0012391 Eh/α   predicted    -0.7940769E-05 ( -37.16%)
   displ. norm   :     0.2737738 α      lambda       -0.2706860E-04
   maximum displ.:     0.1319542 α      in ANC's #6, #1, #3, ...

........................................................................
.............................. CYCLE   19 ..............................
........................................................................
   1    -59.0904144 -0.590904E+02  0.971E-03    1.39       0.0  T
   2    -59.0904161 -0.171686E-05  0.756E-03    1.40       2.3  T
   3    -59.0904185 -0.243781E-05  0.190E-03    1.40       9.2  T
   4    -59.0904186 -0.388874E-07  0.945E-04    1.40      18.4  T
   5    -59.0904186 -0.219522E-08  0.310E-04    1.40      56.2  T
   6    -59.0904186 -0.134241E-08  0.544E-05    1.40     319.9  T
   7    -59.0904186 -0.558273E-10  0.142E-05    1.40    1228.8  T
     SCC iter.                  ...        0 min,  0.013 sec
     gradient                   ...        0 min,  0.056 sec
 * total energy  :   -58.5575803 Eh     change       -0.1603051E-04 Eh
   gradient norm :     0.0032441 Eh/α   predicted    -0.1398687E-04 ( -12.75%)
   displ. norm   :     0.0238902 α      lambda       -0.1130513E-04
   maximum displ.:     0.0162435 α      in ANC's #3, #2, #6, ...

........................................................................
.............................. CYCLE   20 ..............................
........................................................................
   1    -59.0912247 -0.590912E+02  0.238E-03    1.40       0.0  T
   2    -59.0912248 -0.142031E-06  0.131E-03    1.40      13.2  T
   3    -59.0912248 -0.205146E-07  0.727E-04    1.40      23.9  T
   4    -59.0912248 -0.434089E-08  0.383E-04    1.40      45.4  T
   5    -59.0912248 -0.265659E-08  0.818E-05    1.40     212.8  T
   6    -59.0912248 -0.193133E-09  0.144E-05    1.40    1212.6  T
     SCC iter.                  ...        0 min,  0.011 sec
     gradient                   ...        0 min,  0.056 sec
 * total energy  :   -58.5575883 Eh     change       -0.8049848E-05 Eh
   gradient norm :     0.0014962 Eh/α   predicted    -0.5657579E-05 ( -29.72%)
   displ. norm   :     0.0848808 α      lambda       -0.1206892E-04
   maximum displ.:     0.0420587 α      in ANC's #6, #1, #5, ...
 * RMSD in coord.:     0.2969357 α      energy gain  -0.1055194E-01 Eh

generating ANC from model Hessian ...
Using Lindh-Hessian (1995)
 Shifting diagonal of input Hessian by   9.481828123418017E-003
 Lowest  eigenvalues of input Hessian
    0.000000    0.000000    0.000000    0.000000    0.000000    0.000000
    0.010000    0.010416    0.011648    0.012413    0.013463    0.013830
    0.015459    0.016606    0.018125    0.018668    0.018883    0.019342
 Highest eigenvalues
    1.575413    1.830405    1.873278    2.030402    2.254595    2.338379
 

........................................................................
.............................. CYCLE   21 ..............................
........................................................................
   1    -59.0918831 -0.590919E+02  0.324E-03    1.40       0.0  T
   2    -59.0918834 -0.260055E-06  0.127E-03    1.40      13.7  T
   3    -59.0918834 -0.789126E-08  0.677E-04    1.40      25.7  T
   4    -59.0918834 -0.400149E-09  0.145E-04    1.40     119.9  T
   5    -59.0918834 -0.153392E-09  0.358E-05    1.40     486.9  T
     SCC iter.                  ...        0 min,  0.009 sec
     gradient                   ...        0 min,  0.055 sec
 * total energy  :   -58.5575986 Eh     change       -0.1032051E-04 Eh
   gradient norm :     0.0011897 Eh/α   predicted     0.0000000E+00 (-100.00%)
   displ. norm   :     0.0188395 α      lambda       -0.4703812E-05
   maximum displ.:     0.0105555 α      in ANC's #5, #6, #4, ...

........................................................................
.............................. CYCLE   22 ..............................
........................................................................
   1    -59.0916884 -0.590917E+02  0.186E-03    1.40       0.0  T
   2    -59.0916885 -0.946306E-07  0.788E-04    1.40      22.1  T
   3    -59.0916885 -0.234100E-08  0.436E-04    1.40      40.0  T
   4    -59.0916885  0.733856E-09  0.301E-04    1.40      57.9  T
   5    -59.0916885 -0.293421E-08  0.454E-05    1.40     383.1  T
   6    -59.0916885 -0.185807E-10  0.108E-05    1.40    1618.0  T
     SCC iter.                  ...        0 min,  0.011 sec
     gradient                   ...        0 min,  0.056 sec
 * total energy  :   -58.5576036 Eh     change       -0.4948511E-05 Eh
   gradient norm :     0.0003434 Eh/α   predicted    -0.2376923E-05 ( -51.97%)
   displ. norm   :     0.0442491 α      lambda       -0.5299676E-05
   maximum displ.:     0.0266639 α      in ANC's #5, #6, #4, ...

   *** GEOMETRY OPTIMIZATION CONVERGED AFTER 22 ITERATIONS ***

------------------------------------------------------------------------
 total energy gain   :        -0.0105672 Eh       -6.6310 kcal/mol
 total RMSD          :         0.2979535 a0        0.1577 Å
 total power (kW/mol):        -1.2611007 (step)  -12.7610 (real)
------------------------------------------------------------------------

 ANCopt (total)                0 d,  0 h,  0 min,  2.174 sec
 optimizer setup                ...        0 min,  0.001 sec (  0.051%)
 model hessian                  ...        0 min,  0.067 sec (  3.089%)
 ANC generation                 ...        0 min,  0.003 sec (  0.132%)
 coordinate transformation      ...        0 min,  0.001 sec (  0.024%)
 single point calculation       ...        0 min,  2.093 sec ( 96.257%)
 optimization log               ...        0 min,  0.005 sec (  0.225%)
 hessian update                 ...        0 min,  0.000 sec (  0.019%)
 rational function              ...        0 min,  0.002 sec (  0.112%)

================
 final structure:
================
33
 xtb: 6.5.1 (579679a)
C            4.95482650916873        0.82544258549288        0.22143977674738
O            3.75792918609122        0.06103332068435        0.30684444906545
C            2.63165932428732        0.66274035286759       -0.11711343320469
O            2.64974617369849        1.80408686677235       -0.53999100803364
C            1.40300134508320       -0.17489109993605        0.00190124878121
C            1.43564435369542       -1.55879701181522        0.18400008770452
O            2.61264288613939       -2.31505633188937        0.12855047178647
C            0.24188739240394       -2.26610487572958        0.47659749842896
O            0.18976500086465       -3.49108867451757        0.70839693772356
N           -0.89797950341005       -1.47447393985753        0.60899545902109
C           -0.97064919288996       -0.20425093375546       -0.11696712434554
C           -1.31552046010222       -0.48546280531800       -1.60101826052495
C           -2.04083461921723        0.69257899628709        0.59067839698654
C           -2.08508728324641        2.08674684962800       -0.04805104982890
C           -3.44721902900349        0.08430681913680        0.58243369171884
N           -1.63224005449240        0.85263018093901        1.98948003279457
N            0.27969364346038        0.52826411550143       -0.06891967948964
H            5.74465800154897        0.23443656123270        0.68259775732548
H            4.84313139260135        1.77572363346362        0.75199510716839
H            5.20563014979617        1.03053012847157       -0.82354136946166
H            2.34623063717319       -3.23116454491638        0.30859397618954
H           -1.75125487577352       -2.01340370940455        0.57849245535706
H           -2.27354653932680       -0.99361167725364       -1.68825769044776
H           -0.54478299386354       -1.12415125577603       -2.03261390833191
H           -1.34930772834897        0.44665320628969       -2.16203075082537
H           -1.07374353607344        2.48218162797974       -0.15755541065895
H           -2.66078146011482        2.76088889054834        0.58718812821423
H           -2.55710060941807        2.05051057535498       -1.02949181343076
H           -3.83441970588189        0.00240218764514       -0.43225884811862
H           -3.45333686831343       -0.90448703517831        1.03960797339648
H           -4.11822970049174        0.72528925003893        1.15615605107451
H           -0.67383410917343        1.19850693685364        1.99389760782154
H           -1.61657372687039       -0.06801018983992        2.41804623939649
 
 Bond Distances (Angstroems)
 ---------------------------
C1-O2=1.4227         C1-H18=1.0889        C1-H19=1.0941        C1-H20=1.0941        O2-C1=1.4227         O2-C3=1.3455         
C3-O2=1.3455         C3-O4=1.2173         C3-C5=1.4918         O4-C3=1.2173         C5-C3=1.4918         C5-C6=1.3962         
C5-N17=1.3271        C6-C5=1.3962         C6-O7=1.4001         C6-C8=1.4181         O7-C6=1.4001         O7-H21=0.9709        
C8-C6=1.4181         C8-O9=1.2478         C8-N10=1.3941        O9-C8=1.2478         N10-C8=1.3941        N10-C11=1.4648       
N10-H22=1.0097       C11-N10=1.4648       C11-C12=1.5493       C11-C13=1.5654       C11-N17=1.4499       C12-C11=1.5493       
C12-H23=1.0880       C12-H24=1.0901       C12-H25=1.0884       C13-C11=1.5654       C13-C14=1.5342       C13-C15=1.5323       
C13-N16=1.4660       C14-C13=1.5342       C14-H26=1.0914       C14-H27=1.0906       C14-H28=1.0896       C15-C13=1.5323       
C15-H29=1.0891       C15-H30=1.0894       C15-H31=1.0910       N16-C13=1.4660       N16-H32=1.0189       N16-H33=1.0156       
N17-C5=1.3271        N17-C11=1.4499       H18-C1=1.0889        H19-C1=1.0941        H20-C1=1.0941        H21-O7=0.9709        
H22-N10=1.0097       H23-C12=1.0880       H24-C12=1.0901       H25-C12=1.0884       H26-C14=1.0914       H27-C14=1.0906       
H28-C14=1.0896       H29-C15=1.0891       H30-C15=1.0894       H31-C15=1.0910       H32-N16=1.0189       H33-N16=1.0156       
 C  H  Rav=1.0904 sigma=0.0019  Rmin=1.0880  Rmax=1.0941    12
 C  C  Rav=1.4982 sigma=0.0615  Rmin=1.3962  Rmax=1.5654     7
 N  H  Rav=1.0147 sigma=0.0038  Rmin=1.0097  Rmax=1.0189     3
 N  C  Rav=1.4204 sigma=0.0535  Rmin=1.3271  Rmax=1.4660     5
 O  H  Rav=0.9709 sigma=0.0000  Rmin=0.9709  Rmax=0.9709     1
 O  C  Rav=1.3267 sigma=0.0814  Rmin=1.2173  Rmax=1.4227     5
 
 selected bond angles (degree)
 --------------------
H18-C1-O2=107.05               H19-C1-O2=110.59               H19-C1-H18=109.88              H20-C1-O2=110.54               
H20-C1-H18=109.87              H20-C1-H19=108.89              C3-O2-C1=116.42                O4-C3-O2=121.09                
C5-C3-O2=114.41                C5-C3-O4=124.50                C6-C5-C3=123.21                N17-C5-C3=113.29               
N17-C5-C6=123.50               O7-C6-C5=123.36                C8-C6-C5=120.11                C8-C6-O7=116.51                
H21-O7-C6=105.76               O9-C8-C6=124.27                N10-C8-C6=115.13               N10-C8-O9=120.38               
C11-N10-C8=119.07              H22-N10-C8=112.64              H22-N10-C11=113.95             
 
 selected dihedral angles (degree)
 ---------------------------------
C3-O2-C1-H18=174.95           C3-O2-C1-H19= 55.27           C3-O2-C1-H20=294.60           O4-C3-O2-C1=359.51            
C5-C3-O2-C1=180.43            C6-C5-C3-O2=343.42            C6-C5-C3-O4=164.38            N17-C5-C3-O2=162.77           
N17-C5-C3-O4=343.74           O7-C6-C5-C3=352.85            O7-C6-C5-N17=173.57           C8-C6-C5-C3=171.12            
C8-C6-C5-N17=351.83           H21-O7-C6-C5=178.74           H21-O7-C6-C8=  0.41           O9-C8-C6-C5=183.11            
O9-C8-C6-O7=  1.50            N10-C8-C6-C5=357.70           N10-C8-C6-O7=176.09           C11-N10-C8-C6= 27.90          
C11-N10-C8-O9=202.71          H22-N10-C8-C6=165.22          H22-N10-C8-O9=340.04          
           -------------------------------------------------
          |                Final Singlepoint                |
           -------------------------------------------------

          ...................................................
          :                      SETUP                      :
          :.................................................:
          :  # basis functions                 100          :
          :  # atomic orbitals                 100          :
          :  # shells                           66          :
          :  # electrons                        96          :
          :  # halogen bonds                     0          :
          :  max. iterations                   250          :
          :  Hamiltonian                  GFN1-xTB          :
          :  restarted?                      false          :
          :  GBSA solvation                   true          :
          :  PC potential                    false          :
          :  electronic temp.          300.0000000     K    :
          :  accuracy                    1.0000000          :
          :  -> integral cutoff          0.2500000E+02      :
          :  -> integral neglect         0.1000000E-07      :
          :  -> SCF convergence          0.1000000E-05 Eh   :
          :  -> wf. convergence          0.2000000E-04 e    :
          :  Broyden damping             0.4000000          :
          ...................................................

 iter      E             dE          RMSdq      gap      omega  full diag
   1    -59.0916885 -0.590917E+02  0.239E-06    1.40       0.0  T
   2    -59.0916885 -0.149214E-12  0.123E-06    1.40   14164.9  T
   3    -59.0916885  0.497380E-13  0.771E-07    1.40   22579.5  T

   *** convergence criteria satisfied after 3 iterations ***

         #    Occupation            Energy/Eh            Energy/eV
      -------------------------------------------------------------
         1        2.0000           -0.8078334             -21.9823
       ...           ...                  ...                  ...
        42        2.0000           -0.4380818             -11.9208
        43        2.0000           -0.4231304             -11.5140
        44        2.0000           -0.3999749             -10.8839
        45        2.0000           -0.3915749             -10.6553
        46        2.0000           -0.3798606             -10.3365
        47        2.0000           -0.3705713             -10.0838
        48        2.0000           -0.3148958              -8.5688 (HOMO)
        49                         -0.2634798              -7.1696 (LUMO)
        50                         -0.1875904              -5.1046
        51                         -0.1261270              -3.4321
        52                         -0.1143425              -3.1114
        53                         -0.1081220              -2.9421
       ...                                ...                  ...
       100                          0.7380468              20.0833
      -------------------------------------------------------------
                  HL-Gap            0.0514160 Eh            1.3991 eV
             Fermi-level           -0.2891878 Eh           -7.8692 eV

 SCC (total)                   0 d,  0 h,  0 min,  0.090 sec
 SCC setup                      ...        0 min,  0.001 sec (  1.596%)
 Dispersion                     ...        0 min,  0.000 sec (  0.232%)
 classical contributions        ...        0 min,  0.000 sec (  0.078%)
 integral evaluation            ...        0 min,  0.025 sec ( 27.786%)
 iterations                     ...        0 min,  0.006 sec (  6.651%)
 molecular gradient             ...        0 min,  0.057 sec ( 62.948%)
 printout                       ...        0 min,  0.001 sec (  0.663%)

         :::::::::::::::::::::::::::::::::::::::::::::::::::::
         ::                     SUMMARY                     ::
         :::::::::::::::::::::::::::::::::::::::::::::::::::::
         :: total energy             -58.557603571669 Eh    ::
         :: total w/o Gsasa/hb       -58.539721389423 Eh    ::
         :: gradient norm              0.000347070374 Eh/a0 ::
         :: HOMO-LUMO gap              1.399101317840 eV    ::
         ::.................................................::
         :: SCC energy               -59.091688517102 Eh    ::
         :: -> electrostatic           0.352983019485 Eh    ::
         :: -> Gsolv                  -0.096428856051 Eh    ::
         ::    -> Gelec               -0.078546673805 Eh    ::
         ::    -> Gsasa               -0.017764739374 Eh    ::
         ::    -> Ghb                 -0.007741721876 Eh    ::
         ::    -> Gshift               0.007624279005 Eh    ::
         :: repulsion energy           0.554049081335 Eh    ::
         :: dispersion energy         -0.019964135902 Eh    ::
         :: halogen bond corr.         0.000000000000 Eh    ::
         :: add. restraining           0.000000000000 Eh    ::
         :: total charge              -1.000000000000 e     ::
         :::::::::::::::::::::::::::::::::::::::::::::::::::::

           -------------------------------------------------
          |                Property Printout                |
           -------------------------------------------------

    * Orbital Energies and Occupations

         #    Occupation            Energy/Eh            Energy/eV
      -------------------------------------------------------------
         1        2.0000           -0.8078334             -21.9823
       ...           ...                  ...                  ...
        36        2.0000           -0.4813340             -13.0978
        37        2.0000           -0.4739451             -12.8967
        38        2.0000           -0.4728084             -12.8658
        39        2.0000           -0.4652212             -12.6593
        40        2.0000           -0.4532791             -12.3344
        41        2.0000           -0.4508171             -12.2674
        42        2.0000           -0.4380818             -11.9208
        43        2.0000           -0.4231304             -11.5140
        44        2.0000           -0.3999749             -10.8839
        45        2.0000           -0.3915749             -10.6553
        46        2.0000           -0.3798606             -10.3365
        47        2.0000           -0.3705713             -10.0838
        48        2.0000           -0.3148958              -8.5688 (HOMO)
        49                         -0.2634798              -7.1696 (LUMO)
        50                         -0.1875904              -5.1046
        51                         -0.1261270              -3.4321
        52                         -0.1143425              -3.1114
        53                         -0.1081220              -2.9421
        54                         -0.1024925              -2.7890
        55                         -0.0969874              -2.6392
        56                         -0.0676326              -1.8404
        57                         -0.0639617              -1.7405
        58                         -0.0623451              -1.6965
        59                         -0.0599892              -1.6324
       ...                                ...                  ...
       100                          0.7380468              20.0833
      -------------------------------------------------------------
                  HL-Gap            0.0514160 Eh            1.3991 eV
             Fermi-level           -0.2891878 Eh           -7.8692 eV

  Mulliken/CM5 charges         n(s)   n(p)   n(d)
     1C     0.17058  0.05084   0.973  2.857  0.000
     2O    -0.42070 -0.50412   1.686  4.734  0.000
     3C     0.56068  0.62690   0.990  2.449  0.000
     4O    -0.59576 -0.63978   1.733  4.863  0.000
     5C     0.09442  0.17861   1.041  2.865  0.000
     6C     0.08147  0.11135   1.002  2.917  0.000
     7O    -0.58460 -0.77423   1.711  4.873  0.000
     8C     0.41233  0.50681   0.990  2.598  0.000
     9O    -0.67683 -0.72128   1.745  4.932  0.000
    10N    -0.41011 -0.75437   1.453  3.957  0.000
    11C     0.25720  0.35511   1.050  2.693  0.000
    12C    -0.11703 -0.25345   1.020  3.097  0.000
    13C     0.14677  0.17999   1.070  2.783  0.000
    14C    -0.09489 -0.23479   1.013  3.082  0.000
    15C    -0.10735 -0.24905   1.016  3.091  0.000
    16N    -0.51901 -0.96441   1.478  4.041  0.000
    17N    -0.50304 -0.68582   1.557  3.946  0.000
    18H     0.03859  0.09888   0.961  0.000  0.000
    19H     0.03763  0.09990   0.962  0.000  0.000
    20H     0.03718  0.09835   0.963  0.000  0.000
    21H     0.36024  0.53995   0.640  0.000  0.000
    22H     0.21752  0.41884   0.782  0.000  0.000
    23H     0.02287  0.07900   0.977  0.000  0.000
    24H     0.02950  0.08832   0.970  0.000  0.000
    25H     0.02625  0.08284   0.974  0.000  0.000
    26H     0.02832  0.08955   0.972  0.000  0.000
    27H     0.01809  0.07406   0.982  0.000  0.000
    28H     0.01724  0.07147   0.983  0.000  0.000
    29H     0.02463  0.07881   0.975  0.000  0.000
    30H     0.03180  0.08990   0.968  0.000  0.000
    31H     0.02711  0.08273   0.973  0.000  0.000
    32H     0.19502  0.38998   0.805  0.000  0.000
    33H     0.19388  0.38909   0.806  0.000  0.000

Wiberg/Mayer (AO) data.
largest (>0.10) Wiberg bond orders for each atom

 ---------------------------------------------------------------------------
     #   Z sym  total        # sym  WBO       # sym  WBO       # sym  WBO
 ---------------------------------------------------------------------------
     1   6 C    3.894 --    18 H    0.987    20 H    0.980    19 H    0.980
                             2 O    0.918
     2   8 O    2.185 --     3 C    1.082     1 C    0.918     4 O    0.123
     3   6 C    3.817 --     4 O    1.639     2 O    1.082     5 C    1.002
     4   8 O    1.890 --     3 C    1.639     2 O    0.123
     5   6 C    3.971 --    17 N    1.425     6 C    1.329     3 C    1.002
     6   6 C    3.865 --     5 C    1.329     8 C    1.208     7 O    0.971
                            17 N    0.175
     7   8 O    1.942 --     6 C    0.971    21 H    0.851
     8   6 C    3.919 --     9 O    1.462     6 C    1.208    10 N    1.090
     9   8 O    1.793 --     8 C    1.462
    10   7 N    3.204 --     8 C    1.090    11 C    0.935    22 H    0.920
    11   6 C    3.940 --    17 N    0.999    12 C    0.971    13 C    0.945
                            10 N    0.935
    12   6 C    3.995 --    24 H    0.985    23 H    0.984    25 H    0.984
                            11 C    0.971
    13   6 C    3.964 --    15 C    1.002    14 C    1.001    16 N    0.983
                            11 C    0.945
    14   6 C    3.996 --    13 C    1.001    27 H    0.987    28 H    0.985
                            26 H    0.981
    15   6 C    3.996 --    13 C    1.002    31 H    0.985    29 H    0.984
                            30 H    0.982
    16   7 N    2.954 --    13 C    0.983    33 H    0.949    32 H    0.946
    17   7 N    2.936 --     5 C    1.425    11 C    0.999     6 C    0.175
    18   1 H    1.015 --     1 C    0.987
    19   1 H    1.013 --     1 C    0.980
    20   1 H    1.011 --     1 C    0.980
    21   1 H    0.891 --     7 O    0.851
    22   1 H    0.968 --    10 N    0.920
    23   1 H    1.007 --    12 C    0.984
    24   1 H    1.008 --    12 C    0.985
    25   1 H    1.012 --    12 C    0.984
    26   1 H    1.027 --    14 C    0.981
    27   1 H    1.011 --    14 C    0.987
    28   1 H    1.007 --    14 C    0.985
    29   1 H    1.007 --    15 C    0.984
    30   1 H    1.004 --    15 C    0.982
    31   1 H    1.009 --    15 C    0.985
    32   1 H    0.985 --    16 N    0.946
    33   1 H    0.982 --    16 N    0.949
 ---------------------------------------------------------------------------

Topologies differ in total number of bonds
Writing topology from bond orders to xtbtopo.mol

 dipole moment from electron density (au)
     X       Y       Z   
  -1.5290   0.5281  -0.5937  total (Debye):    4.380

           -------------------------------------------------
          |                Geometry Summary                 |
           -------------------------------------------------

      molecular mass/u    :      242.2521403
   center of mass at/Å    :        0.4858807      -0.2642441       0.1997099
  moments of inertia/u·Å² :        0.7004977E+03   0.1441239E+04   0.1883107E+04
rotational constants/cm⁻¹ :        0.2406522E-01   0.1169663E-01   0.8952030E-02

 * 27 selected distances

     #   Z          #   Z                                           value/Å
     1   6 C        2   8 O                                       1.4227365
     2   8 O        3   6 C                                       1.3454649
     3   6 C        4   8 O                                       1.2173022
     5   6 C        6   6 C                                       1.3962168
     6   6 C        8   6 C                                       1.4180810
     8   6 C       10   7 N                                       1.3940967
    10   7 N       11   6 C                                       1.4648445
    13   6 C       14   6 C                                       1.5341571 (max)
    13   6 C       15   6 C                                       1.5323122
    13   6 C       16   7 N                                       1.4660192
     5   6 C       17   7 N                                       1.3271260
     1   6 C       18   1 H                                       1.0889393
     1   6 C       19   1 H                                       1.0940745
     1   6 C       20   1 H                                       1.0940517
     7   8 O       21   1 H                                       0.9708994 (min)
    10   7 N       22   1 H                                       1.0096805
    12   6 C       23   1 H                                       1.0879523
    12   6 C       24   1 H                                       1.0900616
    12   6 C       25   1 H                                       1.0884471
    14   6 C       26   1 H                                       1.0914102
    14   6 C       27   1 H                                       1.0906055
    14   6 C       28   1 H                                       1.0896494
    15   6 C       29   1 H                                       1.0891437
    15   6 C       30   1 H                                       1.0893848
    15   6 C       31   1 H                                       1.0909956
    16   7 N       32   1 H                                       1.0189173
    16   7 N       33   1 H                                       1.0156246

 * 6 distinct bonds (by element types)

   Z      Z             #   av. dist./Å        max./Å        min./Å
   1 H    6 C          12     1.0903930     1.0940745     1.0879523
   6 C    6 C           4     1.4701918     1.5341571     1.3962168
   1 H    7 N           3     1.0147408     1.0189173     1.0096805
   6 C    7 N           4     1.4130216     1.4660192     1.3271260
   1 H    8 O           1     0.9708994     0.9708994     0.9708994
   6 C    8 O           3     1.3285012     1.4227365     1.2173022


optimized geometry written to: xtbopt.xyz


           -------------------------------------------------
          | TOTAL ENERGY              -58.557603571669 Eh   |
          | GRADIENT NORM               0.000347070374 Eh/α |
          | HOMO-LUMO GAP               1.399101317840 eV   |
           -------------------------------------------------

------------------------------------------------------------------------
 * finished run on 2023/06/20 at 15:00:30.294     
------------------------------------------------------------------------
 total:
 * wall-time:     0 d,  0 h,  0 min,  2.427 sec
 *  cpu-time:     0 d,  0 h,  0 min,  2.372 sec
 * ratio c/w:     0.978 speedup
 SCF:
 * wall-time:     0 d,  0 h,  0 min,  0.078 sec
 *  cpu-time:     0 d,  0 h,  0 min,  0.077 sec
 * ratio c/w:     0.981 speedup
 ANC optimizer:
 * wall-time:     0 d,  0 h,  0 min,  2.272 sec
 *  cpu-time:     0 d,  0 h,  0 min,  2.259 sec
 * ratio c/w:     0.994 speedup

