      -----------------------------------------------------------      
     |                   =====================                   |     
     |                           x T B                           |     
     |                   =====================                   |     
     |                         S. Grimme                         |     
     |          Mulliken Center for Theoretical Chemistry        |     
     |                    University of Bonn                     |     
      -----------------------------------------------------------      

   * xtb version 6.5.1 (579679a) compiled by 'ehlert@majestix' on 2022-07-11

   xtb is free software: you can redistribute it and/or modify it under
   the terms of the GNU Lesser General Public License as published by
   the Free Software Foundation, either version 3 of the License, or
   (at your option) any later version.
   
   xtb is distributed in the hope that it will be useful,
   but WITHOUT ANY WARRANTY; without even the implied warranty of
   MERCHANTABILITY or FITNESS FOR A PARTICULAR PURPOSE.  See the
   GNU Lesser General Public License for more details.
   
   Cite this work as:
   * C. Bannwarth, E. Caldeweyher, S. Ehlert, A. Hansen, P. Pracht,
     J. Seibert, S. Spicher, S. Grimme, WIREs Comput. Mol. Sci., 2020, 11,
     e01493. DOI: 10.1002/wcms.1493
   
   for GFN2-xTB:
   * C. Bannwarth, S. Ehlert and S. Grimme., J. Chem. Theory Comput., 2019,
     15, 1652-1671. DOI: 10.1021/acs.jctc.8b01176
   for GFN1-xTB:
   * S. Grimme, C. Bannwarth, P. Shushkov, J. Chem. Theory Comput., 2017,
     13, 1989-2009. DOI: 10.1021/acs.jctc.7b00118
   for GFN0-xTB:
   * P. Pracht, E. Caldeweyher, S. Ehlert, S. Grimme, ChemRxiv, 2019, preprint.
     DOI: 10.26434/chemrxiv.8326202.v1
   for GFN-FF:
   * S. Spicher and S. Grimme, Angew. Chem. Int. Ed., 2020, 59, 15665-15673.
     DOI: 10.1002/anie.202004239
   
   for ALPB and GBSA implicit solvation:
   * S. Ehlert, M. Stahn, S. Spicher, S. Grimme, J. Chem. Theory Comput.,
     2021, 17, 4250-4261. DOI: 10.1021/acs.jctc.1c00471
   
   for DFT-D4:
   * E. Caldeweyher, C. Bannwarth and S. Grimme, J. Chem. Phys., 2017,
     147, 034112. DOI: 10.1063/1.4993215
   * E. Caldeweyher, S. Ehlert, A. Hansen, H. Neugebauer, S. Spicher,
     C. Bannwarth and S. Grimme, J. Chem. Phys., 2019, 150, 154122.
     DOI: 10.1063/1.5090222
   * E. Caldeweyher, J.-M. Mewes, S. Ehlert and S. Grimme, Phys. Chem. Chem. Phys.
     2020, 22, 8499-8512. DOI: 10.1039/D0CP00502A
   
   for sTDA-xTB:
   * S. Grimme and C. Bannwarth, J. Chem. Phys., 2016, 145, 054103.
     DOI: 10.1063/1.4959605
   
   in the mass-spec context:
   * V. Asgeirsson, C. Bauer and S. Grimme, Chem. Sci., 2017, 8, 4879.
     DOI: 10.1039/c7sc00601b
   * J. Koopman and S. Grimme, ACS Omega 2019, 4, 12, 15120-15133.
     DOI: 10.1021/acsomega.9b02011
   
   for metadynamics refer to:
   * S. Grimme, J. Chem. Theory Comput., 2019, 155, 2847-2862
     DOI: 10.1021/acs.jctc.9b00143
   
   for SPH calculations refer to:
   * S. Spicher and S. Grimme, J. Chem. Theory Comput., 2021, 17, 1701-1714
     DOI: 10.1021/acs.jctc.0c01306
   
   with help from (in alphabetical order)
   P. Atkinson, C. Bannwarth, F. Bohle, G. Brandenburg, E. Caldeweyher
   M. Checinski, S. Dohm, S. Ehlert, S. Ehrlich, I. Gerasimov, C. Hölzer
   A. Katbashev, J. Koopman, C. Lavigne, S. Lehtola, F. März, M. Müller,
   F. Musil, H. Neugebauer, J. Pisarek, C. Plett, P. Pracht, F. Pultar,
   J. Seibert, P. Shushkov, S. Spicher, M. Stahn, M. Steiner, T. Strunk,
   J. Stückrath, T. Rose, and J. Unsleber
   
 * started run on 2023/06/20 at 15:13:21.680     

           -------------------------------------------------
          |                Calculation Setup                |
           -------------------------------------------------

          program call               : /lustre/hpc/kemi/ree/PhD/git/ReactivityQM/dep/xtb-6.5.1/bin/xtb --gfn 1 /lustre/hpc/kemi/ree/PhD/git/ReactivityQM/calculations/R02/reac01prodE11/conf15/R02_reac01prodE11_conf15_gfn1.xyz --opt --vfukui --chrg -1 --uhf 0 --alpb DMSO
          hostname                   : node315
          coordinate file            : /lustre/hpc/kemi/ree/PhD/git/ReactivityQM/calculations/R02/reac01prodE11/conf15/R02_reac01prodE11_conf15_gfn1.xyz
          omp threads                :                     1

   ID    Z sym.   atoms
    1    6 C      1, 3, 5, 7-10, 12, 14, 17-19, 22, 24
    2    8 O      2, 4, 13, 20, 23, 25
    3    7 N      6, 11, 15, 16, 21
    4    1 H      26-43

           -------------------------------------------------
          |                 G F N 1 - x T B                 |
           -------------------------------------------------

        Reference                      10.1021/acs.jctc.7b00118
      * Hamiltonian:
        H0-scaling (s, p, d)           1.850000    2.250000    2.000000
        zeta-weighting                 0.000000
      * Dispersion:
        s8                             2.400000
        a1                             0.630000
        a2                             5.000000
        s9                             0.000000
      * Repulsion:
        kExp                           1.500000
        rExp                           1.000000
      * Coulomb:
        alpha                          2.000000
        third order                    atomic
        anisotropic                    false
      * Halogen bond correction:
        rad-scale                      1.300000
        damping                        0.440000

      * Solvation model:               ALPB
        Solvent                        DMSO
        Parameter file                 internal GFN1-xTB/ALPB
        Dielectric constant                4.6680E+01
        Reference state                gsolv [1 M gas/solution]
        Free energy shift                  7.6243E-03 Eh       4.7843E+00 kcal/mol
        Temperature                        2.9815E+02 K
        Density                            1.1000E+00 kg/L
        Solvent mass                       7.8130E+01 g/mol
        Interaction kernel             P16
        Born radius scaling (c1)           1.7672E+00
        Born radii integrator          GBOBC
        Born offset                        0.0000E+00 a0       0.0000E+00 AA
        H-bond correction              true
        Ion screening                  false
        Surface tension                    1.0000E-05 Eh       1.5569E+01 dyn/cm
        Grid points                               230 per atom

          ...................................................
          :                      SETUP                      :
          :.................................................:
          :  # basis functions                 136          :
          :  # atomic orbitals                 136          :
          :  # shells                           86          :
          :  # electrons                       136          :
          :  # halogen bonds                     0          :
          :  max. iterations                   250          :
          :  Hamiltonian                  GFN1-xTB          :
          :  restarted?                      false          :
          :  GBSA solvation                   true          :
          :  PC potential                    false          :
          :  electronic temp.          300.0000000     K    :
          :  accuracy                    1.0000000          :
          :  -> integral cutoff          0.2500000E+02      :
          :  -> integral neglect         0.1000000E-07      :
          :  -> SCF convergence          0.1000000E-05 Eh   :
          :  -> wf. convergence          0.2000000E-04 e    :
          :  Broyden damping             0.4000000          :
          ...................................................

 iter      E             dE          RMSdq      gap      omega  full diag
   1    -84.3180360 -0.843180E+02  0.850E+00    1.61       0.0  T
   2    -84.6006131 -0.282577E+00  0.509E+00    0.13       1.0  T
   3    -84.5576163  0.429968E-01  0.166E+00    0.24       1.0  T
   4    -84.2475195  0.310097E+00  0.175E+00    0.35       1.0  T
   5    -84.6047634 -0.357244E+00  0.525E-01    0.70       1.0  T
   6    -84.6154943 -0.107309E-01  0.285E-01    0.47       1.0  T
   7    -84.6162697 -0.775380E-03  0.245E-01    0.38       1.0  T
   8    -84.6176222 -0.135256E-02  0.203E-01    0.26       1.0  T
   9    -84.6221839 -0.456165E-02  0.137E-02    0.12       1.1  T
  10    -84.6221329  0.510335E-04  0.237E-02    0.12       1.0  T
  11    -84.6221027  0.301670E-04  0.272E-02    0.12       1.0  T
  12    -84.6221624 -0.596604E-04  0.154E-02    0.11       1.0  T
  13    -84.6221928 -0.304330E-04  0.182E-03    0.11       8.4  T
  14    -84.6221927  0.117690E-06  0.194E-03    0.11       7.9  T
  15    -84.6221931 -0.447871E-06  0.577E-04    0.11      26.4  T
  16    -84.6221932 -0.399271E-07  0.137E-04    0.11     111.0  T
  17    -84.6221932 -0.160063E-08  0.798E-05    0.11     191.1  T

   *** convergence criteria satisfied after 17 iterations ***

         #    Occupation            Energy/Eh            Energy/eV
      -------------------------------------------------------------
         1        2.0000           -0.8244281             -22.4338
       ...           ...                  ...                  ...
        62        2.0000           -0.4324279             -11.7670
        63        2.0000           -0.4261521             -11.5962
        64        2.0000           -0.4134537             -11.2506
        65        2.0000           -0.4102220             -11.1627
        66        2.0000           -0.4075927             -11.0912
        67        2.0000           -0.3767099             -10.2508
        68        1.8010           -0.3186780              -8.6717 (HOMO)
        69        0.1990           -0.3144923              -8.5578 (LUMO)
        70                         -0.2689809              -7.3193
        71                         -0.2400956              -6.5333
        72                         -0.2287747              -6.2253
        73                         -0.1459939              -3.9727
       ...                                ...                  ...
       136                          0.7122413              19.3811
      -------------------------------------------------------------
                  HL-Gap            0.0041856 Eh            0.1139 eV
             Fermi-level           -0.3165852 Eh           -8.6147 eV

 SCC (total)                   0 d,  0 h,  0 min,  0.228 sec
 SCC setup                      ...        0 min,  0.002 sec (  0.942%)
 Dispersion                     ...        0 min,  0.000 sec (  0.185%)
 classical contributions        ...        0 min,  0.000 sec (  0.063%)
 integral evaluation            ...        0 min,  0.076 sec ( 33.311%)
 iterations                     ...        0 min,  0.064 sec ( 28.081%)
 molecular gradient             ...        0 min,  0.084 sec ( 36.970%)
 printout                       ...        0 min,  0.001 sec (  0.426%)

         :::::::::::::::::::::::::::::::::::::::::::::::::::::
         ::                     SUMMARY                     ::
         :::::::::::::::::::::::::::::::::::::::::::::::::::::
         :: total energy             -83.873829817571 Eh    ::
         :: total w/o Gsasa/hb       -83.851437980596 Eh    ::
         :: gradient norm              0.105732225412 Eh/a0 ::
         :: HOMO-LUMO gap              0.113896195881 eV    ::
         ::.................................................::
         :: SCC energy               -84.622193155816 Eh    ::
         :: -> electrostatic           0.447921268236 Eh    ::
         :: -> Gsolv                  -0.111682979843 Eh    ::
         ::    -> Gelec               -0.089291142868 Eh    ::
         ::    -> Gsasa               -0.024552199750 Eh    ::
         ::    -> Ghb                 -0.005463916230 Eh    ::
         ::    -> Gshift               0.007624279005 Eh    ::
         :: repulsion energy           0.774494725052 Eh    ::
         :: dispersion energy         -0.026131386808 Eh    ::
         :: halogen bond corr.         0.000000000000 Eh    ::
         :: add. restraining           0.000000000000 Eh    ::
         :: total charge              -1.000000000000 e     ::
         :::::::::::::::::::::::::::::::::::::::::::::::::::::

      ----------------------------------------------------------- 
     |                   =====================                   |
     |                        A N C O P T                        |
     |                   =====================                   |
     |               Approximate Normal Coordinate               |
     |                Rational Function Optimizer                |
      ----------------------------------------------------------- 

          ...................................................
          :                      SETUP                      :
          :.................................................:
          :   optimization level            normal          :
          :   max. optcycles                   200          :
          :   ANC micro-cycles                  20          :
          :   degrees of freedom               123          :
          :.................................................:
          :   RF solver                   davidson          :
          :   write xtbopt.log                true          :
          :   linear?                        false          :
          :   energy convergence         0.5000000E-05 Eh   :
          :   grad. convergence          0.1000000E-02 Eh/α :
          :   maximium RF displ.         1.0000000          :
          :   Hlow (freq-cutoff)         0.1000000E-01      :
          :   Hmax (freq-cutoff)         5.0000000          :
          :   S6 in model hess.         20.0000000          :
          ...................................................

generating ANC from model Hessian ...
Using Lindh-Hessian (1995)
 Shifting diagonal of input Hessian by   9.814283500903447E-003
 Lowest  eigenvalues of input Hessian
    0.000000    0.000000    0.000000    0.000000    0.000000    0.000000
    0.010000    0.010036    0.010472    0.011353    0.011774    0.011941
    0.012796    0.012926    0.014432    0.014973    0.017632    0.018257
 Highest eigenvalues
    1.976623    2.072940    2.158528    2.290875    2.300154    2.413482
 

........................................................................
.............................. CYCLE    1 ..............................
........................................................................
   1    -84.6221932 -0.846222E+02  0.600E-06    0.11       0.0  T
   2    -84.6221932  0.273474E-09  0.471E-05    0.11     323.6  T
   3    -84.6221932 -0.278163E-09  0.604E-07    0.11   25251.1  T
     SCC iter.                  ...        0 min,  0.012 sec
     gradient                   ...        0 min,  0.116 sec
 * total energy  :   -83.8738298 Eh     change       -0.8062244E-09 Eh
   gradient norm :     0.1057272 Eh/α   predicted     0.0000000E+00 (-100.00%)
   displ. norm   :     0.2686658 α      lambda       -0.1197031E-01
   maximum displ.:     0.1041804 α      in ANC's #11, #22, #25, ...

........................................................................
.............................. CYCLE    2 ..............................
........................................................................
   1    -84.6290200 -0.846290E+02  0.173E-01    0.28       0.0  T
   2    -84.2753247  0.353695E+00  0.169E+00    0.16       1.0  T
   3    -84.6304453 -0.355121E+00  0.123E-01    0.21       1.0  T
   4    -84.6317520 -0.130670E-02  0.712E-02    0.16       1.0  T
   5    -84.6322834 -0.531344E-03  0.438E-02    0.11       1.0  T
   6    -84.6315127  0.770699E-03  0.877E-02    0.10       1.0  T
   7    -84.6324121 -0.899373E-03  0.223E-02    0.12       1.0  T
   8    -84.6324638 -0.517324E-04  0.790E-03    0.12       1.9  T
   9    -84.6324697 -0.586897E-05  0.377E-03    0.13       4.0  T
  10    -84.6324711 -0.145286E-05  0.152E-03    0.13      10.0  T
  11    -84.6324714 -0.260336E-06  0.415E-04    0.13      36.8  T
  12    -84.6324714 -0.193627E-07  0.115E-04    0.13     132.7  T
  13    -84.6324714 -0.155600E-08  0.241E-05    0.13     633.0  T
     SCC iter.                  ...        0 min,  0.048 sec
     gradient                   ...        0 min,  0.084 sec
 * total energy  :   -83.8825406 Eh     change       -0.8710800E-02 Eh
   gradient norm :     0.0508047 Eh/α   predicted    -0.6421789E-02 ( -26.28%)
   displ. norm   :     0.3013993 α      lambda       -0.5442769E-02
   maximum displ.:     0.1430024 α      in ANC's #11, #6, #22, ...

........................................................................
.............................. CYCLE    3 ..............................
........................................................................
   1    -84.6375328 -0.846375E+02  0.139E-01    0.30       0.0  T
   2    -84.4237710  0.213762E+00  0.132E+00    0.06       1.0  T
   3    -84.6383632 -0.214592E+00  0.995E-02    0.24       1.0  T
   4    -84.6390195 -0.656285E-03  0.680E-02    0.19       1.0  T
   5    -84.6396460 -0.626516E-03  0.117E-02    0.14       1.3  T
   6    -84.6390874  0.558595E-03  0.676E-02    0.12       1.0  T
   7    -84.6395797 -0.492274E-03  0.241E-02    0.13       1.0  T
   8    -84.6396420 -0.623398E-04  0.732E-03    0.14       2.1  T
   9    -84.6396462 -0.422024E-05  0.424E-03    0.14       3.6  T
  10    -84.6396477 -0.151009E-05  0.231E-03    0.14       6.6  T
  11    -84.6396484 -0.611073E-06  0.505E-04    0.14      30.2  T
  12    -84.6396484 -0.283063E-07  0.130E-04    0.14     117.3  T
  13    -84.6396484 -0.174563E-08  0.458E-05    0.14     332.9  T
     SCC iter.                  ...        0 min,  0.048 sec
     gradient                   ...        0 min,  0.084 sec
 * total energy  :   -83.8857085 Eh     change       -0.3167926E-02 Eh
   gradient norm :     0.0147728 Eh/α   predicted    -0.2969356E-02 (  -6.27%)
   displ. norm   :     0.2043404 α      lambda       -0.8027300E-03
   maximum displ.:     0.1036704 α      in ANC's #11, #6, #7, ...

........................................................................
.............................. CYCLE    4 ..............................
........................................................................
   1    -84.6398523 -0.846399E+02  0.577E-02    0.19       0.0  T
   2    -84.6014841  0.383682E-01  0.560E-01    0.04       1.0  T
   3    -84.6401894 -0.387053E-01  0.255E-02    0.16       1.0  T
   4    -84.6402737 -0.843067E-04  0.557E-03    0.15       2.7  T
   5    -84.6402547  0.189942E-04  0.143E-02    0.14       1.1  T
   6    -84.6402684 -0.137377E-04  0.907E-03    0.14       1.7  T
   7    -84.6402765 -0.810055E-05  0.354E-03    0.15       4.3  T
   8    -84.6402778 -0.125850E-05  0.146E-03    0.15      10.5  T
   9    -84.6402779 -0.151667E-06  0.872E-04    0.15      17.5  T
  10    -84.6402780 -0.826664E-07  0.234E-04    0.15      65.1  T
  11    -84.6402780 -0.636074E-08  0.217E-05    0.15     701.5  T
  12    -84.6402780 -0.515428E-10  0.362E-06    0.15    4208.7  T
     SCC iter.                  ...        0 min,  0.045 sec
     gradient                   ...        0 min,  0.084 sec
 * total energy  :   -83.8863408 Eh     change       -0.6322664E-03 Eh
   gradient norm :     0.0113199 Eh/α   predicted    -0.4181281E-03 ( -33.87%)
   displ. norm   :     0.3731680 α      lambda       -0.9942155E-03
   maximum displ.:     0.1683049 α      in ANC's #6, #11, #7, ...

........................................................................
.............................. CYCLE    5 ..............................
........................................................................
   1    -84.6398586 -0.846399E+02  0.566E-02    0.20       0.0  T
   2    -84.6160083  0.238502E-01  0.444E-01    0.05       1.0  T
   3    -84.6401670 -0.241586E-01  0.269E-02    0.17       1.0  T
   4    -84.6402304 -0.634098E-04  0.128E-02    0.16       1.2  T
   5    -84.6402493 -0.189456E-04  0.648E-03    0.15       2.4  T
   6    -84.6402435  0.580971E-05  0.923E-03    0.15       1.7  T
   7    -84.6402508 -0.733421E-05  0.456E-03    0.15       3.3  T
   8    -84.6402531 -0.222815E-05  0.128E-03    0.16      11.9  T
   9    -84.6402532 -0.137273E-06  0.666E-04    0.16      22.9  T
  10    -84.6402532 -0.409061E-07  0.290E-04    0.16      52.7  T
  11    -84.6402533 -0.945475E-08  0.463E-05    0.16     329.6  T
  12    -84.6402533 -0.243531E-09  0.294E-06    0.16    5195.1  T
     SCC iter.                  ...        0 min,  0.044 sec
     gradient                   ...        0 min,  0.084 sec
 * total energy  :   -83.8870308 Eh     change       -0.6899862E-03 Eh
   gradient norm :     0.0105421 Eh/α   predicted    -0.5663374E-03 ( -17.92%)
   displ. norm   :     0.3186067 α      lambda       -0.4930167E-03
   maximum displ.:     0.1593781 α      in ANC's #7, #6, #4, ...

........................................................................
.............................. CYCLE    6 ..............................
........................................................................
   1    -84.6409306 -0.846409E+02  0.319E-02    0.18       0.0  T
   2    -84.6379753  0.295532E-02  0.160E-01    0.10       1.0  T
   3    -84.6410345 -0.305917E-02  0.120E-02    0.17       1.3  T
   4    -84.6410453 -0.108565E-04  0.442E-03    0.16       3.4  T
   5    -84.6410472 -0.193941E-05  0.237E-03    0.16       6.4  T
   6    -84.6410470  0.250541E-06  0.259E-03    0.16       5.9  T
   7    -84.6410477 -0.688092E-06  0.759E-04    0.16      20.1  T
   8    -84.6410477 -0.645525E-07  0.370E-05    0.16     411.7  T
   9    -84.6410477  0.219686E-09  0.533E-05    0.16     285.9  T
     SCC iter.                  ...        0 min,  0.034 sec
     gradient                   ...        0 min,  0.083 sec
 * total energy  :   -83.8873995 Eh     change       -0.3686712E-03 Eh
   gradient norm :     0.0096158 Eh/α   predicted    -0.2715585E-03 ( -26.34%)
   displ. norm   :     0.3548254 α      lambda       -0.4341300E-03
   maximum displ.:     0.1964092 α      in ANC's #7, #6, #4, ...

........................................................................
.............................. CYCLE    7 ..............................
........................................................................
   1    -84.6428826 -0.846429E+02  0.181E-02    0.17       0.0  T
   2    -84.6425126  0.370001E-03  0.582E-02    0.13       1.0  T
   3    -84.6429066 -0.393967E-03  0.955E-03    0.17       1.6  T
   4    -84.6429133 -0.664571E-05  0.310E-03    0.16       4.9  T
   5    -84.6429140 -0.744066E-06  0.964E-04    0.16      15.8  T
   6    -84.6429140 -0.258255E-07  0.348E-04    0.16      43.8  T
   7    -84.6429140 -0.101668E-07  0.813E-05    0.16     187.5  T
   8    -84.6429140 -0.544986E-10  0.476E-05    0.16     320.6  T
     SCC iter.                  ...        0 min,  0.029 sec
     gradient                   ...        0 min,  0.085 sec
 * total energy  :   -83.8877182 Eh     change       -0.3187325E-03 Eh
   gradient norm :     0.0075993 Eh/α   predicted    -0.2444032E-03 ( -23.32%)
   displ. norm   :     0.3117918 α      lambda       -0.2828724E-03
   maximum displ.:     0.1808973 α      in ANC's #7, #6, #3, ...

........................................................................
.............................. CYCLE    8 ..............................
........................................................................
   1    -84.6447399 -0.846447E+02  0.853E-03    0.16       0.0  T
   2    -84.6447230  0.168084E-04  0.147E-02    0.17       1.0  T
   3    -84.6447417 -0.186918E-04  0.587E-03    0.16       2.6  T
   4    -84.6447450 -0.324526E-05  0.259E-03    0.16       5.9  T
   5    -84.6447452 -0.234779E-06  0.117E-03    0.16      13.1  T
   6    -84.6447453 -0.100651E-06  0.203E-04    0.16      75.3  T
   7    -84.6447453 -0.196502E-08  0.684E-05    0.16     222.9  T
   8    -84.6447453 -0.211358E-09  0.273E-05    0.16     558.0  T
     SCC iter.                  ...        0 min,  0.029 sec
     gradient                   ...        0 min,  0.085 sec
 * total energy  :   -83.8879212 Eh     change       -0.2030280E-03 Eh
   gradient norm :     0.0062395 Eh/α   predicted    -0.1551862E-03 ( -23.56%)
   displ. norm   :     0.2367051 α      lambda       -0.1620408E-03
   maximum displ.:     0.1326732 α      in ANC's #7, #3, #6, ...

........................................................................
.............................. CYCLE    9 ..............................
........................................................................
   1    -84.6459178 -0.846459E+02  0.202E-02    0.15       0.0  T
   2    -84.6456471  0.270680E-03  0.541E-02    0.20       1.0  T
   3    -84.6459631 -0.315947E-03  0.605E-03    0.16       2.5  T
   4    -84.6459663 -0.328197E-05  0.221E-03    0.16       6.9  T
   5    -84.6459666 -0.230769E-06  0.680E-04    0.16      22.4  T
   6    -84.6459665  0.313363E-07  0.570E-04    0.16      26.7  T
   7    -84.6459666 -0.310016E-07  0.125E-04    0.16     121.8  T
   8    -84.6459666 -0.179318E-08  0.313E-05    0.16     487.0  T
     SCC iter.                  ...        0 min,  0.021 sec
     gradient                   ...        0 min,  0.049 sec
 * total energy  :   -83.8880409 Eh     change       -0.1196392E-03 Eh
   gradient norm :     0.0045146 Eh/α   predicted    -0.8556218E-04 ( -28.48%)
   displ. norm   :     0.2184683 α      lambda       -0.1156477E-03
   maximum displ.:     0.1186988 α      in ANC's #3, #7, #2, ...

........................................................................
.............................. CYCLE   10 ..............................
........................................................................
   1    -84.6462537 -0.846463E+02  0.225E-02    0.15       0.0  T
   2    -84.6459361  0.317669E-03  0.582E-02    0.20       1.0  T
   3    -84.6463089 -0.372873E-03  0.556E-03    0.16       2.7  T
   4    -84.6463111 -0.214275E-05  0.186E-03    0.16       8.2  T
   5    -84.6463113 -0.217856E-06  0.683E-04    0.16      22.3  T
   6    -84.6463113  0.278105E-07  0.540E-04    0.16      28.2  T
   7    -84.6463113 -0.296732E-07  0.986E-05    0.16     154.7  T
   8    -84.6463113 -0.983661E-09  0.167E-05    0.16     914.5  T
     SCC iter.                  ...        0 min,  0.020 sec
     gradient                   ...        0 min,  0.084 sec
 * total energy  :   -83.8881277 Eh     change       -0.8683402E-04 Eh
   gradient norm :     0.0029241 Eh/α   predicted    -0.6058631E-04 ( -30.23%)
   displ. norm   :     0.1832437 α      lambda       -0.9708080E-04
   maximum displ.:     0.1101047 α      in ANC's #3, #2, #1, ...

........................................................................
.............................. CYCLE   11 ..............................
........................................................................
   1    -84.6465631 -0.846466E+02  0.250E-02    0.14       0.0  T
   2    -84.6461285  0.434565E-03  0.682E-02    0.20       1.0  T
   3    -84.6466318 -0.503319E-03  0.863E-03    0.16       1.8  T
   4    -84.6466395 -0.762797E-05  0.215E-03    0.15       7.1  T
   5    -84.6466398 -0.361935E-06  0.689E-04    0.15      22.1  T
   6    -84.6466397  0.895660E-07  0.922E-04    0.15      16.5  T
   7    -84.6466398 -0.924232E-07  0.115E-04    0.15     133.1  T
   8    -84.6466398 -0.141048E-08  0.212E-05    0.15     719.5  T
     SCC iter.                  ...        0 min,  0.030 sec
     gradient                   ...        0 min,  0.085 sec
 * total energy  :   -83.8882082 Eh     change       -0.8047054E-04 Eh
   gradient norm :     0.0032685 Eh/α   predicted    -0.5017170E-04 ( -37.65%)
   displ. norm   :     0.2559379 α      lambda       -0.1368197E-03
   maximum displ.:     0.1538470 α      in ANC's #3, #2, #1, ...

........................................................................
.............................. CYCLE   12 ..............................
........................................................................
   1    -84.6457773 -0.846458E+02  0.169E-02    0.15       0.0  T
   2    -84.6455835  0.193784E-03  0.440E-02    0.18       1.0  T
   3    -84.6458021 -0.218617E-03  0.732E-03    0.15       2.1  T
   4    -84.6458056 -0.349634E-05  0.117E-03    0.15      13.1  T
   5    -84.6458056  0.640080E-08  0.844E-04    0.15      18.1  T
   6    -84.6458056 -0.502406E-08  0.289E-04    0.15      52.7  T
   7    -84.6458056 -0.706483E-08  0.629E-05    0.15     242.5  T
   8    -84.6458056 -0.349772E-09  0.234E-05    0.15     651.3  T
     SCC iter.                  ...        0 min,  0.030 sec
     gradient                   ...        0 min,  0.052 sec
 * total energy  :   -83.8883246 Eh     change       -0.1164748E-03 Eh
   gradient norm :     0.0056791 Eh/α   predicted    -0.7289199E-04 ( -37.42%)
   displ. norm   :     0.3700958 α      lambda       -0.1932874E-03
   maximum displ.:     0.2126816 α      in ANC's #3, #2, #1, ...

........................................................................
.............................. CYCLE   13 ..............................
........................................................................
   1    -84.6452956 -0.846453E+02  0.178E-02    0.14       0.0  T
   2    -84.6450162  0.279392E-03  0.529E-02    0.18       1.0  T
   3    -84.6453319 -0.315721E-03  0.558E-03    0.15       2.7  T
   4    -84.6453335 -0.160161E-05  0.192E-03    0.15       7.9  T
   5    -84.6453337 -0.196504E-06  0.835E-04    0.15      18.3  T
   6    -84.6453337  0.480900E-08  0.504E-04    0.15      30.3  T
   7    -84.6453338 -0.289009E-07  0.672E-05    0.15     226.9  T
   8    -84.6453338 -0.336726E-09  0.137E-05    0.15    1109.8  T
     SCC iter.                  ...        0 min,  0.027 sec
     gradient                   ...        0 min,  0.065 sec
 * total energy  :   -83.8884839 Eh     change       -0.1592953E-03 Eh
   gradient norm :     0.0074728 Eh/α   predicted    -0.1098827E-03 ( -31.02%)
   displ. norm   :     0.4598899 α      lambda       -0.2206723E-03
   maximum displ.:     0.2683677 α      in ANC's #3, #2, #1, ...

........................................................................
.............................. CYCLE   14 ..............................
........................................................................
   1    -84.6430892 -0.846431E+02  0.145E-02    0.16       0.0  T
   2    -84.6424760  0.613161E-03  0.742E-02    0.12       1.0  T
   3    -84.6431163 -0.640263E-03  0.382E-03    0.15       4.0  T
   4    -84.6431167 -0.427107E-06  0.287E-03    0.15       5.3  T
   5    -84.6431165  0.160213E-06  0.252E-03    0.15       6.1  T
   6    -84.6431171 -0.551304E-06  0.765E-04    0.15      19.9  T
   7    -84.6431171 -0.524984E-07  0.180E-04    0.15      84.7  T
   8    -84.6431171 -0.352942E-08  0.182E-05    0.15     838.4  T
     SCC iter.                  ...        0 min,  0.024 sec
     gradient                   ...        0 min,  0.083 sec
 * total energy  :   -83.8886626 Eh     change       -0.1786529E-03 Eh
   gradient norm :     0.0093744 Eh/α   predicted    -0.1336777E-03 ( -25.17%)
   displ. norm   :     0.5057333 α      lambda       -0.2509243E-03
   maximum displ.:     0.2892112 α      in ANC's #2, #3, #1, ...

........................................................................
.............................. CYCLE   15 ..............................
........................................................................
   1    -84.6430384 -0.846430E+02  0.192E-02    0.16       0.0  T
   2    -84.6421591  0.879377E-03  0.878E-02    0.12       1.0  T
   3    -84.6430765 -0.917433E-03  0.701E-03    0.16       2.2  T
   4    -84.6430795 -0.300836E-05  0.241E-03    0.16       6.3  T
   5    -84.6430801 -0.631686E-06  0.717E-04    0.15      21.3  T
   6    -84.6430801  0.223671E-07  0.641E-04    0.15      23.8  T
   7    -84.6430801 -0.385538E-07  0.133E-04    0.15     114.3  T
   8    -84.6430801 -0.172554E-08  0.291E-05    0.15     524.2  T
     SCC iter.                  ...        0 min,  0.028 sec
     gradient                   ...        0 min,  0.084 sec
 * total energy  :   -83.8888662 Eh     change       -0.2036112E-03 Eh
   gradient norm :     0.0076246 Eh/α   predicted    -0.1575518E-03 ( -22.62%)
   displ. norm   :     0.5004669 α      lambda       -0.2676853E-03
   maximum displ.:     0.2992550 α      in ANC's #2, #3, #1, ...

........................................................................
.............................. CYCLE   16 ..............................
........................................................................
   1    -84.6438309 -0.846438E+02  0.333E-02    0.18       0.0  T
   2    -84.6406672  0.316371E-02  0.164E-01    0.10       1.0  T
   3    -84.6439328 -0.326566E-02  0.183E-02    0.16       1.0  T
   4    -84.6439508 -0.179524E-04  0.861E-03    0.16       1.8  T
   5    -84.6439588 -0.807706E-05  0.194E-03    0.16       7.9  T
   6    -84.6439587  0.164889E-06  0.183E-03    0.16       8.4  T
   7    -84.6439590 -0.322576E-06  0.709E-04    0.16      21.5  T
   8    -84.6439591 -0.595363E-07  0.655E-05    0.16     233.0  T
   9    -84.6439591 -0.389662E-09  0.128E-05    0.16    1190.7  T
     SCC iter.                  ...        0 min,  0.022 sec
     gradient                   ...        0 min,  0.045 sec
 * total energy  :   -83.8890775 Eh     change       -0.2112553E-03 Eh
   gradient norm :     0.0062372 Eh/α   predicted    -0.1673727E-03 ( -20.77%)
   displ. norm   :     0.4578244 α      lambda       -0.2567977E-03
   maximum displ.:     0.2902631 α      in ANC's #2, #1, #3, ...

........................................................................
.............................. CYCLE   17 ..............................
........................................................................
   1    -84.6468688 -0.846469E+02  0.282E-02    0.17       0.0  T
   2    -84.6457856  0.108318E-02  0.972E-02    0.12       1.0  T
   3    -84.6469164 -0.113075E-02  0.207E-02    0.17       1.0  T
   4    -84.6469429 -0.265783E-04  0.860E-03    0.16       1.8  T
   5    -84.6469501 -0.717837E-05  0.194E-03    0.16       7.9  T
   6    -84.6469501 -0.349284E-08  0.116E-03    0.16      13.1  T
   7    -84.6469503 -0.155213E-06  0.225E-04    0.16      67.8  T
   8    -84.6469503 -0.524018E-08  0.980E-05    0.16     155.5  T
   9    -84.6469503 -0.947509E-09  0.248E-05    0.16     615.3  T
     SCC iter.                  ...        0 min,  0.028 sec
     gradient                   ...        0 min,  0.085 sec
 * total energy  :   -83.8892714 Eh     change       -0.1939160E-03 Eh
   gradient norm :     0.0054811 Eh/α   predicted    -0.1553180E-03 ( -19.90%)
   displ. norm   :     0.5945187 α      lambda       -0.2617496E-03
   maximum displ.:     0.3695664 α      in ANC's #2, #1, #3, ...

........................................................................
.............................. CYCLE   18 ..............................
........................................................................
   1    -84.6452135 -0.846452E+02  0.254E-02    0.18       0.0  T
   2    -84.6442687  0.944833E-03  0.920E-02    0.12       1.0  T
   3    -84.6452716 -0.100299E-02  0.125E-02    0.17       1.2  T
   4    -84.6452818 -0.101542E-04  0.384E-03    0.17       4.0  T
   5    -84.6452824 -0.616881E-06  0.245E-03    0.16       6.2  T
   6    -84.6452826 -0.220096E-06  0.165E-03    0.16       9.2  T
   7    -84.6452829 -0.301979E-06  0.318E-04    0.16      47.9  T
   8    -84.6452829 -0.111079E-07  0.881E-05    0.16     173.1  T
   9    -84.6452830 -0.792156E-09  0.122E-05    0.16    1252.1  T
     SCC iter.                  ...        0 min,  0.031 sec
     gradient                   ...        0 min,  0.053 sec
 * total energy  :   -83.8894646 Eh     change       -0.1932100E-03 Eh
   gradient norm :     0.0104694 Eh/α   predicted    -0.1771356E-03 (  -8.32%)
   displ. norm   :     0.4480174 α      lambda       -0.2988807E-03
   maximum displ.:     0.2981066 α      in ANC's #2, #1, #3, ...

........................................................................
.............................. CYCLE   19 ..............................
........................................................................
   1    -84.6484605 -0.846485E+02  0.935E-03    0.17       0.0  T
   2    -84.6484582  0.230254E-05  0.803E-03    0.16       1.9  T
   3    -84.6484550  0.325399E-05  0.103E-02    0.17       1.5  T
   4    -84.6484649 -0.993168E-05  0.248E-03    0.17       6.2  T
   5    -84.6484651 -0.181479E-06  0.101E-03    0.16      15.0  T
   6    -84.6484651 -0.195114E-07  0.160E-04    0.16      95.6  T
   7    -84.6484651 -0.176958E-08  0.486E-05    0.16     314.0  T
     SCC iter.                  ...        0 min,  0.019 sec
     gradient                   ...        0 min,  0.045 sec
 * total energy  :   -83.8897006 Eh     change       -0.2360453E-03 Eh
   gradient norm :     0.0101926 Eh/α   predicted    -0.1794418E-03 ( -23.98%)
   displ. norm   :     0.6275342 α      lambda       -0.3722424E-03
   maximum displ.:     0.4126602 α      in ANC's #2, #1, #3, ...

........................................................................
.............................. CYCLE   20 ..............................
........................................................................
   1    -84.6463333 -0.846463E+02  0.110E-02    0.17       0.0  T
   2    -84.6463191  0.142720E-04  0.151E-02    0.16       1.0  T
   3    -84.6463341 -0.150352E-04  0.781E-03    0.17       2.0  T
   4    -84.6463394 -0.530493E-05  0.365E-03    0.16       4.2  T
   5    -84.6463400 -0.617661E-06  0.603E-04    0.17      25.3  T
   6    -84.6463400 -0.272436E-09  0.271E-04    0.17      56.2  T
   7    -84.6463400 -0.687560E-08  0.358E-05    0.17     425.8  T
   8    -84.6463400 -0.795950E-10  0.124E-05    0.17    1230.8  T
     SCC iter.                  ...        0 min,  0.023 sec
     gradient                   ...        0 min,  0.058 sec
 * total energy  :   -83.8899987 Eh     change       -0.2980224E-03 Eh
   gradient norm :     0.0074528 Eh/α   predicted    -0.2594162E-03 ( -12.95%)
   displ. norm   :     0.6119680 α      lambda       -0.4313882E-03
   maximum displ.:     0.4118070 α      in ANC's #2, #1, #3, ...
 * RMSD in coord.:     0.9028209 α      energy gain  -0.1616884E-01 Eh

generating ANC from model Hessian ...
Using Lindh-Hessian (1995)
 Shifting diagonal of input Hessian by   9.796345297139250E-003
 Lowest  eigenvalues of input Hessian
    0.000000    0.000000    0.000000    0.000000    0.000000    0.000000
    0.010000    0.010057    0.010487    0.011137    0.011976    0.012090
    0.012902    0.013019    0.014156    0.014364    0.018000    0.018165
 Highest eigenvalues
    2.019092    2.118107    2.195989    2.293850    2.352568    2.436889
 

........................................................................
.............................. CYCLE   21 ..............................
........................................................................
   1    -84.6474014 -0.846474E+02  0.300E-02    0.15       0.0  T
   2    -84.6472570  0.144422E-03  0.445E-02    0.20       1.0  T
   3    -84.6474469 -0.189889E-03  0.182E-02    0.16       1.0  T
   4    -84.6474742 -0.272718E-04  0.525E-03    0.17       2.9  T
   5    -84.6474754 -0.127016E-05  0.209E-03    0.16       7.3  T
   6    -84.6474755 -0.514001E-07  0.537E-04    0.16      28.4  T
   7    -84.6474755 -0.274203E-07  0.146E-04    0.16     104.5  T
   8    -84.6474755 -0.170826E-08  0.314E-05    0.16     485.7  T
     SCC iter.                  ...        0 min,  0.020 sec
     gradient                   ...        0 min,  0.045 sec
 * total energy  :   -83.8903304 Eh     change       -0.3317648E-03 Eh
   gradient norm :     0.0081618 Eh/α   predicted     0.0000000E+00 (-100.00%)
   displ. norm   :     0.0738544 α      lambda       -0.1655648E-03
   maximum displ.:     0.0390043 α      in ANC's #1, #11, #9, ...

........................................................................
.............................. CYCLE   22 ..............................
........................................................................
   1    -84.6479038 -0.846479E+02  0.898E-03    0.17       0.0  T
   2    -84.6478662  0.375761E-04  0.196E-02    0.15       1.0  T
   3    -84.6479093 -0.430417E-04  0.600E-03    0.17       2.5  T
   4    -84.6479120 -0.278437E-05  0.114E-03    0.17      13.4  T
   5    -84.6479121 -0.400988E-07  0.667E-04    0.17      22.9  T
   6    -84.6479121 -0.103779E-07  0.217E-04    0.17      70.1  T
   7    -84.6479121 -0.285812E-08  0.361E-05    0.17     422.7  T
   8    -84.6479121 -0.429452E-10  0.110E-05    0.17    1383.9  T
     SCC iter.                  ...        0 min,  0.020 sec
     gradient                   ...        0 min,  0.045 sec
 * total energy  :   -83.8904698 Eh     change       -0.1394078E-03 Eh
   gradient norm :     0.0048291 Eh/α   predicted    -0.8323422E-04 ( -40.29%)
   displ. norm   :     0.2380993 α      lambda       -0.3668115E-03
   maximum displ.:     0.1328751 α      in ANC's #1, #3, #11, ...

........................................................................
.............................. CYCLE   23 ..............................
........................................................................
   1    -84.6475858 -0.846476E+02  0.244E-02    0.18       0.0  T
   2    -84.6472371  0.348696E-03  0.585E-02    0.14       1.0  T
   3    -84.6476295 -0.392378E-03  0.161E-02    0.18       1.0  T
   4    -84.6476480 -0.184947E-04  0.423E-03    0.17       3.6  T
   5    -84.6476484 -0.414870E-06  0.266E-03    0.17       5.7  T
   6    -84.6476487 -0.268972E-06  0.124E-03    0.17      12.3  T
   7    -84.6476488 -0.156673E-06  0.115E-04    0.17     132.6  T
   8    -84.6476488 -0.191022E-09  0.631E-05    0.17     241.7  T
     SCC iter.                  ...        0 min,  0.020 sec
     gradient                   ...        0 min,  0.045 sec
 * total energy  :   -83.8907198 Eh     change       -0.2499696E-03 Eh
   gradient norm :     0.0048803 Eh/α   predicted    -0.1938086E-03 ( -22.47%)
   displ. norm   :     0.2088822 α      lambda       -0.1794650E-03
   maximum displ.:     0.1320679 α      in ANC's #1, #3, #21, ...

........................................................................
.............................. CYCLE   24 ..............................
........................................................................
   1    -84.6466780 -0.846467E+02  0.176E-02    0.18       0.0  T
   2    -84.6465111  0.166854E-03  0.415E-02    0.15       1.0  T
   3    -84.6467067 -0.195636E-03  0.900E-03    0.18       1.7  T
   4    -84.6467107 -0.396941E-05  0.382E-03    0.17       4.0  T
   5    -84.6467103  0.394621E-06  0.224E-03    0.17       6.8  T
   6    -84.6467107 -0.407107E-06  0.518E-04    0.17      29.4  T
   7    -84.6467108 -0.250183E-07  0.108E-04    0.17     141.5  T
   8    -84.6467108 -0.219430E-09  0.439E-05    0.17     347.1  T
     SCC iter.                  ...        0 min,  0.022 sec
     gradient                   ...        0 min,  0.047 sec
 * total energy  :   -83.8908484 Eh     change       -0.1286322E-03 Eh
   gradient norm :     0.0072147 Eh/α   predicted    -0.9364849E-04 ( -27.20%)
   displ. norm   :     0.1897510 α      lambda       -0.1499998E-03
   maximum displ.:     0.1336604 α      in ANC's #1, #3, #21, ...

........................................................................
.............................. CYCLE   25 ..............................
........................................................................
   1    -84.6463448 -0.846463E+02  0.125E-02    0.18       0.0  T
   2    -84.6462856  0.592290E-04  0.261E-02    0.16       1.0  T
   3    -84.6463598 -0.742104E-04  0.605E-03    0.18       2.5  T
   4    -84.6463607 -0.958049E-06  0.350E-03    0.18       4.4  T
   5    -84.6463607  0.382670E-07  0.139E-03    0.18      11.0  T
   6    -84.6463608 -0.128875E-06  0.181E-04    0.18      84.4  T
   7    -84.6463608 -0.132417E-08  0.887E-05    0.18     171.9  T
     SCC iter.                  ...        0 min,  0.018 sec
     gradient                   ...        0 min,  0.045 sec
 * total energy  :   -83.8909651 Eh     change       -0.1166339E-03 Eh
   gradient norm :     0.0070737 Eh/α   predicted    -0.7770587E-04 ( -33.38%)
   displ. norm   :     0.2080889 α      lambda       -0.1846880E-03
   maximum displ.:     0.1536917 α      in ANC's #1, #3, #4, ...

........................................................................
.............................. CYCLE   26 ..............................
........................................................................
   1    -84.6468942 -0.846469E+02  0.112E-02    0.18       0.0  T
   2    -84.6468801  0.140895E-04  0.157E-02    0.17       1.0  T
   3    -84.6469027 -0.226007E-04  0.643E-03    0.18       2.4  T
   4    -84.6469053 -0.255696E-05  0.296E-03    0.18       5.2  T
   5    -84.6469053 -0.137549E-07  0.148E-03    0.18      10.3  T
   6    -84.6469054 -0.768603E-07  0.171E-04    0.18      89.1  T
   7    -84.6469054 -0.113630E-08  0.744E-05    0.18     204.8  T
     SCC iter.                  ...        0 min,  0.018 sec
     gradient                   ...        0 min,  0.045 sec
 * total energy  :   -83.8911021 Eh     change       -0.1370529E-03 Eh
   gradient norm :     0.0040036 Eh/α   predicted    -0.9634313E-04 ( -29.70%)
   displ. norm   :     0.2064724 α      lambda       -0.1249553E-03
   maximum displ.:     0.1536732 α      in ANC's #1, #3, #9, ...

........................................................................
.............................. CYCLE   27 ..............................
........................................................................
   1    -84.6471619 -0.846472E+02  0.105E-02    0.19       0.0  T
   2    -84.6471555  0.646793E-05  0.128E-02    0.17       1.2  T
   3    -84.6471694 -0.139137E-04  0.612E-03    0.19       2.5  T
   4    -84.6471718 -0.247031E-05  0.273E-03    0.18       5.6  T
   5    -84.6471719 -0.799107E-07  0.121E-03    0.18      12.6  T
   6    -84.6471720 -0.347793E-07  0.155E-04    0.18      98.3  T
   7    -84.6471720 -0.109090E-08  0.632E-05    0.18     241.3  T
     SCC iter.                  ...        0 min,  0.017 sec
     gradient                   ...        0 min,  0.045 sec
 * total energy  :   -83.8911971 Eh     change       -0.9494578E-04 Eh
   gradient norm :     0.0033334 Eh/α   predicted    -0.6514209E-04 ( -31.39%)
   displ. norm   :     0.1639033 α      lambda       -0.8108580E-04
   maximum displ.:     0.1242178 α      in ANC's #1, #3, #9, ...

........................................................................
.............................. CYCLE   28 ..............................
........................................................................
   1    -84.6475970 -0.846476E+02  0.724E-03    0.19       0.0  T
   2    -84.6475936  0.337238E-05  0.899E-03    0.18       1.7  T
   3    -84.6476012 -0.757243E-05  0.382E-03    0.19       4.0  T
   4    -84.6476023 -0.106166E-05  0.125E-03    0.18      12.2  T
   5    -84.6476023 -0.121540E-07  0.671E-04    0.18      22.7  T
   6    -84.6476023 -0.636335E-08  0.875E-05    0.19     174.3  T
   7    -84.6476023 -0.354021E-09  0.287E-05    0.19     530.9  T
     SCC iter.                  ...        0 min,  0.018 sec
     gradient                   ...        0 min,  0.044 sec
 * total energy  :   -83.8912608 Eh     change       -0.6374186E-04 Eh
   gradient norm :     0.0034589 Eh/α   predicted    -0.4163393E-04 ( -34.68%)
   displ. norm   :     0.1299041 α      lambda       -0.5633360E-04
   maximum displ.:     0.1023318 α      in ANC's #1, #3, #9, ...

........................................................................
.............................. CYCLE   29 ..............................
........................................................................
   1    -84.6477802 -0.846478E+02  0.570E-03    0.19       0.0  T
   2    -84.6477755  0.463851E-05  0.856E-03    0.18       1.8  T
   3    -84.6477834 -0.782428E-05  0.249E-03    0.19       6.1  T
   4    -84.6477837 -0.381479E-06  0.758E-04    0.19      20.1  T
   5    -84.6477837  0.674547E-09  0.408E-04    0.19      37.4  T
   6    -84.6477837 -0.344544E-08  0.584E-05    0.19     261.2  T
   7    -84.6477837 -0.136538E-09  0.170E-05    0.19     897.5  T
     SCC iter.                  ...        0 min,  0.018 sec
     gradient                   ...        0 min,  0.044 sec
 * total energy  :   -83.8913080 Eh     change       -0.4721143E-04 Eh
   gradient norm :     0.0029471 Eh/α   predicted    -0.2865002E-04 ( -39.32%)
   displ. norm   :     0.1028350 α      lambda       -0.4715601E-04
   maximum displ.:     0.0840957 α      in ANC's #1, #3, #9, ...

........................................................................
.............................. CYCLE   30 ..............................
........................................................................
   1    -84.6481981 -0.846482E+02  0.402E-03    0.19       0.0  T
   2    -84.6481960  0.214515E-05  0.558E-03    0.18       2.7  T
   3    -84.6481993 -0.330997E-05  0.168E-03    0.19       9.1  T
   4    -84.6481995 -0.184488E-06  0.560E-04    0.19      27.2  T
   5    -84.6481995 -0.674649E-08  0.246E-04    0.19      62.0  T
   6    -84.6481995 -0.796078E-09  0.602E-05    0.19     253.4  T
   7    -84.6481995 -0.140460E-09  0.154E-05    0.19     988.0  T
     SCC iter.                  ...        0 min,  0.017 sec
     gradient                   ...        0 min,  0.045 sec
 * total energy  :   -83.8913484 Eh     change       -0.4041226E-04 Eh
   gradient norm :     0.0031698 Eh/α   predicted    -0.2382775E-04 ( -41.04%)
   displ. norm   :     0.0963631 α      lambda       -0.4507885E-04
   maximum displ.:     0.0820743 α      in ANC's #1, #3, #4, ...

........................................................................
.............................. CYCLE   31 ..............................
........................................................................
   1    -84.6481721 -0.846482E+02  0.395E-03    0.19       0.0  T
   2    -84.6481706  0.147863E-05  0.505E-03    0.18       3.0  T
   3    -84.6481730 -0.244954E-05  0.160E-03    0.19       9.5  T
   4    -84.6481732 -0.221067E-06  0.386E-04    0.19      39.5  T
   5    -84.6481732 -0.137798E-08  0.187E-04    0.19      81.6  T
   6    -84.6481732 -0.128566E-09  0.336E-05    0.19     454.0  T
     SCC iter.                  ...        0 min,  0.015 sec
     gradient                   ...        0 min,  0.051 sec
 * total energy  :   -83.8913878 Eh     change       -0.3938131E-04 Eh
   gradient norm :     0.0023619 Eh/α   predicted    -0.2274917E-04 ( -42.23%)
   displ. norm   :     0.0968069 α      lambda       -0.4394237E-04
   maximum displ.:     0.0829178 α      in ANC's #1, #3, #5, ...

........................................................................
.............................. CYCLE   32 ..............................
........................................................................
   1    -84.6482936 -0.846483E+02  0.339E-03    0.19       0.0  T
   2    -84.6482942 -0.528399E-06  0.232E-03    0.19       6.6  T
   3    -84.6482944 -0.200113E-06  0.106E-03    0.19      14.4  T
   4    -84.6482943  0.338216E-07  0.877E-04    0.19      17.4  T
   5    -84.6482944 -0.204959E-07  0.610E-04    0.19      25.0  T
   6    -84.6482944 -0.309177E-07  0.610E-05    0.19     249.8  T
   7    -84.6482944 -0.246018E-09  0.202E-05    0.19     754.0  T
     SCC iter.                  ...        0 min,  0.018 sec
     gradient                   ...        0 min,  0.044 sec
 * total energy  :   -83.8914267 Eh     change       -0.3884274E-04 Eh
   gradient norm :     0.0022466 Eh/α   predicted    -0.2217999E-04 ( -42.90%)
   displ. norm   :     0.0959773 α      lambda       -0.4181200E-04
   maximum displ.:     0.0840834 α      in ANC's #1, #3, #7, ...

........................................................................
.............................. CYCLE   33 ..............................
........................................................................
   1    -84.6481069 -0.846481E+02  0.310E-03    0.19       0.0  T
   2    -84.6481069 -0.511872E-07  0.297E-03    0.19       5.1  T
   3    -84.6481076 -0.670228E-06  0.143E-03    0.19      10.7  T
   4    -84.6481078 -0.151476E-06  0.640E-04    0.19      23.8  T
   5    -84.6481078 -0.171476E-07  0.307E-04    0.19      49.7  T
   6    -84.6481078 -0.129710E-08  0.381E-05    0.19     399.8  T
   7    -84.6481078 -0.386251E-10  0.118E-05    0.19    1297.0  T
     SCC iter.                  ...        0 min,  0.017 sec
     gradient                   ...        0 min,  0.044 sec
 * total energy  :   -83.8914643 Eh     change       -0.3763882E-04 Eh
   gradient norm :     0.0018609 Eh/α   predicted    -0.2110085E-04 ( -43.94%)
   displ. norm   :     0.1420931 α      lambda       -0.3897480E-04
   maximum displ.:     0.1237308 α      in ANC's #1, #3, #9, ...

........................................................................
.............................. CYCLE   34 ..............................
........................................................................
   1    -84.6479116 -0.846479E+02  0.592E-03    0.18       0.0  T
   2    -84.6479055  0.616146E-05  0.972E-03    0.19       1.6  T
   3    -84.6479156 -0.101604E-04  0.172E-03    0.18       8.9  T
   4    -84.6479157 -0.987633E-07  0.859E-04    0.19      17.8  T
   5    -84.6479157 -0.222036E-07  0.425E-04    0.19      35.9  T
   6    -84.6479157 -0.224999E-08  0.662E-05    0.19     230.4  T
   7    -84.6479157 -0.149015E-09  0.161E-05    0.18     949.6  T
     SCC iter.                  ...        0 min,  0.017 sec
     gradient                   ...        0 min,  0.044 sec
 * total energy  :   -83.8915150 Eh     change       -0.5074647E-04 Eh
   gradient norm :     0.0018541 Eh/α   predicted    -0.1966320E-04 ( -61.25%)
   displ. norm   :     0.1213912 α      lambda       -0.3057178E-04
   maximum displ.:     0.1054968 α      in ANC's #1, #3, #9, ...

........................................................................
.............................. CYCLE   35 ..............................
........................................................................
   1    -84.6477218 -0.846477E+02  0.519E-03    0.18       0.0  T
   2    -84.6477145  0.729236E-05  0.976E-03    0.19       1.6  T
   3    -84.6477247 -0.102449E-04  0.735E-04    0.18      20.7  T
   4    -84.6477247 -0.232949E-07  0.309E-04    0.18      49.4  T
   5    -84.6477247 -0.187043E-08  0.167E-04    0.18      91.4  T
   6    -84.6477247 -0.466329E-09  0.496E-05    0.18     307.3  T
     SCC iter.                  ...        0 min,  0.017 sec
     gradient                   ...        0 min,  0.084 sec
 * total energy  :   -83.8915569 Eh     change       -0.4189584E-04 Eh
   gradient norm :     0.0019226 Eh/α   predicted    -0.1538793E-04 ( -63.27%)
   displ. norm   :     0.1135771 α      lambda       -0.2845441E-04
   maximum displ.:     0.0977874 α      in ANC's #1, #3, #9, ...

........................................................................
.............................. CYCLE   36 ..............................
........................................................................
   1    -84.6477898 -0.846478E+02  0.474E-03    0.18       0.0  T
   2    -84.6477836  0.615485E-05  0.898E-03    0.19       1.7  T
   3    -84.6477921 -0.842092E-05  0.574E-04    0.18      26.6  T
   4    -84.6477921 -0.844372E-08  0.326E-04    0.18      46.7  T
   5    -84.6477921 -0.702840E-09  0.145E-04    0.18     105.1  T
   6    -84.6477921 -0.160810E-09  0.388E-05    0.18     392.5  T
     SCC iter.                  ...        0 min,  0.022 sec
     gradient                   ...        0 min,  0.084 sec
 * total energy  :   -83.8915959 Eh     change       -0.3897549E-04 Eh
   gradient norm :     0.0014464 Eh/α   predicted    -0.1431159E-04 ( -63.28%)
   displ. norm   :     0.1145038 α      lambda       -0.2724307E-04
   maximum displ.:     0.0980987 α      in ANC's #1, #3, #2, ...

........................................................................
.............................. CYCLE   37 ..............................
........................................................................
   1    -84.6477732 -0.846478E+02  0.322E-03    0.18       0.0  T
   2    -84.6477716  0.158846E-05  0.486E-03    0.19       3.1  T
   3    -84.6477738 -0.225831E-05  0.120E-03    0.18      12.7  T
   4    -84.6477739 -0.889030E-07  0.484E-04    0.18      31.5  T
   5    -84.6477739  0.101633E-08  0.210E-04    0.18      72.6  T
   6    -84.6477739 -0.216910E-08  0.479E-05    0.18     318.3  T
   7    -84.6477739 -0.159091E-09  0.135E-05    0.18    1125.9  T
     SCC iter.                  ...        0 min,  0.024 sec
     gradient                   ...        0 min,  0.080 sec
 * total energy  :   -83.8916326 Eh     change       -0.3673410E-04 Eh
   gradient norm :     0.0012364 Eh/α   predicted    -0.1370260E-04 ( -62.70%)
   displ. norm   :     0.1106305 α      lambda       -0.2488352E-04
   maximum displ.:     0.0954353 α      in ANC's #1, #3, #2, ...

........................................................................
.............................. CYCLE   38 ..............................
........................................................................
   1    -84.6479284 -0.846479E+02  0.194E-03    0.18       0.0  T
   2    -84.6479284 -0.474723E-07  0.169E-03    0.18       9.0  T
   3    -84.6479285 -0.105902E-06  0.105E-03    0.18      14.5  T
   4    -84.6479286 -0.709129E-07  0.455E-04    0.18      33.6  T
   5    -84.6479286 -0.294047E-08  0.263E-04    0.18      58.0  T
   6    -84.6479286 -0.368574E-08  0.293E-05    0.18     521.0  T
   7    -84.6479286 -0.404583E-10  0.107E-05    0.18    1427.0  T
     SCC iter.                  ...        0 min,  0.017 sec
     gradient                   ...        0 min,  0.045 sec
 * total energy  :   -83.8916670 Eh     change       -0.3434631E-04 Eh
   gradient norm :     0.0010452 Eh/α   predicted    -0.1251315E-04 ( -63.57%)
   displ. norm   :     0.1056690 α      lambda       -0.2284192E-04
   maximum displ.:     0.0910416 α      in ANC's #1, #2, #3, ...

........................................................................
.............................. CYCLE   39 ..............................
........................................................................
   1    -84.6481393 -0.846481E+02  0.153E-03    0.18       0.0  T
   2    -84.6481386  0.735622E-06  0.312E-03    0.18       4.9  T
   3    -84.6481396 -0.102641E-05  0.545E-04    0.18      28.0  T
   4    -84.6481396 -0.300778E-08  0.370E-04    0.18      41.2  T
   5    -84.6481396 -0.221191E-08  0.150E-04    0.18     101.4  T
   6    -84.6481396 -0.726260E-09  0.188E-05    0.18     812.6  T
     SCC iter.                  ...        0 min,  0.015 sec
     gradient                   ...        0 min,  0.045 sec
 * total energy  :   -83.8917000 Eh     change       -0.3300874E-04 Eh
   gradient norm :     0.0010430 Eh/α   predicted    -0.1147906E-04 ( -65.22%)
   displ. norm   :     0.1128055 α      lambda       -0.2476966E-04
   maximum displ.:     0.0950239 α      in ANC's #1, #2, #3, ...

........................................................................
.............................. CYCLE   40 ..............................
........................................................................
   1    -84.6482322 -0.846482E+02  0.285E-03    0.19       0.0  T
   2    -84.6482289  0.332363E-05  0.636E-03    0.18       2.4  T
   3    -84.6482332 -0.435383E-05  0.686E-04    0.18      22.2  T
   4    -84.6482332 -0.127754E-07  0.435E-04    0.18      35.1  T
   5    -84.6482333 -0.382111E-08  0.133E-04    0.18     114.5  T
   6    -84.6482333 -0.585700E-09  0.317E-05    0.18     481.1  T
     SCC iter.                  ...        0 min,  0.015 sec
     gradient                   ...        0 min,  0.045 sec
 * total energy  :   -83.8917360 Eh     change       -0.3599194E-04 Eh
   gradient norm :     0.0009103 Eh/α   predicted    -0.1245562E-04 ( -65.39%)
   displ. norm   :     0.1339886 α      lambda       -0.2919610E-04
   maximum displ.:     0.1099441 α      in ANC's #1, #2, #8, ...

........................................................................
.............................. CYCLE   41 ..............................
........................................................................
   1    -84.6484591 -0.846485E+02  0.340E-03    0.19       0.0  T
   2    -84.6484549  0.425290E-05  0.718E-03    0.18       2.1  T
   3    -84.6484605 -0.560665E-05  0.473E-04    0.18      32.2  T
   4    -84.6484605 -0.861243E-08  0.231E-04    0.18      66.0  T
   5    -84.6484605 -0.157470E-09  0.123E-04    0.18     124.0  T
   6    -84.6484605 -0.321563E-09  0.312E-05    0.18     488.9  T
     SCC iter.                  ...        0 min,  0.017 sec
     gradient                   ...        0 min,  0.088 sec
 * total energy  :   -83.8917783 Eh     change       -0.4230096E-04 Eh
   gradient norm :     0.0009240 Eh/α   predicted    -0.1471699E-04 ( -65.21%)
   displ. norm   :     0.1644574 α      lambda       -0.3457157E-04
   maximum displ.:     0.1317941 α      in ANC's #1, #2, #8, ...

........................................................................
.............................. CYCLE   42 ..............................
........................................................................
   1    -84.6484504 -0.846485E+02  0.405E-03    0.19       0.0  T
   2    -84.6484450  0.539096E-05  0.822E-03    0.18       1.9  T
   3    -84.6484523 -0.728671E-05  0.694E-04    0.19      22.0  T
   4    -84.6484523 -0.166950E-07  0.384E-04    0.19      39.7  T
   5    -84.6484523 -0.881400E-09  0.176E-04    0.19      86.7  T
   6    -84.6484523 -0.141421E-08  0.338E-05    0.19     451.8  T
     SCC iter.                  ...        0 min,  0.021 sec
     gradient                   ...        0 min,  0.085 sec
 * total energy  :   -83.8918284 Eh     change       -0.5014506E-04 Eh
   gradient norm :     0.0007329 Eh/α   predicted    -0.1749428E-04 ( -65.11%)
   displ. norm   :     0.2019864 α      lambda       -0.4095819E-04
   maximum displ.:     0.1579059 α      in ANC's #1, #2, #8, ...
 * RMSD in coord.:     0.4118004 α      energy gain  -0.1829780E-02 Eh

generating ANC from model Hessian ...
Using Lindh-Hessian (1995)
 Shifting diagonal of input Hessian by   9.794492085912520E-003
 Lowest  eigenvalues of input Hessian
    0.000000    0.000000    0.000000    0.000000    0.000000    0.000000
    0.010000    0.010057    0.010485    0.011124    0.011987    0.012018
    0.012935    0.013060    0.014000    0.014343    0.017835    0.018275
 Highest eigenvalues
    2.018491    2.098029    2.199853    2.277211    2.363336    2.437204
 

........................................................................
.............................. CYCLE   43 ..............................
........................................................................
   1    -84.6486023 -0.846486E+02  0.378E-03    0.19       0.0  T
   2    -84.6485986  0.378082E-05  0.698E-03    0.18       2.2  T
   3    -84.6486038 -0.528659E-05  0.697E-04    0.19      21.9  T
   4    -84.6486039 -0.276787E-07  0.245E-04    0.19      62.2  T
   5    -84.6486039 -0.651596E-09  0.119E-04    0.19     127.7  T
   6    -84.6486039 -0.509885E-10  0.393E-05    0.19     387.8  T
     SCC iter.                  ...        0 min,  0.021 sec
     gradient                   ...        0 min,  0.084 sec
 * total energy  :   -83.8918887 Eh     change       -0.6028360E-04 Eh
   gradient norm :     0.0009097 Eh/α   predicted     0.0000000E+00 (-100.00%)
   displ. norm   :     0.0538923 α      lambda       -0.1423540E-04
   maximum displ.:     0.0502407 α      in ANC's #1, #3, #6, ...

........................................................................
.............................. CYCLE   44 ..............................
........................................................................
   1    -84.6484472 -0.846484E+02  0.160E-03    0.19       0.0  T
   2    -84.6484468  0.442877E-06  0.247E-03    0.19       6.2  T
   3    -84.6484474 -0.631347E-06  0.419E-04    0.19      36.4  T
   4    -84.6484474 -0.107971E-07  0.150E-04    0.19     101.9  T
   5    -84.6484474 -0.140702E-09  0.480E-05    0.19     317.6  T
     SCC iter.                  ...        0 min,  0.017 sec
     gradient                   ...        0 min,  0.071 sec
 * total energy  :   -83.8919093 Eh     change       -0.2058064E-04 Eh
   gradient norm :     0.0005167 Eh/α   predicted    -0.7205416E-05 ( -64.99%)
   displ. norm   :     0.0793823 α      lambda       -0.1902286E-04
   maximum displ.:     0.0675986 α      in ANC's #1, #3, #6, ...

........................................................................
.............................. CYCLE   45 ..............................
........................................................................
   1    -84.6483430 -0.846483E+02  0.222E-03    0.18       0.0  T
   2    -84.6483417  0.136727E-05  0.433E-03    0.19       3.5  T
   3    -84.6483436 -0.189664E-05  0.317E-04    0.19      48.2  T
   4    -84.6483436 -0.128199E-08  0.202E-04    0.19      75.3  T
   5    -84.6483436 -0.502098E-09  0.764E-05    0.19     199.7  T
   6    -84.6483436 -0.321108E-09  0.165E-05    0.19     923.9  T
     SCC iter.                  ...        0 min,  0.015 sec
     gradient                   ...        0 min,  0.044 sec
 * total energy  :   -83.8919363 Eh     change       -0.2702413E-04 Eh
   gradient norm :     0.0004822 Eh/α   predicted    -0.9682671E-05 ( -64.17%)
   displ. norm   :     0.1055075 α      lambda       -0.2274412E-04
   maximum displ.:     0.0865377 α      in ANC's #1, #3, #2, ...

........................................................................
.............................. CYCLE   46 ..............................
........................................................................
   1    -84.6482667 -0.846483E+02  0.217E-03    0.18       0.0  T
   2    -84.6482652  0.151441E-05  0.454E-03    0.19       3.4  T
   3    -84.6482672 -0.205069E-05  0.421E-04    0.19      36.2  T
   4    -84.6482672 -0.639460E-08  0.216E-04    0.19      70.6  T
   5    -84.6482672 -0.150548E-08  0.547E-05    0.19     278.9  T
   6    -84.6482672 -0.130285E-09  0.104E-05    0.19    1461.1  T
     SCC iter.                  ...        0 min,  0.018 sec
     gradient                   ...        0 min,  0.050 sec
 * total energy  :   -83.8919679 Eh     change       -0.3158742E-04 Eh
   gradient norm :     0.0006176 Eh/α   predicted    -0.1143558E-04 ( -63.80%)
   displ. norm   :     0.1199479 α      lambda       -0.2334588E-04
   maximum displ.:     0.0963684 α      in ANC's #1, #3, #2, ...

........................................................................
.............................. CYCLE   47 ..............................
........................................................................
   1    -84.6481533 -0.846482E+02  0.127E-03    0.18       0.0  T
   2    -84.6481529  0.379378E-06  0.231E-03    0.19       6.6  T
   3    -84.6481535 -0.536011E-06  0.262E-04    0.19      58.2  T
   4    -84.6481535 -0.548255E-09  0.161E-04    0.19      94.8  T
   5    -84.6481535 -0.488299E-09  0.715E-05    0.19     213.3  T
     SCC iter.                  ...        0 min,  0.016 sec
     gradient                   ...        0 min,  0.084 sec
 * total energy  :   -83.8920007 Eh     change       -0.3277169E-04 Eh
   gradient norm :     0.0007156 Eh/α   predicted    -0.1174782E-04 ( -64.15%)
   displ. norm   :     0.1272920 α      lambda       -0.2362984E-04
   maximum displ.:     0.1009474 α      in ANC's #1, #3, #2, ...

........................................................................
.............................. CYCLE   48 ..............................
........................................................................
   1    -84.6481184 -0.846481E+02  0.889E-04    0.19       0.0  T
   2    -84.6481184 -0.381561E-07  0.422E-04    0.19      36.2  T
   3    -84.6481184 -0.486949E-08  0.194E-04    0.19      78.5  T
   4    -84.6481184  0.219555E-08  0.243E-04    0.19      62.8  T
   5    -84.6481184 -0.472204E-08  0.544E-05    0.19     280.2  T
     SCC iter.                  ...        0 min,  0.020 sec
     gradient                   ...        0 min,  0.075 sec
 * total energy  :   -83.8920345 Eh     change       -0.3381763E-04 Eh
   gradient norm :     0.0007644 Eh/α   predicted    -0.1190365E-04 ( -64.80%)
   displ. norm   :     0.1369637 α      lambda       -0.2529623E-04
   maximum displ.:     0.1067436 α      in ANC's #1, #3, #2, ...

........................................................................
.............................. CYCLE   49 ..............................
........................................................................
   1    -84.6481631 -0.846482E+02  0.158E-03    0.19       0.0  T
   2    -84.6481628  0.381869E-06  0.234E-03    0.18       6.5  T
   3    -84.6481633 -0.573091E-06  0.574E-04    0.19      26.6  T
   4    -84.6481634 -0.249985E-07  0.144E-04    0.19     105.7  T
   5    -84.6481634 -0.410594E-09  0.609E-05    0.19     250.2  T
     SCC iter.                  ...        0 min,  0.018 sec
     gradient                   ...        0 min,  0.058 sec
 * total energy  :   -83.8920711 Eh     change       -0.3655488E-04 Eh
   gradient norm :     0.0006754 Eh/α   predicted    -0.1275379E-04 ( -65.11%)
   displ. norm   :     0.1588402 α      lambda       -0.2921876E-04
   maximum displ.:     0.1215605 α      in ANC's #1, #3, #2, ...

........................................................................
.............................. CYCLE   50 ..............................
........................................................................
   1    -84.6482151 -0.846482E+02  0.275E-03    0.19       0.0  T
   2    -84.6482132  0.191129E-05  0.503E-03    0.18       3.0  T
   3    -84.6482159 -0.272320E-05  0.526E-04    0.19      29.0  T
   4    -84.6482159 -0.147255E-07  0.203E-04    0.19      75.0  T
   5    -84.6482159 -0.117510E-09  0.108E-04    0.19     140.8  T
   6    -84.6482159 -0.313904E-09  0.278E-05    0.19     548.9  T
     SCC iter.                  ...        0 min,  0.019 sec
     gradient                   ...        0 min,  0.045 sec
 * total energy  :   -83.8921133 Eh     change       -0.4226881E-04 Eh
   gradient norm :     0.0006051 Eh/α   predicted    -0.1477394E-04 ( -65.05%)
   displ. norm   :     0.1900483 α      lambda       -0.3408347E-04
   maximum displ.:     0.1440139 α      in ANC's #1, #3, #2, ...

........................................................................
.............................. CYCLE   51 ..............................
........................................................................
   1    -84.6483144 -0.846483E+02  0.391E-03    0.19       0.0  T
   2    -84.6483105  0.384997E-05  0.713E-03    0.18       2.1  T
   3    -84.6483161 -0.550608E-05  0.760E-04    0.19      20.1  T
   4    -84.6483161 -0.299173E-07  0.277E-04    0.19      55.1  T
   5    -84.6483161 -0.512301E-10  0.152E-04    0.19     100.1  T
   6    -84.6483161 -0.480384E-09  0.351E-05    0.19     433.9  T
     SCC iter.                  ...        0 min,  0.015 sec
     gradient                   ...        0 min,  0.059 sec
 * total energy  :   -83.8921623 Eh     change       -0.4895869E-04 Eh
   gradient norm :     0.0005039 Eh/α   predicted    -0.1731580E-04 ( -64.63%)
   displ. norm   :     0.2182095 α      lambda       -0.3724381E-04
   maximum displ.:     0.1649074 α      in ANC's #1, #2, #3, ...

........................................................................
.............................. CYCLE   52 ..............................
........................................................................
   1    -84.6484527 -0.846485E+02  0.445E-03    0.19       0.0  T
   2    -84.6484482  0.444164E-05  0.781E-03    0.18       2.0  T
   3    -84.6484548 -0.661819E-05  0.936E-04    0.19      16.3  T
   4    -84.6484549 -0.424415E-07  0.384E-04    0.19      39.7  T
   5    -84.6484549 -0.431015E-09  0.198E-04    0.19      76.9  T
   6    -84.6484549 -0.812435E-09  0.423E-05    0.19     360.7  T
     SCC iter.                  ...        0 min,  0.015 sec
     gradient                   ...        0 min,  0.075 sec
 * total energy  :   -83.8922156 Eh     change       -0.5331603E-04 Eh
   gradient norm :     0.0004570 Eh/α   predicted    -0.1901994E-04 ( -64.33%)
   displ. norm   :     0.2346420 α      lambda       -0.3788558E-04
   maximum displ.:     0.1776423 α      in ANC's #1, #2, #3, ...

........................................................................
.............................. CYCLE   53 ..............................
........................................................................
   1    -84.6485570 -0.846486E+02  0.465E-03    0.20       0.0  T
   2    -84.6485526  0.441367E-05  0.799E-03    0.18       1.9  T
   3    -84.6485594 -0.681730E-05  0.941E-04    0.19      16.2  T
   4    -84.6485594 -0.378457E-07  0.439E-04    0.19      34.7  T
   5    -84.6485594 -0.607983E-09  0.219E-04    0.19      69.7  T
   6    -84.6485594 -0.132064E-08  0.433E-05    0.19     351.9  T
   7    -84.6485594 -0.102702E-09  0.158E-05    0.19     965.4  T
     SCC iter.                  ...        0 min,  0.024 sec
     gradient                   ...        0 min,  0.070 sec
 * total energy  :   -83.8922697 Eh     change       -0.5412527E-04 Eh
   gradient norm :     0.0004908 Eh/α   predicted    -0.1940908E-04 ( -64.14%)
   displ. norm   :     0.2290169 α      lambda       -0.3530235E-04
   maximum displ.:     0.1744636 α      in ANC's #1, #2, #3, ...

........................................................................
.............................. CYCLE   54 ..............................
........................................................................
   1    -84.6487382 -0.846487E+02  0.371E-03    0.20       0.0  T
   2    -84.6487360  0.218871E-05  0.584E-03    0.19       2.6  T
   3    -84.6487396 -0.363824E-05  0.854E-04    0.19      17.9  T
   4    -84.6487397 -0.314434E-07  0.384E-04    0.19      39.8  T
   5    -84.6487397 -0.574630E-09  0.176E-04    0.19      86.7  T
   6    -84.6487397 -0.400220E-09  0.463E-05    0.19     329.1  T
     SCC iter.                  ...        0 min,  0.022 sec
     gradient                   ...        0 min,  0.050 sec
 * total energy  :   -83.8923205 Eh     change       -0.5075234E-04 Eh
   gradient norm :     0.0005567 Eh/α   predicted    -0.1806603E-04 ( -64.40%)
   displ. norm   :     0.2159825 α      lambda       -0.3255816E-04
   maximum displ.:     0.1651334 α      in ANC's #1, #2, #3, ...

........................................................................
.............................. CYCLE   55 ..............................
........................................................................
   1    -84.6488709 -0.846489E+02  0.298E-03    0.20       0.0  T
   2    -84.6488696  0.130374E-05  0.464E-03    0.19       3.3  T
   3    -84.6488718 -0.225079E-05  0.603E-04    0.19      25.3  T
   4    -84.6488718 -0.138977E-07  0.306E-04    0.19      49.8  T
   5    -84.6488718 -0.734559E-09  0.137E-04    0.19     111.6  T
   6    -84.6488718 -0.250196E-09  0.365E-05    0.19     418.1  T
     SCC iter.                  ...        0 min,  0.017 sec
     gradient                   ...        0 min,  0.068 sec
 * total energy  :   -83.8923682 Eh     change       -0.4767392E-04 Eh
   gradient norm :     0.0006080 Eh/α   predicted    -0.1662058E-04 ( -65.14%)
   displ. norm   :     0.2072912 α      lambda       -0.3160619E-04
   maximum displ.:     0.1587327 α      in ANC's #1, #2, #3, ...

........................................................................
.............................. CYCLE   56 ..............................
........................................................................
   1    -84.6489936 -0.846490E+02  0.208E-03    0.20       0.0  T
   2    -84.6489932  0.351069E-06  0.269E-03    0.19       5.7  T
   3    -84.6489940 -0.732945E-06  0.594E-04    0.19      25.7  T
   4    -84.6489940 -0.203771E-07  0.228E-04    0.19      66.8  T
   5    -84.6489940 -0.350298E-09  0.102E-04    0.19     150.1  T
   6    -84.6489940 -0.544418E-10  0.261E-05    0.19     584.5  T
     SCC iter.                  ...        0 min,  0.015 sec
     gradient                   ...        0 min,  0.072 sec
 * total energy  :   -83.8924144 Eh     change       -0.4625401E-04 Eh
   gradient norm :     0.0006338 Eh/α   predicted    -0.1610846E-04 ( -65.17%)
   displ. norm   :     0.2038260 α      lambda       -0.3130228E-04
   maximum displ.:     0.1561969 α      in ANC's #1, #2, #3, ...

........................................................................
.............................. CYCLE   57 ..............................
........................................................................
   1    -84.6490735 -0.846491E+02  0.171E-03    0.20       0.0  T
   2    -84.6490734  0.641775E-07  0.171E-03    0.19       8.9  T
   3    -84.6490737 -0.248157E-06  0.632E-04    0.20      24.1  T
   4    -84.6490737 -0.326934E-07  0.171E-04    0.19      89.4  T
   5    -84.6490737 -0.495248E-09  0.801E-05    0.19     190.3  T
     SCC iter.                  ...        0 min,  0.013 sec
     gradient                   ...        0 min,  0.047 sec
 * total energy  :   -83.8924599 Eh     change       -0.4549462E-04 Eh
   gradient norm :     0.0006042 Eh/α   predicted    -0.1594323E-04 ( -64.96%)
   displ. norm   :     0.2019827 α      lambda       -0.3070238E-04
   maximum displ.:     0.1551481 α      in ANC's #1, #2, #3, ...

........................................................................
.............................. CYCLE   58 ..............................
........................................................................
   1    -84.6491376 -0.846491E+02  0.155E-03    0.20       0.0  T
   2    -84.6491377 -0.687855E-07  0.958E-04    0.19      15.9  T
   3    -84.6491377 -0.376639E-07  0.632E-04    0.20      24.1  T
   4    -84.6491377 -0.324371E-07  0.167E-04    0.19      91.2  T
   5    -84.6491377 -0.133677E-08  0.892E-05    0.19     171.1  T
     SCC iter.                  ...        0 min,  0.018 sec
     gradient                   ...        0 min,  0.053 sec
 * total energy  :   -83.8925042 Eh     change       -0.4427057E-04 Eh
   gradient norm :     0.0005097 Eh/α   predicted    -0.1563176E-04 ( -64.69%)
   displ. norm   :     0.1978537 α      lambda       -0.2925282E-04
   maximum displ.:     0.1526311 α      in ANC's #1, #2, #4, ...

........................................................................
.............................. CYCLE   59 ..............................
........................................................................
   1    -84.6491761 -0.846492E+02  0.148E-03    0.19       0.0  T
   2    -84.6491762 -0.102757E-06  0.671E-04    0.19      22.7  T
   3    -84.6491762 -0.198390E-07  0.311E-04    0.20      49.1  T
   4    -84.6491762 -0.254228E-08  0.176E-04    0.19      86.6  T
   5    -84.6491762 -0.166119E-08  0.113E-04    0.20     135.4  T
[...]
H30-C9-C8=110.09               H30-C9-H29=108.89              H31-C9-C8=110.12               H31-C9-H29=108.81              
H31-C9-H30=109.07              H32-C10-C8=110.20              H33-C10-C8=109.50              H33-C10-H32=108.79             
H34-C10-C8=109.84              H34-C10-H32=109.35             H34-C10-H33=109.13             
 
 selected dihedral angles (degree)
 ---------------------------------
C3-O2-C1-H26= 63.62           C3-O2-C1-H27=183.45           C3-O2-C1-H28=303.13           O4-C3-O2-C1=358.95            
C5-C3-O2-C1=178.19            N6-C5-C3-O2=  2.42            N6-C5-C3-O4=181.66            C24-C5-C3-O2=182.96           
C24-C5-C3-O4=  2.19           C7-N6-C5-C3=180.76            C7-N6-C5-C24=  0.21           C8-C7-N6-C5=177.42            
N21-C7-N6-C5=  2.56           C9-C8-C7-N6=263.95            C9-C8-C7-N21= 79.10           C10-C8-C7-N6= 24.53           
C10-C8-C7-N21=199.68          N11-C8-C7-N6=147.51           N11-C8-C7-N21=322.66          H29-C9-C8-C7=179.06           
H29-C9-C8-C10= 58.47          H29-C9-C8-N11=295.36          H30-C9-C8-C7= 59.17           H30-C9-C8-C10=298.57          
H30-C9-C8-N11=175.47          H31-C9-C8-C7=298.87           H31-C9-C8-C10=178.28          H31-C9-C8-N11= 55.17          
H32-C10-C8-C7= 58.12          H32-C10-C8-C9=177.32          H32-C10-C8-N11=297.85         H33-C10-C8-C7=298.48          
H33-C10-C8-C9= 57.69          H33-C10-C8-N11=178.21         H34-C10-C8-C7=178.65          H34-C10-C8-C9=297.85          
H34-C10-C8-N11= 58.38         
           -------------------------------------------------
          |                Final Singlepoint                |
           -------------------------------------------------

          ...................................................
          :                      SETUP                      :
          :.................................................:
          :  # basis functions                 136          :
          :  # atomic orbitals                 136          :
          :  # shells                           86          :
          :  # electrons                       136          :
          :  # halogen bonds                     0          :
          :  max. iterations                   250          :
          :  Hamiltonian                  GFN1-xTB          :
          :  restarted?                      false          :
          :  GBSA solvation                   true          :
          :  PC potential                    false          :
          :  electronic temp.          300.0000000     K    :
          :  accuracy                    1.0000000          :
          :  -> integral cutoff          0.2500000E+02      :
          :  -> integral neglect         0.1000000E-07      :
          :  -> SCF convergence          0.1000000E-05 Eh   :
          :  -> wf. convergence          0.2000000E-04 e    :
          :  Broyden damping             0.4000000          :
          ...................................................

 iter      E             dE          RMSdq      gap      omega  full diag
   1    -84.6492221 -0.846492E+02  0.228E-05    0.20       0.0  T
   2    -84.6492221 -0.513012E-11  0.147E-05    0.20    1036.4  T
   3    -84.6492221 -0.720490E-11  0.105E-05    0.20    1457.6  T

   *** convergence criteria satisfied after 3 iterations ***

         #    Occupation            Energy/Eh            Energy/eV
      -------------------------------------------------------------
         1        2.0000           -0.8359603             -22.7476
       ...           ...                  ...                  ...
        62        2.0000           -0.4329913             -11.7823
        63        2.0000           -0.4213338             -11.4651
        64        2.0000           -0.4168141             -11.3421
        65        2.0000           -0.4118786             -11.2078
        66        2.0000           -0.3984589             -10.8426
        67        2.0000           -0.3743420             -10.1864
        68        1.9574           -0.3215030              -8.7485 (HOMO)
        69        0.0426           -0.3142316              -8.5507 (LUMO)
        70                         -0.2646702              -7.2020
        71                         -0.2441452              -6.6435
        72                         -0.2304626              -6.2712
        73                         -0.1455513              -3.9607
       ...                                ...                  ...
       136                          0.7217267              19.6392
      -------------------------------------------------------------
                  HL-Gap            0.0072713 Eh            0.1979 eV
             Fermi-level           -0.3178673 Eh           -8.6496 eV

 SCC (total)                   0 d,  0 h,  0 min,  0.137 sec
 SCC setup                      ...        0 min,  0.002 sec (  1.276%)
 Dispersion                     ...        0 min,  0.000 sec (  0.243%)
 classical contributions        ...        0 min,  0.000 sec (  0.079%)
 integral evaluation            ...        0 min,  0.039 sec ( 28.419%)
 iterations                     ...        0 min,  0.011 sec (  7.982%)
 molecular gradient             ...        0 min,  0.084 sec ( 61.443%)
 printout                       ...        0 min,  0.001 sec (  0.527%)

         :::::::::::::::::::::::::::::::::::::::::::::::::::::
         ::                     SUMMARY                     ::
         :::::::::::::::::::::::::::::::::::::::::::::::::::::
         :: total energy             -83.892753748487 Eh    ::
         :: total w/o Gsasa/hb       -83.869479452819 Eh    ::
         :: gradient norm              0.000218379259 Eh/a0 ::
         :: HOMO-LUMO gap              0.197863349486 eV    ::
         ::.................................................::
         :: SCC energy               -84.649222099514 Eh    ::
         :: -> electrostatic           0.461753211868 Eh    ::
         :: -> Gsolv                  -0.119158606376 Eh    ::
         ::    -> Gelec               -0.095884310709 Eh    ::
         ::    -> Gsasa               -0.024607178091 Eh    ::
         ::    -> Ghb                 -0.006291396581 Eh    ::
         ::    -> Gshift               0.007624279005 Eh    ::
         :: repulsion energy           0.783032054243 Eh    ::
         :: dispersion energy         -0.026563703216 Eh    ::
         :: halogen bond corr.         0.000000000000 Eh    ::
         :: add. restraining           0.000000000000 Eh    ::
         :: total charge              -1.000000000000 e     ::
         :::::::::::::::::::::::::::::::::::::::::::::::::::::

           -------------------------------------------------
          |                Property Printout                |
           -------------------------------------------------

    * Orbital Energies and Occupations

         #    Occupation            Energy/Eh            Energy/eV
      -------------------------------------------------------------
         1        2.0000           -0.8359603             -22.7476
       ...           ...                  ...                  ...
        56        2.0000           -0.4770774             -12.9819
        57        2.0000           -0.4719613             -12.8427
        58        2.0000           -0.4708497             -12.8125
        59        2.0000           -0.4500291             -12.2459
        60        2.0000           -0.4449953             -12.1089
        61        2.0000           -0.4398504             -11.9689
        62        2.0000           -0.4329913             -11.7823
        63        2.0000           -0.4213338             -11.4651
        64        2.0000           -0.4168141             -11.3421
        65        2.0000           -0.4118786             -11.2078
        66        2.0000           -0.3984589             -10.8426
        67        2.0000           -0.3743420             -10.1864
        68        1.9574           -0.3215030              -8.7485 (HOMO)
        69        0.0426           -0.3142316              -8.5507 (LUMO)
        70                         -0.2646702              -7.2020
        71                         -0.2441452              -6.6435
        72                         -0.2304626              -6.2712
        73                         -0.1455513              -3.9607
        74                         -0.1354157              -3.6848
        75                         -0.1306462              -3.5551
        76                         -0.1193452              -3.2475
        77                         -0.1089529              -2.9648
        78                         -0.1045493              -2.8449
        79                         -0.0986477              -2.6843
       ...                                ...                  ...
       136                          0.7217267              19.6392
      -------------------------------------------------------------
                  HL-Gap            0.0072713 Eh            0.1979 eV
             Fermi-level           -0.3178673 Eh           -8.6496 eV

  Mulliken/CM5 charges         n(s)   n(p)   n(d)
     1C     0.16405  0.04347   0.979  2.857  0.000
     2O    -0.40550 -0.48808   1.683  4.722  0.000
     3C     0.56644  0.63044   0.973  2.461  0.000
     4O    -0.58251 -0.64681   1.728  4.854  0.000
     5C     0.06100  0.13725   1.041  2.898  0.000
     6N    -0.38325 -0.56659   1.529  3.855  0.000
     7C     0.30802  0.46118   1.019  2.673  0.000
     8C     0.15772  0.19906   1.058  2.784  0.000
     9C    -0.10767 -0.24803   1.021  3.087  0.000
    10C    -0.09795 -0.23685   1.015  3.083  0.000
    11N    -0.41215 -0.75819   1.458  3.954  0.000
    12C     0.39967  0.49623   0.988  2.612  0.000
    13O    -0.67559 -0.71434   1.746  4.930  0.000
    14C     0.22611  0.34098   0.983  2.790  0.000
    15N    -0.23597 -0.33335   1.558  3.678  0.000
    16N    -0.37738 -0.46646   1.597  3.781  0.000
    17C     0.35041  0.41406   1.030  2.619  0.000
    18C    -0.11019 -0.24862   1.017  3.093  0.000
    19C    -0.11047 -0.24898   1.017  3.094  0.000
    20O    -0.49037 -0.54809   1.716  4.774  0.000
    21N    -0.27716 -0.62204   1.434  3.843  0.000
    22C     0.45064  0.55371   0.979  2.570  0.000
    23O    -0.59585 -0.63375   1.729  4.867  0.000
    24C     0.22239  0.25645   1.029  2.748  0.000
    25O    -0.51745 -0.70598   1.697  4.821  0.000
    26H     0.05151  0.11300   0.948  0.000  0.000
    27H     0.05172  0.11208   0.948  0.000  0.000
    28H     0.05223  0.11445   0.948  0.000  0.000
    29H     0.05094  0.10627   0.949  0.000  0.000
    30H     0.03952  0.09446   0.960  0.000  0.000
    31H     0.04155  0.09946   0.958  0.000  0.000
    32H     0.04804  0.10946   0.952  0.000  0.000
    33H     0.03094  0.08837   0.969  0.000  0.000
    34H     0.03625  0.09174   0.964  0.000  0.000
    35H     0.23472  0.43755   0.765  0.000  0.000
    36H     0.02860  0.08354   0.971  0.000  0.000
    37H     0.03133  0.08918   0.969  0.000  0.000
    38H     0.02365  0.07903   0.976  0.000  0.000
    39H     0.02884  0.08370   0.971  0.000  0.000
    40H     0.03233  0.09013   0.968  0.000  0.000
    41H     0.02405  0.07953   0.976  0.000  0.000
    42H     0.26709  0.47377   0.733  0.000  0.000
    43H     0.39972  0.58762   0.600  0.000  0.000

Wiberg/Mayer (AO) data.
largest (>0.10) Wiberg bond orders for each atom

 ---------------------------------------------------------------------------
     #   Z sym  total        # sym  WBO       # sym  WBO       # sym  WBO
 ---------------------------------------------------------------------------
     1   6 C    3.873 --    27 H    0.986    28 H    0.979    26 H    0.979
                             2 O    0.899
     2   8 O    2.205 --     3 C    1.120     1 C    0.899     4 O    0.124
     3   6 C    3.832 --     4 O    1.592     2 O    1.120     5 C    1.033
     4   8 O    1.924 --     3 C    1.592     2 O    0.124
     5   6 C    3.955 --    24 C    1.472     6 N    1.181     3 C    1.033
     6   7 N    3.014 --     7 C    1.567     5 C    1.181
     7   6 C    3.919 --     6 N    1.567    21 N    1.170     8 C    0.979
     8   6 C    3.960 --    10 C    0.987     7 C    0.979     9 C    0.978
                            11 N    0.962
     9   6 C    3.993 --    30 H    0.986    31 H    0.985    29 H    0.983
                             8 C    0.978
    10   6 C    3.993 --     8 C    0.987    34 H    0.987    33 H    0.985
                            32 H    0.981
    11   7 N    3.166 --    12 C    1.039     8 C    0.962    35 H    0.913
    12   6 C    3.918 --    13 O    1.450    14 C    1.246    11 N    1.039
    13   8 O    1.781 --    12 C    1.450
    14   6 C    3.826 --    15 N    1.374    12 C    1.246    20 O    0.931
                            16 N    0.140
    15   7 N    3.025 --    16 N    1.495    14 C    1.374
    16   7 N    2.873 --    15 N    1.495    17 C    0.980    14 C    0.140
    17   6 C    3.897 --    16 N    0.980    19 C    0.979    18 C    0.978
                            20 O    0.920
    18   6 C    3.991 --    38 H    0.988    36 H    0.986    37 H    0.985
                            17 C    0.978
    19   6 C    3.991 --    41 H    0.988    39 H    0.986    40 H    0.985
                            17 C    0.979
    20   8 O    2.052 --    14 C    0.931    17 C    0.920
    21   7 N    3.468 --     7 C    1.170    22 C    1.135    42 H    0.883
                            23 O    0.134
    22   6 C    3.905 --    23 O    1.572    21 N    1.135    24 C    1.069
    23   8 O    1.867 --    22 C    1.572    21 N    0.134
    24   6 C    3.902 --     5 C    1.472    25 O    1.106    22 C    1.069
    25   8 O    2.071 --    24 C    1.106    43 H    0.784
    26   1 H    1.007 --     1 C    0.979
    27   1 H    1.011 --     1 C    0.986
    28   1 H    1.008 --     1 C    0.979
    29   1 H    1.000 --     9 C    0.983
    30   1 H    1.004 --     9 C    0.986
    31   1 H    1.004 --     9 C    0.985
    32   1 H    1.016 --    10 C    0.981
    33   1 H    1.012 --    10 C    0.985
    34   1 H    1.003 --    10 C    0.987
    35   1 H    0.958 --    11 N    0.913
    36   1 H    1.008 --    18 C    0.986
    37   1 H    1.013 --    18 C    0.985
    38   1 H    1.009 --    18 C    0.988
    39   1 H    1.007 --    19 C    0.986
    40   1 H    1.013 --    19 C    0.985
    41   1 H    1.009 --    19 C    0.988
    42   1 H    0.948 --    21 N    0.883
    43   1 H    0.860 --    25 O    0.784
 ---------------------------------------------------------------------------

Topologies differ in total number of bonds
Writing topology from bond orders to xtbtopo.mol

 dipole moment from electron density (au)
     X       Y       Z   
  -1.9854   1.8881   5.8950  total (Debye):   16.523

           -------------------------------------------------
          |                Geometry Summary                 |
           -------------------------------------------------

      molecular mass/u    :      352.3231817
   center of mass at/Å    :       -0.4152028      -0.0251841      -0.4523461
  moments of inertia/u·Å² :        0.1087971E+04   0.4834830E+04   0.5189658E+04
rotational constants/cm⁻¹ :        0.1549456E-01   0.3486706E-02   0.3248313E-02

 * 39 selected distances

     #   Z          #   Z                                           value/Å
     1   6 C        2   8 O                                       1.4286217
     2   8 O        3   6 C                                       1.3306583
     3   6 C        4   8 O                                       1.2222214
     5   6 C        6   7 N                                       1.3720064
     6   7 N        7   6 C                                       1.2927567
     8   6 C        9   6 C                                       1.5352356
     8   6 C       10   6 C                                       1.5344351
     8   6 C       11   7 N                                       1.4549483
    11   7 N       12   6 C                                       1.4184875
    12   6 C       14   6 C                                       1.4053266
    14   6 C       15   7 N                                       1.3291349
    15   7 N       16   7 N                                       1.2936327
    17   6 C       18   6 C                                       1.5370352 (max)
    17   6 C       19   6 C                                       1.5356976
    14   6 C       20   8 O                                       1.4063095
    17   6 C       20   8 O                                       1.4220278
     7   6 C       21   7 N                                       1.3626640
    21   7 N       22   6 C                                       1.3757579
    22   6 C       23   8 O                                       1.2237724
     5   6 C       24   6 C                                       1.3771616
    24   6 C       25   8 O                                       1.3407851
     1   6 C       26   1 H                                       1.0925662
     1   6 C       27   1 H                                       1.0879132
     1   6 C       28   1 H                                       1.0923697
     9   6 C       29   1 H                                       1.0883295
     9   6 C       30   1 H                                       1.0888651
     9   6 C       31   1 H                                       1.0887821
    10   6 C       32   1 H                                       1.0896935
    10   6 C       33   1 H                                       1.0891037
    10   6 C       34   1 H                                       1.0881507
    11   7 N       35   1 H                                       1.0104064
    18   6 C       36   1 H                                       1.0882579
    18   6 C       37   1 H                                       1.0889920
    18   6 C       38   1 H                                       1.0882210
    19   6 C       39   1 H                                       1.0881879
    19   6 C       40   1 H                                       1.0886356
    19   6 C       41   1 H                                       1.0882383
    21   7 N       42   1 H                                       1.0126499
    25   8 O       43   1 H                                       0.9832653 (min)

 * 7 distinct bonds (by element types)

   Z      Z             #   av. dist./Å        max./Å        min./Å
   1 H    6 C          15     1.0890871     1.0925662     1.0879132
   6 C    6 C           6     1.4874819     1.5370352     1.3771616
   1 H    7 N           2     1.0115282     1.0126499     1.0104064
   6 C    7 N           7     1.3722508     1.4549483     1.2927567
   7 N    7 N           1     1.2936327     1.2936327     1.2936327
   1 H    8 O           1     0.9832653     0.9832653     0.9832653
   6 C    8 O           7     1.3391994     1.4286217     1.2222214


optimized geometry written to: xtbopt.xyz


           -------------------------------------------------
          | TOTAL ENERGY              -83.892753748487 Eh   |
          | GRADIENT NORM               0.000218379259 Eh/α |
          | HOMO-LUMO GAP               0.197863349486 eV   |
           -------------------------------------------------

------------------------------------------------------------------------
 * finished run on 2023/06/20 at 15:13:30.259     
------------------------------------------------------------------------
 total:
 * wall-time:     0 d,  0 h,  0 min,  8.578 sec
 *  cpu-time:     0 d,  0 h,  0 min,  8.389 sec
 * ratio c/w:     0.978 speedup
 SCF:
 * wall-time:     0 d,  0 h,  0 min,  0.228 sec
 *  cpu-time:     0 d,  0 h,  0 min,  0.187 sec
 * ratio c/w:     0.821 speedup
 ANC optimizer:
 * wall-time:     0 d,  0 h,  0 min,  8.251 sec
 *  cpu-time:     0 d,  0 h,  0 min,  8.150 sec
 * ratio c/w:     0.988 speedup

