      -----------------------------------------------------------      
     |                   =====================                   |     
     |                           x T B                           |     
     |                   =====================                   |     
     |                         S. Grimme                         |     
     |          Mulliken Center for Theoretical Chemistry        |     
     |                    University of Bonn                     |     
      -----------------------------------------------------------      

   * xtb version 6.5.1 (579679a) compiled by 'ehlert@majestix' on 2022-07-11

   xtb is free software: you can redistribute it and/or modify it under
   the terms of the GNU Lesser General Public License as published by
   the Free Software Foundation, either version 3 of the License, or
   (at your option) any later version.
   
   xtb is distributed in the hope that it will be useful,
   but WITHOUT ANY WARRANTY; without even the implied warranty of
   MERCHANTABILITY or FITNESS FOR A PARTICULAR PURPOSE.  See the
   GNU Lesser General Public License for more details.
   
   Cite this work as:
   * C. Bannwarth, E. Caldeweyher, S. Ehlert, A. Hansen, P. Pracht,
     J. Seibert, S. Spicher, S. Grimme, WIREs Comput. Mol. Sci., 2020, 11,
     e01493. DOI: 10.1002/wcms.1493
   
   for GFN2-xTB:
   * C. Bannwarth, S. Ehlert and S. Grimme., J. Chem. Theory Comput., 2019,
     15, 1652-1671. DOI: 10.1021/acs.jctc.8b01176
   for GFN1-xTB:
   * S. Grimme, C. Bannwarth, P. Shushkov, J. Chem. Theory Comput., 2017,
     13, 1989-2009. DOI: 10.1021/acs.jctc.7b00118
   for GFN0-xTB:
   * P. Pracht, E. Caldeweyher, S. Ehlert, S. Grimme, ChemRxiv, 2019, preprint.
     DOI: 10.26434/chemrxiv.8326202.v1
   for GFN-FF:
   * S. Spicher and S. Grimme, Angew. Chem. Int. Ed., 2020, 59, 15665-15673.
     DOI: 10.1002/anie.202004239
   
   for ALPB and GBSA implicit solvation:
   * S. Ehlert, M. Stahn, S. Spicher, S. Grimme, J. Chem. Theory Comput.,
     2021, 17, 4250-4261. DOI: 10.1021/acs.jctc.1c00471
   
   for DFT-D4:
   * E. Caldeweyher, C. Bannwarth and S. Grimme, J. Chem. Phys., 2017,
     147, 034112. DOI: 10.1063/1.4993215
   * E. Caldeweyher, S. Ehlert, A. Hansen, H. Neugebauer, S. Spicher,
     C. Bannwarth and S. Grimme, J. Chem. Phys., 2019, 150, 154122.
     DOI: 10.1063/1.5090222
   * E. Caldeweyher, J.-M. Mewes, S. Ehlert and S. Grimme, Phys. Chem. Chem. Phys.
     2020, 22, 8499-8512. DOI: 10.1039/D0CP00502A
   
   for sTDA-xTB:
   * S. Grimme and C. Bannwarth, J. Chem. Phys., 2016, 145, 054103.
     DOI: 10.1063/1.4959605
   
   in the mass-spec context:
   * V. Asgeirsson, C. Bauer and S. Grimme, Chem. Sci., 2017, 8, 4879.
     DOI: 10.1039/c7sc00601b
   * J. Koopman and S. Grimme, ACS Omega 2019, 4, 12, 15120-15133.
     DOI: 10.1021/acsomega.9b02011
   
   for metadynamics refer to:
   * S. Grimme, J. Chem. Theory Comput., 2019, 155, 2847-2862
     DOI: 10.1021/acs.jctc.9b00143
   
   for SPH calculations refer to:
   * S. Spicher and S. Grimme, J. Chem. Theory Comput., 2021, 17, 1701-1714
     DOI: 10.1021/acs.jctc.0c01306
   
   with help from (in alphabetical order)
   P. Atkinson, C. Bannwarth, F. Bohle, G. Brandenburg, E. Caldeweyher
   M. Checinski, S. Dohm, S. Ehlert, S. Ehrlich, I. Gerasimov, C. Hölzer
   A. Katbashev, J. Koopman, C. Lavigne, S. Lehtola, F. März, M. Müller,
   F. Musil, H. Neugebauer, J. Pisarek, C. Plett, P. Pracht, F. Pultar,
   J. Seibert, P. Shushkov, S. Spicher, M. Stahn, M. Steiner, T. Strunk,
   J. Stückrath, T. Rose, and J. Unsleber
   
 * started run on 2023/06/20 at 15:16:01.148     

           -------------------------------------------------
          |                Calculation Setup                |
           -------------------------------------------------

          program call               : /lustre/hpc/kemi/ree/PhD/git/ReactivityQM/dep/xtb-6.5.1/bin/xtb --gfn 1 /lustre/hpc/kemi/ree/PhD/git/ReactivityQM/calculations/R02/reac01prodE13/conf13/R02_reac01prodE13_conf13_gfn1.xyz --opt --vfukui --chrg -1 --uhf 0 --alpb DMSO
          hostname                   : node315
          coordinate file            : /lustre/hpc/kemi/ree/PhD/git/ReactivityQM/calculations/R02/reac01prodE13/conf13/R02_reac01prodE13_conf13_gfn1.xyz
          omp threads                :                     1

   ID    Z sym.   atoms
    1    6 C      1, 3, 5, 6, 8, 10, 12-15, 17, 19, 22, 23
    2    8 O      2, 4, 7, 9, 18, 24
    3    7 N      11, 16, 20, 21, 25
    4    1 H      26-43

           -------------------------------------------------
          |                 G F N 1 - x T B                 |
           -------------------------------------------------

        Reference                      10.1021/acs.jctc.7b00118
      * Hamiltonian:
        H0-scaling (s, p, d)           1.850000    2.250000    2.000000
        zeta-weighting                 0.000000
      * Dispersion:
        s8                             2.400000
        a1                             0.630000
        a2                             5.000000
        s9                             0.000000
      * Repulsion:
        kExp                           1.500000
        rExp                           1.000000
      * Coulomb:
        alpha                          2.000000
        third order                    atomic
        anisotropic                    false
      * Halogen bond correction:
        rad-scale                      1.300000
        damping                        0.440000

      * Solvation model:               ALPB
        Solvent                        DMSO
        Parameter file                 internal GFN1-xTB/ALPB
        Dielectric constant                4.6680E+01
        Reference state                gsolv [1 M gas/solution]
        Free energy shift                  7.6243E-03 Eh       4.7843E+00 kcal/mol
        Temperature                        2.9815E+02 K
        Density                            1.1000E+00 kg/L
        Solvent mass                       7.8130E+01 g/mol
        Interaction kernel             P16
        Born radius scaling (c1)           1.7672E+00
        Born radii integrator          GBOBC
        Born offset                        0.0000E+00 a0       0.0000E+00 AA
        H-bond correction              true
        Ion screening                  false
        Surface tension                    1.0000E-05 Eh       1.5569E+01 dyn/cm
        Grid points                               230 per atom

          ...................................................
          :                      SETUP                      :
          :.................................................:
          :  # basis functions                 136          :
          :  # atomic orbitals                 136          :
          :  # shells                           86          :
          :  # electrons                       136          :
          :  # halogen bonds                     0          :
          :  max. iterations                   250          :
          :  Hamiltonian                  GFN1-xTB          :
          :  restarted?                      false          :
          :  GBSA solvation                   true          :
          :  PC potential                    false          :
          :  electronic temp.          300.0000000     K    :
          :  accuracy                    1.0000000          :
          :  -> integral cutoff          0.2500000E+02      :
          :  -> integral neglect         0.1000000E-07      :
          :  -> SCF convergence          0.1000000E-05 Eh   :
          :  -> wf. convergence          0.2000000E-04 e    :
          :  Broyden damping             0.4000000          :
          ...................................................

 iter      E             dE          RMSdq      gap      omega  full diag
   1    -84.3221490 -0.843221E+02  0.857E+00    0.51       0.0  T
   2    -84.2236493  0.984997E-01  0.531E+00    0.59       1.0  T
   3    -83.0645675  0.115908E+01  0.397E+00    0.14       1.0  T
   4    -84.4493554 -0.138479E+01  0.143E+00    1.69       1.0  T
   5    -84.5365169 -0.871614E-01  0.761E-01    1.10       1.0  T
   6    -84.5484073 -0.118904E-01  0.429E-01    0.51       1.0  T
   7    -84.2750149  0.273392E+00  0.141E+00    0.24       1.0  T
   8    -84.5488426 -0.273828E+00  0.418E-01    0.54       1.0  T
   9    -84.5505306 -0.168800E-02  0.372E-01    0.40       1.0  T
  10    -84.5529023 -0.237163E-02  0.322E-01    0.25       1.0  T
  11    -84.5659609 -0.130586E-01  0.712E-02    0.10       1.0  T
  12    -84.5660554 -0.944974E-04  0.612E-02    0.07       1.0  T
  13    -84.5652074  0.848003E-03  0.989E-02    0.10       1.0  T
  14    -84.5666192 -0.141187E-02  0.126E-02    0.08       1.2  T
  15    -84.5666363 -0.170403E-04  0.609E-03    0.08       2.5  T
  16    -84.5666416 -0.533019E-05  0.836E-04    0.08      18.3  T
  17    -84.5666401  0.151558E-05  0.330E-03    0.08       4.6  T
  18    -84.5666415 -0.143155E-05  0.110E-03    0.08      13.9  T
  19    -84.5666417 -0.162419E-06  0.349E-04    0.08      43.7  T
  20    -84.5666417 -0.178360E-07  0.467E-05    0.08     326.4  T
  21    -84.5666417 -0.315694E-09  0.730E-06    0.08    2087.7  T

   *** convergence criteria satisfied after 21 iterations ***

         #    Occupation            Energy/Eh            Energy/eV
      -------------------------------------------------------------
         1        2.0000           -0.8290384             -22.5593
       ...           ...                  ...                  ...
        62        2.0000           -0.4252658             -11.5721
        63        2.0000           -0.4167658             -11.3408
        64        2.0000           -0.4151453             -11.2967
        65        2.0000           -0.4116914             -11.2027
        66        2.0000           -0.3953724             -10.7586
        67        2.0000           -0.3878266             -10.5533
        68        1.6543           -0.2884894              -7.8502 (HOMO)
        69        0.3457           -0.2855150              -7.7693 (LUMO)
        70                         -0.2394415              -6.5155
        71                         -0.2326215              -6.3300
        72                         -0.1943428              -5.2883
        73                         -0.1687288              -4.5913
       ...                                ...                  ...
       136                          0.7152881              19.4640
      -------------------------------------------------------------
                  HL-Gap            0.0029744 Eh            0.0809 eV
             Fermi-level           -0.2870022 Eh           -7.8097 eV

 SCC (total)                   0 d,  0 h,  0 min,  0.198 sec
 SCC setup                      ...        0 min,  0.002 sec (  1.123%)
 Dispersion                     ...        0 min,  0.000 sec (  0.211%)
 classical contributions        ...        0 min,  0.000 sec (  0.066%)
 integral evaluation            ...        0 min,  0.039 sec ( 19.753%)
 iterations                     ...        0 min,  0.073 sec ( 36.817%)
 molecular gradient             ...        0 min,  0.082 sec ( 41.522%)
 printout                       ...        0 min,  0.001 sec (  0.487%)

         :::::::::::::::::::::::::::::::::::::::::::::::::::::
         ::                     SUMMARY                     ::
         :::::::::::::::::::::::::::::::::::::::::::::::::::::
         :: total energy             -83.825016241418 Eh    ::
         :: total w/o Gsasa/hb       -83.801522842033 Eh    ::
         :: gradient norm              0.165057675876 Eh/a0 ::
         :: HOMO-LUMO gap              0.080937054339 eV    ::
         ::.................................................::
         :: SCC energy               -84.566641703522 Eh    ::
         :: -> electrostatic           0.408084475314 Eh    ::
         :: -> Gsolv                  -0.100037354615 Eh    ::
         ::    -> Gelec               -0.076543955229 Eh    ::
         ::    -> Gsasa               -0.025679454687 Eh    ::
         ::    -> Ghb                 -0.005438223704 Eh    ::
         ::    -> Gshift               0.007624279005 Eh    ::
         :: repulsion energy           0.766884600396 Eh    ::
         :: dispersion energy         -0.025259138293 Eh    ::
         :: halogen bond corr.         0.000000000000 Eh    ::
         :: add. restraining           0.000000000000 Eh    ::
         :: total charge              -1.000000000000 e     ::
         :::::::::::::::::::::::::::::::::::::::::::::::::::::

      ----------------------------------------------------------- 
     |                   =====================                   |
     |                        A N C O P T                        |
     |                   =====================                   |
     |               Approximate Normal Coordinate               |
     |                Rational Function Optimizer                |
      ----------------------------------------------------------- 

          ...................................................
          :                      SETUP                      :
          :.................................................:
          :   optimization level            normal          :
          :   max. optcycles                   200          :
          :   ANC micro-cycles                  20          :
          :   degrees of freedom               123          :
          :.................................................:
          :   RF solver                   davidson          :
          :   write xtbopt.log                true          :
          :   linear?                        false          :
          :   energy convergence         0.5000000E-05 Eh   :
          :   grad. convergence          0.1000000E-02 Eh/α :
          :   maximium RF displ.         1.0000000          :
          :   Hlow (freq-cutoff)         0.1000000E-01      :
          :   Hmax (freq-cutoff)         5.0000000          :
          :   S6 in model hess.         20.0000000          :
          ...................................................

generating ANC from model Hessian ...
Using Lindh-Hessian (1995)
 Shifting diagonal of input Hessian by   9.847199885046747E-003
 Lowest  eigenvalues of input Hessian
    0.000000    0.000000    0.000000    0.000000    0.000000    0.000000
    0.010000    0.010146    0.010687    0.010972    0.011488    0.012087
    0.012412    0.013146    0.013696    0.014254    0.015143    0.016047
 Highest eigenvalues
    2.000078    2.069190    2.097741    2.183683    2.256581    2.325281
 

........................................................................
.............................. CYCLE    1 ..............................
........................................................................
   1    -84.5666417 -0.845666E+02  0.330E-06    0.08       0.0  T
   2    -84.5666417  0.240647E-09  0.403E-05    0.08     378.5  T
   3    -84.5666417 -0.242139E-09  0.187E-07    0.08   81450.7  T
     SCC iter.                  ...        0 min,  0.011 sec
     gradient                   ...        0 min,  0.082 sec
 * total energy  :   -83.8250162 Eh     change       -0.7673862E-11 Eh
   gradient norm :     0.1650584 Eh/α   predicted     0.0000000E+00 (-100.00%)
   displ. norm   :     0.3473057 α      lambda       -0.2268531E-01
   maximum displ.:     0.1152643 α      in ANC's #32, #9, #14, ...

........................................................................
.............................. CYCLE    2 ..............................
........................................................................
   1    -84.5727821 -0.845728E+02  0.296E-01    0.26       0.0  T
   2    -84.2557459  0.317036E+00  0.153E+00    0.51       1.0  T
   3    -84.5793044 -0.323558E+00  0.187E-01    0.15       1.0  T
   4    -84.5833941 -0.408972E-02  0.609E-02    0.10       1.0  T
   5    -84.5837332 -0.339072E-03  0.307E-02    0.08       1.0  T
   6    -84.5835731  0.160135E-03  0.460E-02    0.10       1.0  T
   7    -84.5838655 -0.292483E-03  0.946E-03    0.09       1.6  T
   8    -84.5838755 -0.992916E-05  0.487E-03    0.09       3.1  T
   9    -84.5838773 -0.182263E-05  0.338E-03    0.09       4.5  T
  10    -84.5838790 -0.169231E-05  0.146E-04    0.09     104.1  T
  11    -84.5838790 -0.972392E-09  0.110E-04    0.09     138.1  T
  12    -84.5838790 -0.165510E-08  0.341E-05    0.09     446.9  T
     SCC iter.                  ...        0 min,  0.041 sec
     gradient                   ...        0 min,  0.082 sec
 * total energy  :   -83.8417202 Eh     change       -0.1670392E-01 Eh
   gradient norm :     0.0799359 Eh/α   predicted    -0.1273034E-01 ( -23.79%)
   displ. norm   :     0.3513463 α      lambda       -0.1053012E-01
   maximum displ.:     0.1332936 α      in ANC's #9, #32, #7, ...

........................................................................
.............................. CYCLE    3 ..............................
........................................................................
   1    -84.5907368 -0.845907E+02  0.264E-01    0.31       0.0  T
   2    -84.2527310  0.338006E+00  0.156E+00    0.39       1.0  T
   3    -84.5933558 -0.340625E+00  0.215E-01    0.21       1.0  T
   4    -84.5958987 -0.254287E-02  0.158E-01    0.16       1.0  T
   5    -84.5993719 -0.347316E-02  0.778E-03    0.10       2.0  T
   6    -84.5993510  0.209096E-04  0.124E-02    0.10       1.2  T
   7    -84.5993350  0.159150E-04  0.163E-02    0.10       1.0  T
   8    -84.5993592 -0.241285E-04  0.974E-03    0.10       1.6  T
   9    -84.5993728 -0.136536E-04  0.142E-03    0.10      10.7  T
  10    -84.5993727  0.132232E-06  0.170E-03    0.10       9.0  T
  11    -84.5993731 -0.408982E-06  0.349E-04    0.10      43.7  T
  12    -84.5993731 -0.172866E-07  0.651E-05    0.10     234.2  T
  13    -84.5993731 -0.614236E-09  0.670E-06    0.10    2275.9  T
     SCC iter.                  ...        0 min,  0.047 sec
     gradient                   ...        0 min,  0.082 sec
 * total energy  :   -83.8479415 Eh     change       -0.6221312E-02 Eh
   gradient norm :     0.0220896 Eh/α   predicted    -0.5916880E-02 (  -4.89%)
   displ. norm   :     0.2602491 α      lambda       -0.1718404E-02
   maximum displ.:     0.1470598 α      in ANC's #9, #7, #25, ...

........................................................................
.............................. CYCLE    4 ..............................
........................................................................
   1    -84.5963847 -0.845964E+02  0.163E-01    0.18       0.0  T
   2    -84.2545837  0.341801E+00  0.155E+00    0.28       1.0  T
   3    -84.5997919 -0.345208E+00  0.621E-02    0.12       1.0  T
   4    -84.6002783 -0.486421E-03  0.196E-02    0.11       1.0  T
   5    -84.6003119 -0.336290E-04  0.137E-02    0.10       1.1  T
   6    -84.6003327 -0.208189E-04  0.582E-03    0.10       2.6  T
   7    -84.6003371 -0.441743E-05  0.571E-04    0.10      26.7  T
   8    -84.6003372 -0.342897E-07  0.155E-04    0.10      98.4  T
   9    -84.6003372 -0.555772E-09  0.117E-04    0.10     130.1  T
     SCC iter.                  ...        0 min,  0.032 sec
     gradient                   ...        0 min,  0.082 sec
 * total energy  :   -83.8491825 Eh     change       -0.1241050E-02 Eh
   gradient norm :     0.0155695 Eh/α   predicted    -0.9174095E-03 ( -26.08%)
   displ. norm   :     0.2688295 α      lambda       -0.1011812E-02
   maximum displ.:     0.1602473 α      in ANC's #9, #19, #7, ...

........................................................................
.............................. CYCLE    5 ..............................
........................................................................
   1    -84.5984568 -0.845985E+02  0.130E-01    0.17       0.0  T
   2    -84.2640475  0.334409E+00  0.152E+00    0.20       1.0  T
   3    -84.6006261 -0.336579E+00  0.513E-02    0.13       1.0  T
   4    -84.6009194 -0.293328E-03  0.222E-02    0.12       1.0  T
   5    -84.6009893 -0.698357E-04  0.620E-03    0.11       2.5  T
   6    -84.6009826  0.667791E-05  0.874E-03    0.11       1.7  T
   7    -84.6009920 -0.942986E-05  0.311E-03    0.11       4.9  T
   8    -84.6009934 -0.137736E-05  0.361E-04    0.11      42.3  T
   9    -84.6009934 -0.154152E-07  0.115E-04    0.11     132.2  T
  10    -84.6009934 -0.109131E-08  0.710E-05    0.11     214.7  T
     SCC iter.                  ...        0 min,  0.034 sec
     gradient                   ...        0 min,  0.082 sec
 * total energy  :   -83.8498499 Eh     change       -0.6673322E-03 Eh
   gradient norm :     0.0072841 Eh/α   predicted    -0.5424781E-03 ( -18.71%)
   displ. norm   :     0.1805220 α      lambda       -0.3205911E-03
   maximum displ.:     0.1079977 α      in ANC's #9, #19, #10, ...

........................................................................
.............................. CYCLE    6 ..............................
........................................................................
   1    -84.6013709 -0.846014E+02  0.584E-02    0.13       0.0  T
   2    -84.4703693  0.131002E+00  0.939E-01    0.04       1.0  T
   3    -84.6018097 -0.131440E+00  0.228E-02    0.12       1.0  T
   4    -84.6018528 -0.431034E-04  0.137E-02    0.11       1.1  T
   5    -84.6018775 -0.246345E-04  0.461E-03    0.11       3.3  T
   6    -84.6018796 -0.217014E-05  0.195E-03    0.11       7.8  T
   7    -84.6018799 -0.267158E-06  0.138E-03    0.11      11.0  T
   8    -84.6018802 -0.257569E-06  0.406E-04    0.11      37.6  T
   9    -84.6018802 -0.242549E-07  0.139E-05    0.11    1100.0  T
  10    -84.6018802  0.542428E-10  0.227E-05    0.11     671.6  T
     SCC iter.                  ...        0 min,  0.034 sec
     gradient                   ...        0 min,  0.082 sec
 * total energy  :   -83.8500749 Eh     change       -0.2250132E-03 Eh
   gradient norm :     0.0054992 Eh/α   predicted    -0.1655201E-03 ( -26.44%)
   displ. norm   :     0.1711627 α      lambda       -0.1982443E-03
   maximum displ.:     0.0883905 α      in ANC's #9, #19, #3, ...

........................................................................
.............................. CYCLE    7 ..............................
........................................................................
   1    -84.6025499 -0.846025E+02  0.285E-02    0.12       0.0  T
   2    -84.5841967  0.183533E-01  0.353E-01    0.04       1.0  T
   3    -84.6026595 -0.184628E-01  0.819E-03    0.11       1.9  T
   4    -84.6026657 -0.624938E-05  0.410E-03    0.11       3.7  T
   5    -84.6026678 -0.208499E-05  0.923E-04    0.11      16.5  T
   6    -84.6026678  0.429225E-07  0.772E-04    0.11      19.7  T
   7    -84.6026679 -0.730393E-07  0.269E-04    0.11      56.8  T
   8    -84.6026679 -0.103838E-07  0.364E-05    0.11     419.2  T
   9    -84.6026679  0.913047E-10  0.408E-05    0.11     373.5  T
     SCC iter.                  ...        0 min,  0.031 sec
     gradient                   ...        0 min,  0.082 sec
 * total energy  :   -83.8502199 Eh     change       -0.1449820E-03 Eh
   gradient norm :     0.0060390 Eh/α   predicted    -0.1020266E-03 ( -29.63%)
   displ. norm   :     0.2004901 α      lambda       -0.1841826E-03
   maximum displ.:     0.0833723 α      in ANC's #3, #9, #19, ...

........................................................................
.............................. CYCLE    8 ..............................
........................................................................
   1    -84.6029641 -0.846030E+02  0.270E-02    0.12       0.0  T
   2    -84.5887480  0.142161E-01  0.311E-01    0.05       1.0  T
   3    -84.6030541 -0.143061E-01  0.931E-03    0.11       1.6  T
   4    -84.6030660 -0.119227E-04  0.194E-03    0.11       7.9  T
   5    -84.6030655  0.518405E-06  0.246E-03    0.11       6.2  T
   6    -84.6030653  0.228349E-06  0.242E-03    0.11       6.3  T
   7    -84.6030660 -0.771543E-06  0.766E-04    0.11      19.9  T
   8    -84.6030661 -0.840114E-07  0.825E-05    0.11     184.9  T
   9    -84.6030661 -0.338176E-09  0.573E-05    0.11     265.9  T
     SCC iter.                  ...        0 min,  0.031 sec
     gradient                   ...        0 min,  0.082 sec
 * total energy  :   -83.8503589 Eh     change       -0.1390899E-03 Eh
   gradient norm :     0.0072179 Eh/α   predicted    -0.9579636E-04 ( -31.13%)
   displ. norm   :     0.2596648 α      lambda       -0.2259236E-03
   maximum displ.:     0.1272117 α      in ANC's #3, #19, #4, ...

........................................................................
.............................. CYCLE    9 ..............................
........................................................................
   1    -84.6025939 -0.846026E+02  0.493E-02    0.13       0.0  T
   2    -84.5324778  0.701161E-01  0.689E-01    0.01       1.0  T
   3    -84.6028367 -0.703589E-01  0.251E-02    0.12       1.0  T
   4    -84.6029271 -0.904082E-04  0.585E-03    0.12       2.6  T
   5    -84.6029289 -0.186334E-05  0.524E-03    0.11       2.9  T
   6    -84.6029195  0.945975E-05  0.915E-03    0.11       1.7  T
   7    -84.6029285 -0.905872E-05  0.464E-03    0.11       3.3  T
   8    -84.6029316 -0.304052E-05  0.808E-04    0.11      18.9  T
   9    -84.6029317 -0.907701E-07  0.105E-04    0.11     144.6  T
  10    -84.6029317  0.185284E-08  0.148E-04    0.11     102.9  T
     SCC iter.                  ...        0 min,  0.035 sec
     gradient                   ...        0 min,  0.082 sec
 * total energy  :   -83.8505321 Eh     change       -0.1732041E-03 Eh
   gradient norm :     0.0099287 Eh/α   predicted    -0.1205853E-03 ( -30.38%)
   displ. norm   :     0.3136355 α      lambda       -0.3134378E-03
   maximum displ.:     0.1748325 α      in ANC's #3, #4, #8, ...

........................................................................
.............................. CYCLE   10 ..............................
........................................................................
   1    -84.6014754 -0.846015E+02  0.847E-02    0.15       0.0  T
   2    -84.3862266  0.215249E+00  0.121E+00    0.07       1.0  T
   3    -84.6020352 -0.215809E+00  0.527E-02    0.14       1.0  T
   4    -84.6023922 -0.356982E-03  0.201E-02    0.12       1.0  T
   5    -84.6024534 -0.612384E-04  0.570E-03    0.12       2.7  T
   6    -84.6023999  0.535736E-04  0.195E-02    0.11       1.0  T
   7    -84.6024400 -0.401957E-04  0.102E-02    0.11       1.5  T
   8    -84.6024546 -0.145670E-04  0.209E-03    0.12       7.3  T
   9    -84.6024551 -0.513968E-06  0.872E-04    0.12      17.5  T
  10    -84.6024552 -0.739390E-07  0.479E-04    0.12      31.9  T
  11    -84.6024552 -0.307773E-07  0.123E-04    0.12     124.4  T
  12    -84.6024552 -0.198719E-08  0.327E-05    0.12     465.6  T
     SCC iter.                  ...        0 min,  0.042 sec
     gradient                   ...        0 min,  0.082 sec
 * total energy  :   -83.8507675 Eh     change       -0.2353420E-03 Eh
   gradient norm :     0.0134807 Eh/α   predicted    -0.1721361E-03 ( -26.86%)
   displ. norm   :     0.2880626 α      lambda       -0.4196546E-03
   maximum displ.:     0.1793975 α      in ANC's #3, #7, #2, ...

........................................................................
.............................. CYCLE   11 ..............................
........................................................................
   1    -84.6015716 -0.846016E+02  0.107E-01    0.17       0.0  T
   2    -84.3261946  0.275377E+00  0.137E+00    0.10       1.0  T
   3    -84.6022871 -0.276092E+00  0.733E-02    0.16       1.0  T
   4    -84.6028725 -0.585434E-03  0.375E-02    0.14       1.0  T
   5    -84.6030860 -0.213483E-03  0.592E-03    0.12       2.6  T
   6    -84.6030097  0.762804E-04  0.236E-02    0.11       1.0  T
   7    -84.6030704 -0.606948E-04  0.118E-02    0.12       1.3  T
   8    -84.6030896 -0.191819E-04  0.253E-03    0.12       6.0  T
   9    -84.6030902 -0.653285E-06  0.132E-03    0.12      11.5  T
  10    -84.6030904 -0.188927E-06  0.646E-04    0.12      23.6  T
  11    -84.6030905 -0.587664E-07  0.823E-05    0.12     185.2  T
  12    -84.6030905 -0.558018E-09  0.518E-05    0.12     294.5  T
     SCC iter.                  ...        0 min,  0.042 sec
     gradient                   ...        0 min,  0.082 sec
 * total energy  :   -83.8510719 Eh     change       -0.3044279E-03 Eh
   gradient norm :     0.0129616 Eh/α   predicted    -0.2272774E-03 ( -25.34%)
   displ. norm   :     0.2784698 α      lambda       -0.4402502E-03
   maximum displ.:     0.1748080 α      in ANC's #3, #8, #2, ...

........................................................................
.............................. CYCLE   12 ..............................
........................................................................
   1    -84.6005199 -0.846005E+02  0.117E-01    0.21       0.0  T
   2    -84.3173209  0.283199E+00  0.139E+00    0.10       1.0  T
   3    -84.6013157 -0.283995E+00  0.835E-02    0.18       1.0  T
   4    -84.6019267 -0.610986E-03  0.521E-02    0.16       1.0  T
   5    -84.6023163 -0.389639E-03  0.118E-02    0.13       1.3  T
   6    -84.6022316  0.847537E-04  0.270E-02    0.12       1.0  T
   7    -84.6023146 -0.830469E-04  0.125E-02    0.12       1.2  T
   8    -84.6023362 -0.216282E-04  0.255E-03    0.13       6.0  T
   9    -84.6023368 -0.596363E-06  0.148E-03    0.13      10.3  T
  10    -84.6023370 -0.190737E-06  0.915E-04    0.13      16.7  T
  11    -84.6023371 -0.111875E-06  0.225E-04    0.13      67.7  T
  12    -84.6023372 -0.629495E-08  0.760E-05    0.13     200.5  T
  13    -84.6023372 -0.610115E-09  0.377E-05    0.13     404.0  T
     SCC iter.                  ...        0 min,  0.045 sec
     gradient                   ...        0 min,  0.081 sec
 * total energy  :   -83.8513937 Eh     change       -0.3218093E-03 Eh
   gradient norm :     0.0130187 Eh/α   predicted    -0.2372062E-03 ( -26.29%)
   displ. norm   :     0.3053935 α      lambda       -0.6640385E-03
   maximum displ.:     0.1431241 α      in ANC's #9, #3, #6, ...

........................................................................
.............................. CYCLE   13 ..............................
........................................................................
   1    -84.6055631 -0.846056E+02  0.105E-01    0.21       0.0  T
   2    -84.3896378  0.215925E+00  0.121E+00    0.06       1.0  T
   3    -84.6060690 -0.216431E+00  0.797E-02    0.19       1.0  T
   4    -84.6064589 -0.389846E-03  0.596E-02    0.17       1.0  T
   5    -84.6067573 -0.298492E-03  0.373E-02    0.16       1.0  T
   6    -84.6069479 -0.190579E-03  0.809E-03    0.14       1.9  T
   7    -84.6069568 -0.890440E-05  0.588E-04    0.14      25.9  T
   8    -84.6069568 -0.306950E-08  0.345E-04    0.14      44.2  T
   9    -84.6069568  0.129157E-07  0.435E-04    0.14      35.0  T
  10    -84.6069568 -0.242937E-07  0.113E-04    0.14     134.4  T
  11    -84.6069568 -0.427448E-09  0.951E-05    0.14     160.4  T
     SCC iter.                  ...        0 min,  0.037 sec
     gradient                   ...        0 min,  0.079 sec
 * total energy  :   -83.8514345 Eh     change       -0.4075255E-04 Eh
   gradient norm :     0.0218659 Eh/α   predicted    -0.3629851E-03 ( 790.71%)
   displ. norm   :     0.2065801 α      lambda       -0.7074518E-03
   maximum displ.:     0.1156456 α      in ANC's #3, #8, #23, ...

........................................................................
.............................. CYCLE   14 ..............................
........................................................................
   1    -84.6018667 -0.846019E+02  0.704E-02    0.19       0.0  T
   2    -84.5304440  0.714227E-01  0.703E-01    0.01       1.0  T
   3    -84.6022751 -0.718311E-01  0.413E-02    0.17       1.0  T
   4    -84.6024595 -0.184423E-03  0.189E-02    0.15       1.0  T
   5    -84.6024637 -0.417825E-05  0.171E-02    0.14       1.0  T
   6    -84.6024689 -0.520636E-05  0.152E-02    0.14       1.0  T
   7    -84.6024961 -0.272006E-04  0.638E-03    0.14       2.4  T
   8    -84.6025015 -0.541191E-05  0.148E-03    0.14      10.3  T
   9    -84.6025017 -0.249122E-06  0.610E-04    0.14      25.0  T
  10    -84.6025018 -0.274837E-07  0.403E-04    0.14      37.9  T
  11    -84.6025018 -0.203203E-07  0.116E-04    0.14     131.8  T
  12    -84.6025018 -0.155788E-08  0.446E-05    0.14     342.2  T
     SCC iter.                  ...        0 min,  0.032 sec
     gradient                   ...        0 min,  0.044 sec
 * total energy  :   -83.8517317 Eh     change       -0.2972512E-03 Eh
   gradient norm :     0.0090485 Eh/α   predicted    -0.3688217E-03 (  24.08%)
   displ. norm   :     0.1542027 α      lambda       -0.2019578E-03
   maximum displ.:     0.0839081 α      in ANC's #3, #7, #8, ...

........................................................................
.............................. CYCLE   15 ..............................
........................................................................
   1    -84.6003742 -0.846004E+02  0.172E-01    0.09       0.0  T
   2    -84.6004309 -0.566770E-04  0.224E-01    0.56       1.0  T
   3    -84.6023985 -0.196763E-02  0.145E-01    0.31       1.0  T
   4    -84.6034136 -0.101504E-02  0.104E-01    0.22       1.0  T
   5    -84.6047172 -0.130363E-02  0.174E-02    0.13       1.0  T
   6    -84.6046363  0.809440E-04  0.315E-02    0.15       1.0  T
   7    -84.6044162  0.220036E-03  0.490E-02    0.12       1.0  T
   8    -84.6047540 -0.337805E-03  0.852E-03    0.14       1.8  T
   9    -84.6047641 -0.100554E-04  0.139E-03    0.14      11.0  T
  10    -84.6047644 -0.265198E-06  0.205E-04    0.14      74.4  T
  11    -84.6047644 -0.557873E-08  0.360E-05    0.14     423.8  T
  12    -84.6047644  0.267718E-09  0.571E-05    0.14     267.2  T
     SCC iter.                  ...        0 min,  0.044 sec
     gradient                   ...        0 min,  0.082 sec
 * total energy  :   -83.8518219 Eh     change       -0.9015486E-04 Eh
   gradient norm :     0.0032206 Eh/α   predicted    -0.1033807E-03 (  14.67%)
   displ. norm   :     0.0967854 α      lambda       -0.6964820E-04
   maximum displ.:     0.0609828 α      in ANC's #3, #6, #5, ...

........................................................................
.............................. CYCLE   16 ..............................
........................................................................
   1    -84.6048417 -0.846048E+02  0.299E-02    0.15       0.0  T
   2    -84.5978727  0.696898E-02  0.221E-01    0.08       1.0  T
   3    -84.6049365 -0.706382E-02  0.135E-02    0.15       1.1  T
   4    -84.6049582 -0.217220E-04  0.505E-03    0.14       3.0  T
   5    -84.6049619 -0.366431E-05  0.929E-04    0.14      16.4  T
   6    -84.6049611  0.757274E-06  0.232E-03    0.14       6.6  T
   7    -84.6049618 -0.680185E-06  0.777E-04    0.14      19.6  T
   8    -84.6049619 -0.833870E-07  0.791E-05    0.14     192.7  T
   9    -84.6049619 -0.720959E-09  0.214E-05    0.14     712.5  T
     SCC iter.                  ...        0 min,  0.032 sec
     gradient                   ...        0 min,  0.082 sec
 * total energy  :   -83.8518785 Eh     change       -0.5662339E-04 Eh
   gradient norm :     0.0020336 Eh/α   predicted    -0.3515235E-04 ( -37.92%)
   displ. norm   :     0.2004919 α      lambda       -0.1054215E-03
   maximum displ.:     0.1156644 α      in ANC's #3, #5, #6, ...

........................................................................
.............................. CYCLE   17 ..............................
........................................................................
   1    -84.6048374 -0.846048E+02  0.427E-02    0.17       0.0  T
   2    -84.5884045  0.164329E-01  0.339E-01    0.06       1.0  T
   3    -84.6049971 -0.165925E-01  0.238E-02    0.16       1.0  T
   4    -84.6050587 -0.616545E-04  0.110E-02    0.15       1.4  T
   5    -84.6050759 -0.171771E-04  0.174E-03    0.14       8.8  T
   6    -84.6050723  0.367059E-05  0.510E-03    0.14       3.0  T
   7    -84.6050754 -0.316480E-05  0.201E-03    0.14       7.6  T
   8    -84.6050760 -0.556398E-06  0.289E-04    0.14      52.8  T
   9    -84.6050760 -0.105059E-07  0.753E-05    0.14     202.4  T
  10    -84.6050760  0.329038E-09  0.856E-05    0.14     178.2  T
     SCC iter.                  ...        0 min,  0.034 sec
     gradient                   ...        0 min,  0.082 sec
 * total energy  :   -83.8519460 Eh     change       -0.6750113E-04 Eh
   gradient norm :     0.0030700 Eh/α   predicted    -0.5483252E-04 ( -18.77%)
   displ. norm   :     0.1148937 α      lambda       -0.3751707E-04
   maximum displ.:     0.0617160 α      in ANC's #3, #5, #6, ...

........................................................................
.............................. CYCLE   18 ..............................
........................................................................
   1    -84.6050744 -0.846051E+02  0.142E-02    0.15       0.0  T
   2    -84.6043548  0.719564E-03  0.729E-02    0.12       1.0  T
   3    -84.6050980 -0.743136E-03  0.457E-03    0.15       3.3  T
   4    -84.6051005 -0.249493E-05  0.112E-03    0.14      13.6  T
   5    -84.6051003  0.169010E-06  0.137E-03    0.14      11.1  T
   6    -84.6051004 -0.128018E-06  0.591E-04    0.14      25.8  T
   7    -84.6051005 -0.494687E-07  0.603E-05    0.14     252.9  T
   8    -84.6051005 -0.339924E-09  0.158E-05    0.14     967.4  T
     SCC iter.                  ...        0 min,  0.027 sec
     gradient                   ...        0 min,  0.082 sec
 * total energy  :   -83.8519759 Eh     change       -0.2988987E-04 Eh
   gradient norm :     0.0032089 Eh/α   predicted    -0.1901086E-04 ( -36.40%)
   displ. norm   :     0.1869861 α      lambda       -0.6397863E-04
   maximum displ.:     0.0915557 α      in ANC's #5, #3, #19, ...

........................................................................
.............................. CYCLE   19 ..............................
........................................................................
   1    -84.6052746 -0.846053E+02  0.659E-03    0.15       0.0  T
   2    -84.6052297  0.448976E-04  0.193E-02    0.14       1.0  T
   3    -84.6052752 -0.454663E-04  0.471E-03    0.15       3.2  T
   4    -84.6052781 -0.287063E-05  0.171E-03    0.14       8.9  T
   5    -84.6052782 -0.151982E-06  0.973E-04    0.14      15.7  T
   6    -84.6052783 -0.710821E-07  0.247E-04    0.14      61.7  T
   7    -84.6052783 -0.670993E-08  0.284E-05    0.14     537.4  T
   8    -84.6052783 -0.318323E-10  0.981E-06    0.14    1553.7  T
     SCC iter.                  ...        0 min,  0.028 sec
     gradient                   ...        0 min,  0.082 sec
 * total energy  :   -83.8520221 Eh     change       -0.4621568E-04 Eh
   gradient norm :     0.0031209 Eh/α   predicted    -0.3310830E-04 ( -28.36%)
   displ. norm   :     0.1643004 α      lambda       -0.4818022E-04
   maximum displ.:     0.0874451 α      in ANC's #5, #3, #2, ...

........................................................................
.............................. CYCLE   20 ..............................
........................................................................
   1    -84.6051600 -0.846052E+02  0.645E-03    0.14       0.0  T
   2    -84.6050866  0.733384E-04  0.236E-02    0.16       1.0  T
   3    -84.6051650 -0.783688E-04  0.119E-03    0.14      12.9  T
   4    -84.6051649  0.101603E-06  0.115E-03    0.14      13.3  T
   5    -84.6051650 -0.107271E-06  0.383E-04    0.14      39.8  T
   6    -84.6051650 -0.102617E-07  0.732E-05    0.14     208.2  T
   7    -84.6051650 -0.796945E-10  0.261E-05    0.14     584.5  T
     SCC iter.                  ...        0 min,  0.024 sec
     gradient                   ...        0 min,  0.083 sec
 * total energy  :   -83.8520570 Eh     change       -0.3485327E-04 Eh
   gradient norm :     0.0030404 Eh/α   predicted    -0.2474410E-04 ( -29.00%)
   displ. norm   :     0.1313987 α      lambda       -0.3998401E-04
   maximum displ.:     0.0720573 α      in ANC's #5, #3, #2, ...
 * RMSD in coord.:     0.4018559 α      energy gain  -0.2704073E-01 Eh

generating ANC from model Hessian ...
Using Lindh-Hessian (1995)
 Shifting diagonal of input Hessian by   9.834821348147369E-003
 Lowest  eigenvalues of input Hessian
    0.000000    0.000000    0.000000    0.000000    0.000000    0.000000
    0.010000    0.010163    0.010714    0.010936    0.011490    0.012250
    0.012559    0.013609    0.014017    0.014545    0.015358    0.016672
 Highest eigenvalues
    2.034340    2.079821    2.123569    2.132692    2.265668    2.403653
 

........................................................................
.............................. CYCLE   21 ..............................
........................................................................
   1    -84.6053404 -0.846053E+02  0.116E-02    0.14       0.0  T
   2    -84.6051034  0.237064E-03  0.433E-02    0.17       1.0  T
   3    -84.6053581 -0.254759E-03  0.286E-03    0.14       5.3  T
   4    -84.6053589 -0.765901E-06  0.861E-04    0.14      17.7  T
   5    -84.6053588  0.430289E-07  0.782E-04    0.14      19.5  T
   6    -84.6053589 -0.674643E-07  0.263E-04    0.14      58.0  T
   7    -84.6053589 -0.907947E-08  0.624E-05    0.14     244.3  T
   8    -84.6053589 -0.407553E-09  0.245E-05    0.14     623.4  T
     SCC iter.                  ...        0 min,  0.029 sec
     gradient                   ...        0 min,  0.082 sec
 * total energy  :   -83.8520873 Eh     change       -0.3032361E-04 Eh
   gradient norm :     0.0026052 Eh/α   predicted     0.0000000E+00 (-100.00%)
   displ. norm   :     0.0265549 α      lambda       -0.1610914E-04
   maximum displ.:     0.0160519 α      in ANC's #7, #5, #3, ...

........................................................................
.............................. CYCLE   22 ..............................
........................................................................
   1    -84.6056176 -0.846056E+02  0.213E-03    0.14       0.0  T
   2    -84.6056156  0.203338E-05  0.442E-03    0.15       3.4  T
   3    -84.6056173 -0.170292E-05  0.208E-03    0.14       7.3  T
   4    -84.6056178 -0.556555E-06  0.934E-04    0.14      16.3  T
   5    -84.6056179 -0.770164E-07  0.353E-04    0.14      43.3  T
   6    -84.6056179 -0.894957E-08  0.481E-05    0.14     317.1  T
   7    -84.6056179 -0.101451E-09  0.957E-06    0.14    1594.1  T
     SCC iter.                  ...        0 min,  0.026 sec
     gradient                   ...        0 min,  0.082 sec
 * total energy  :   -83.8521030 Eh     change       -0.1568257E-04 Eh
   gradient norm :     0.0015009 Eh/α   predicted    -0.9251734E-05 ( -41.01%)
   displ. norm   :     0.1393699 α      lambda       -0.4160809E-04
   maximum displ.:     0.0814176 α      in ANC's #7, #5, #3, ...

........................................................................
.............................. CYCLE   23 ..............................
........................................................................
   1    -84.6059583 -0.846060E+02  0.107E-02    0.14       0.0  T
   2    -84.6058484  0.109872E-03  0.311E-02    0.16       1.0  T
   3    -84.6059667 -0.118248E-03  0.500E-03    0.14       3.1  T
   4    -84.6059675 -0.883205E-06  0.456E-03    0.15       3.3  T
   5    -84.6059696 -0.202271E-05  0.118E-03    0.14      12.9  T
   6    -84.6059696 -0.582652E-07  0.155E-04    0.14      98.7  T
   7    -84.6059696 -0.284047E-09  0.660E-05    0.14     231.1  T
     SCC iter.                  ...        0 min,  0.028 sec
     gradient                   ...        0 min,  0.082 sec
 * total energy  :   -83.8521288 Eh     change       -0.2583228E-04 Eh
   gradient norm :     0.0028235 Eh/α   predicted    -0.2098388E-04 ( -18.77%)
   displ. norm   :     0.0173365 α      lambda       -0.9455669E-05
   maximum displ.:     0.0089992 α      in ANC's #5, #3, #2, ...

........................................................................
.............................. CYCLE   24 ..............................
........................................................................
   1    -84.6058843 -0.846059E+02  0.129E-03    0.14       0.0  T
   2    -84.6058824  0.195158E-05  0.389E-03    0.15       3.9  T
   3    -84.6058844 -0.205832E-05  0.609E-04    0.14      25.0  T
   4    -84.6058845 -0.328953E-07  0.212E-04    0.14      71.9  T
   5    -84.6058845 -0.663562E-09  0.791E-05    0.14     192.8  T
   6    -84.6058845 -0.128395E-09  0.260E-05    0.14     587.1  T
     SCC iter.                  ...        0 min,  0.023 sec
     gradient                   ...        0 min,  0.082 sec
 * total energy  :   -83.8521371 Eh     change       -0.8301584E-05 Eh
   gradient norm :     0.0019669 Eh/α   predicted    -0.4729470E-05 ( -43.03%)
   displ. norm   :     0.1359636 α      lambda       -0.2856121E-04
   maximum displ.:     0.0701486 α      in ANC's #5, #3, #2, ...

........................................................................
.............................. CYCLE   25 ..............................
........................................................................
   1    -84.6053258 -0.846053E+02  0.789E-03    0.14       0.0  T
   2    -84.6052326  0.932242E-04  0.271E-02    0.16       1.0  T
   3    -84.6053325 -0.998766E-04  0.211E-03    0.14       7.2  T
   4    -84.6053325 -0.413153E-07  0.135E-03    0.14      11.3  T
   5    -84.6053326 -0.985247E-07  0.569E-04    0.14      26.8  T
   6    -84.6053326 -0.267006E-07  0.160E-04    0.14      95.5  T
   7    -84.6053326 -0.178007E-08  0.637E-05    0.14     239.5  T
     SCC iter.                  ...        0 min,  0.025 sec
     gradient                   ...        0 min,  0.082 sec
 * total energy  :   -83.8521562 Eh     change       -0.1908784E-04 Eh
   gradient norm :     0.0023075 Eh/α   predicted    -0.1440134E-04 ( -24.55%)
   displ. norm   :     0.0329117 α      lambda       -0.7706904E-05
   maximum displ.:     0.0171418 α      in ANC's #5, #3, #2, ...

........................................................................
.............................. CYCLE   26 ..............................
........................................................................
   1    -84.6053935 -0.846054E+02  0.108E-03    0.14       0.0  T
   2    -84.6053921  0.134014E-05  0.328E-03    0.14       4.6  T
   3    -84.6053935 -0.137802E-05  0.663E-04    0.14      23.0  T
   4    -84.6053936 -0.540007E-07  0.257E-04    0.14      59.4  T
   5    -84.6053936 -0.518972E-08  0.924E-05    0.14     165.0  T
   6    -84.6053936 -0.324945E-09  0.169E-05    0.14     902.9  T
     SCC iter.                  ...        0 min,  0.020 sec
     gradient                   ...        0 min,  0.044 sec
 * total energy  :   -83.8521633 Eh     change       -0.7055811E-05 Eh
   gradient norm :     0.0017575 Eh/α   predicted    -0.3858388E-05 ( -45.32%)
   displ. norm   :     0.2298590 α      lambda       -0.3109778E-04
   maximum displ.:     0.1175422 α      in ANC's #5, #3, #2, ...

........................................................................
.............................. CYCLE   27 ..............................
........................................................................
   1    -84.6054479 -0.846054E+02  0.586E-03    0.14       0.0  T
   2    -84.6054148  0.331029E-04  0.164E-02    0.15       1.0  T
   3    -84.6054490 -0.341497E-04  0.353E-03    0.14       4.3  T
   4    -84.6054504 -0.144793E-05  0.148E-03    0.14      10.3  T
   5    -84.6054506 -0.193623E-06  0.429E-04    0.14      35.5  T
   6    -84.6054506 -0.186836E-08  0.108E-04    0.14     140.6  T
   7    -84.6054506 -0.269864E-09  0.282E-05    0.14     540.7  T
     SCC iter.                  ...        0 min,  0.019 sec
     gradient                   ...        0 min,  0.044 sec
 * total energy  :   -83.8521884 Eh     change       -0.2513443E-04 Eh
   gradient norm :     0.0018177 Eh/α   predicted    -0.1591419E-04 ( -36.68%)
   displ. norm   :     0.1196345 α      lambda       -0.9884940E-05
   maximum displ.:     0.0614556 α      in ANC's #5, #3, #2, ...

........................................................................
.............................. CYCLE   28 ..............................
........................................................................
   1    -84.6053407 -0.846053E+02  0.169E-03    0.14       0.0  T
   2    -84.6053396  0.107490E-05  0.310E-03    0.14       4.9  T
   3    -84.6053402 -0.625939E-06  0.213E-03    0.14       7.2  T
   4    -84.6053409 -0.609640E-06  0.333E-04    0.14      45.9  T
   5    -84.6053409 -0.402098E-08  0.158E-04    0.14      96.7  T
   6    -84.6053409 -0.425629E-09  0.412E-05    0.14     369.7  T
     SCC iter.                  ...        0 min,  0.021 sec
     gradient                   ...        0 min,  0.082 sec
 * total energy  :   -83.8522007 Eh     change       -0.1236070E-04 Eh
   gradient norm :     0.0015192 Eh/α   predicted    -0.4976233E-05 ( -59.74%)
   displ. norm   :     0.2681679 α      lambda       -0.2236817E-04
   maximum displ.:     0.1332417 α      in ANC's #5, #3, #2, ...

........................................................................
.............................. CYCLE   29 ..............................
........................................................................
   1    -84.6050964 -0.846051E+02  0.110E-02    0.15       0.0  T
   2    -84.6047034  0.393013E-03  0.539E-02    0.12       1.0  T
   3    -84.6051098 -0.406411E-03  0.367E-03    0.14       4.2  T
   4    -84.6051115 -0.162721E-05  0.892E-04    0.14      17.1  T
   5    -84.6051114  0.506506E-07  0.768E-04    0.14      19.9  T
   6    -84.6051115 -0.516783E-07  0.162E-04    0.14      94.2  T
   7    -84.6051115 -0.303721E-08  0.396E-05    0.14     385.3  T
     SCC iter.                  ...        0 min,  0.024 sec
     gradient                   ...        0 min,  0.082 sec
 * total energy  :   -83.8522224 Eh     change       -0.2160674E-04 Eh
   gradient norm :     0.0012311 Eh/α   predicted    -0.1154457E-04 ( -46.57%)
   displ. norm   :     0.1685843 α      lambda       -0.1122848E-04
   maximum displ.:     0.0804645 α      in ANC's #5, #1, #3, ...

........................................................................
.............................. CYCLE   30 ..............................
........................................................................
   1    -84.6052570 -0.846053E+02  0.114E-02    0.15       0.0  T
   2    -84.6048257  0.431314E-03  0.565E-02    0.12       1.0  T
   3    -84.6052720 -0.446264E-03  0.375E-03    0.15       4.1  T
   4    -84.6052737 -0.170322E-05  0.799E-04    0.14      19.1  T
   5    -84.6052737  0.448521E-07  0.752E-04    0.14      20.3  T
   6    -84.6052737 -0.456238E-07  0.284E-04    0.14      53.7  T
   7    -84.6052737 -0.108521E-07  0.257E-05    0.14     593.2  T
   8    -84.6052737  0.909495E-12  0.103E-05    0.14    1479.1  T
     SCC iter.                  ...        0 min,  0.028 sec
     gradient                   ...        0 min,  0.082 sec
 * total energy  :   -83.8522340 Eh     change       -0.1169380E-04 Eh
   gradient norm :     0.0012354 Eh/α   predicted    -0.5686713E-05 ( -51.37%)
   displ. norm   :     0.1416347 α      lambda       -0.9791752E-05
   maximum displ.:     0.0635699 α      in ANC's #1, #5, #4, ...

........................................................................
.............................. CYCLE   31 ..............................
........................................................................
   1    -84.6054706 -0.846055E+02  0.100E-02    0.15       0.0  T
   2    -84.6051630  0.307574E-03  0.478E-02    0.12       1.0  T
   3    -84.6054823 -0.319314E-03  0.309E-03    0.15       4.9  T
   4    -84.6054834 -0.107865E-05  0.732E-04    0.14      20.8  T
   5    -84.6054834  0.216760E-07  0.559E-04    0.14      27.3  T
   6    -84.6054834 -0.148970E-07  0.271E-04    0.14      56.3  T
   7    -84.6054834 -0.979273E-08  0.248E-05    0.14     616.1  T
   8    -84.6054834 -0.113118E-10  0.738E-06    0.14    2066.9  T
     SCC iter.                  ...        0 min,  0.028 sec
     gradient                   ...        0 min,  0.082 sec
 * total energy  :   -83.8522454 Eh     change       -0.1140061E-04 Eh
   gradient norm :     0.0011482 Eh/α   predicted    -0.4943227E-05 ( -56.64%)
   displ. norm   :     0.1658030 α      lambda       -0.1262146E-04
   maximum displ.:     0.0780721 α      in ANC's #1, #4, #5, ...

........................................................................
.............................. CYCLE   32 ..............................
........................................................................
   1    -84.6056404 -0.846056E+02  0.903E-03    0.15       0.0  T
   2    -84.6054539  0.186542E-03  0.376E-02    0.13       1.0  T
   3    -84.6056478 -0.193939E-03  0.396E-03    0.15       3.9  T
   4    -84.6056497 -0.184722E-05  0.885E-04    0.15      17.2  T
   5    -84.6056496  0.133626E-07  0.533E-04    0.15      28.6  T
   6    -84.6056497 -0.108147E-07  0.208E-04    0.15      73.3  T
   7    -84.6056497 -0.508881E-08  0.254E-05    0.15     600.4  T
   8    -84.6056497 -0.109424E-10  0.890E-06    0.15    1714.3  T
     SCC iter.                  ...        0 min,  0.029 sec
     gradient                   ...        0 min,  0.082 sec
 * total energy  :   -83.8522597 Eh     change       -0.1426143E-04 Eh
   gradient norm :     0.0012585 Eh/α   predicted    -0.6390825E-05 ( -55.19%)
   displ. norm   :     0.1752897 α      lambda       -0.1331273E-04
   maximum displ.:     0.0857774 α      in ANC's #1, #4, #8, ...

........................................................................
.............................. CYCLE   33 ..............................
........................................................................
   1    -84.6057551 -0.846058E+02  0.566E-03    0.15       0.0  T
   2    -84.6057339  0.212761E-04  0.134E-02    0.14       1.1  T
   3    -84.6057532 -0.193366E-04  0.563E-03    0.15       2.7  T
   4    -84.6057575 -0.428279E-05  0.854E-04    0.15      17.9  T
   5    -84.6057575 -0.809267E-08  0.374E-04    0.15      40.8  T
   6    -84.6057575 -0.118419E-09  0.956E-05    0.15     159.6  T
   7    -84.6057575 -0.693049E-09  0.195E-05    0.15     783.7  T
     SCC iter.                  ...        0 min,  0.025 sec
     gradient                   ...        0 min,  0.082 sec
 * total energy  :   -83.8522758 Eh     change       -0.1604716E-04 Eh
   gradient norm :     0.0014711 Eh/α   predicted    -0.6747897E-05 ( -57.95%)
   displ. norm   :     0.3016676 α      lambda       -0.2226599E-04
   maximum displ.:     0.1536904 α      in ANC's #4, #1, #8, ...

........................................................................
.............................. CYCLE   34 ..............................
........................................................................
   1    -84.6053950 -0.846054E+02  0.844E-03    0.15       0.0  T
   2    -84.6053708  0.241821E-04  0.152E-02    0.14       1.0  T
   3    -84.6053854 -0.145698E-04  0.101E-02    0.15       1.5  T
   4    -84.6053994 -0.139736E-04  0.149E-03    0.15      10.2  T
   5    -84.6053994 -0.371167E-07  0.616E-04    0.15      24.8  T
   6    -84.6053994 -0.387874E-08  0.814E-05    0.15     187.4  T
   7    -84.6053994 -0.167148E-09  0.253E-05    0.15     602.3  T
     SCC iter.                  ...        0 min,  0.025 sec
     gradient                   ...        0 min,  0.082 sec
 * total energy  :   -83.8522966 Eh     change       -0.2083443E-04 Eh
   gradient norm :     0.0029880 Eh/α   predicted    -0.1158532E-04 ( -44.39%)
   displ. norm   :     0.1126143 α      lambda       -0.2909767E-04
   maximum displ.:     0.0493356 α      in ANC's #4, #6, #1, ...

........................................................................
.............................. CYCLE   35 ..............................
........................................................................
   1    -84.6065983 -0.846066E+02  0.877E-03    0.14       0.0  T
   2    -84.6064691  0.129148E-03  0.320E-02    0.17       1.0  T
   3    -84.6066080 -0.138879E-03  0.289E-03    0.15       5.3  T
   4    -84.6066088 -0.783243E-06  0.102E-03    0.15      14.9  T
   5    -84.6066088 -0.112337E-07  0.354E-04    0.15      43.0  T
   6    -84.6066088  0.186162E-09  0.161E-04    0.15      94.6  T
   7    -84.6066088 -0.209141E-08  0.409E-05    0.15     372.8  T
     SCC iter.                  ...        0 min,  0.026 sec
     gradient                   ...        0 min,  0.082 sec
 * total energy  :   -83.8523143 Eh     change       -0.1768821E-04 Eh
   gradient norm :     0.0024816 Eh/α   predicted    -0.1473418E-04 ( -16.70%)
   displ. norm   :     0.1528323 α      lambda       -0.2668473E-04
   maximum displ.:     0.0885520 α      in ANC's #4, #1, #8, ...

........................................................................
.............................. CYCLE   36 ..............................
........................................................................
   1    -84.6062405 -0.846062E+02  0.377E-03    0.15       0.0  T
   2    -84.6062315  0.898509E-05  0.854E-03    0.15       1.8  T
   3    -84.6062409 -0.940354E-05  0.230E-03    0.15       6.6  T
   4    -84.6062415 -0.580119E-06  0.872E-04    0.15      17.5  T
   5    -84.6062415 -0.307467E-07  0.299E-04    0.15      51.1  T
   6    -84.6062415 -0.245286E-08  0.863E-05    0.15     176.8  T
   7    -84.6062415 -0.198639E-09  0.171E-05    0.15     893.8  T
     SCC iter.                  ...        0 min,  0.026 sec
     gradient                   ...        0 min,  0.083 sec
 * total energy  :   -83.8523369 Eh     change       -0.2262010E-04 Eh
   gradient norm :     0.0024490 Eh/α   predicted    -0.1365423E-04 ( -39.64%)
   displ. norm   :     0.2578112 α      lambda       -0.6247521E-04
   maximum displ.:     0.1552941 α      in ANC's #4, #1, #12, ...

........................................................................
.............................. CYCLE   37 ..............................
........................................................................
   1    -84.6056871 -0.846057E+02  0.706E-03    0.15       0.0  T
   2    -84.6056781  0.894227E-05  0.936E-03    0.15       1.6  T
   3    -84.6056773  0.806087E-06  0.933E-03    0.14       1.6  T
   4    -84.6056891 -0.117929E-04  0.212E-03    0.15       7.2  T
   5    -84.6056894 -0.310684E-06  0.580E-04    0.15      26.3  T
   6    -84.6056895 -0.183966E-07  0.151E-04    0.15     101.0  T
   7    -84.6056895 -0.108531E-08  0.297E-05    0.15     513.3  T
     SCC iter.                  ...        0 min,  0.028 sec
     gradient                   ...        0 min,  0.082 sec
 * total energy  :   -83.8523792 Eh     change       -0.4231568E-04 Eh
   gradient norm :     0.0030805 Eh/α   predicted    -0.3331580E-04 ( -21.27%)
   displ. norm   :     0.1152553 α      lambda       -0.3123752E-04
   maximum displ.:     0.0673990 α      in ANC's #4, #1, #12, ...

........................................................................
.............................. CYCLE   38 ..............................
........................................................................
   1    -84.6059019 -0.846059E+02  0.556E-03    0.15       0.0  T
   2    -84.6058791  0.227701E-04  0.133E-02    0.14       1.1  T
   3    -84.6058994 -0.203325E-04  0.575E-03    0.15       2.7  T
   4    -84.6059036 -0.420510E-05  0.113E-03    0.15      13.5  T
   5    -84.6059037 -0.859750E-07  0.186E-04    0.15      81.8  T
   6    -84.6059037 -0.635097E-09  0.471E-05    0.15     323.8  T
     SCC iter.                  ...        0 min,  0.023 sec
     gradient                   ...        0 min,  0.082 sec
 * total energy  :   -83.8524018 Eh     change       -0.2261709E-04 Eh
   gradient norm :     0.0028359 Eh/α   predicted    -0.1583114E-04 ( -30.00%)
   displ. norm   :     0.2027525 α      lambda       -0.3842860E-04
   maximum displ.:     0.1290875 α      in ANC's #4, #1, #12, ...

........................................................................
.............................. CYCLE   39 ..............................
........................................................................
   1    -84.6057158 -0.846057E+02  0.188E-02    0.16       0.0  T
   2    -84.6046734  0.104242E-02  0.879E-02    0.11       1.0  T
   3    -84.6057453 -0.107187E-02  0.863E-03    0.15       1.8  T
   4    -84.6057551 -0.980776E-05  0.227E-03    0.15       6.7  T
   5    -84.6057555 -0.405737E-06  0.938E-04    0.15      16.3  T
   6    -84.6057555  0.185748E-07  0.761E-04    0.15      20.1  T
   7    -84.6057556 -0.798600E-07  0.527E-05    0.15     289.2  T
   8    -84.6057556 -0.300346E-09  0.149E-05    0.15    1021.5  T
     SCC iter.                  ...        0 min,  0.030 sec
     gradient                   ...        0 min,  0.082 sec
 * total energy  :   -83.8524223 Eh     change       -0.2048003E-04 Eh
   gradient norm :     0.0038798 Eh/α   predicted    -0.2000771E-04 (  -2.31%)
   displ. norm   :     0.1162375 α      lambda       -0.5756916E-04
   maximum displ.:     0.0567531 α      in ANC's #2, #5, #6, ...

........................................................................
.............................. CYCLE   40 ..............................
........................................................................
   1    -84.6073622 -0.846074E+02  0.171E-02    0.16       0.0  T
   2    -84.6064792  0.883001E-03  0.806E-02    0.12       1.0  T
   3    -84.6073933 -0.914165E-03  0.555E-03    0.15       2.7  T
   4    -84.6073967 -0.333315E-05  0.179E-03    0.15       8.5  T
   5    -84.6073966  0.524301E-07  0.112E-03    0.15      13.6  T
   6    -84.6073967 -0.133783E-06  0.239E-04    0.15      63.7  T
   7    -84.6073967 -0.685725E-08  0.316E-05    0.15     482.1  T
   8    -84.6073967 -0.529923E-10  0.150E-05    0.15    1013.6  T
     SCC iter.                  ...        0 min,  0.028 sec
     gradient                   ...        0 min,  0.082 sec
 * total energy  :   -83.8524352 Eh     change       -0.1286009E-04 Eh
   gradient norm :     0.0029740 Eh/α   predicted    -0.2917756E-04 ( 126.88%)
   displ. norm   :     0.0839201 α      lambda       -0.3243282E-04
   maximum displ.:     0.0461542 α      in ANC's #4, #1, #8, ...

........................................................................
.............................. CYCLE   41 ..............................
........................................................................
   1    -84.6068294 -0.846068E+02  0.477E-03    0.15       0.0  T
   2    -84.6068119  0.174954E-04  0.122E-02    0.14       1.2  T
   3    -84.6068297 -0.177651E-04  0.349E-03    0.15       4.4  T
   4    -84.6068312 -0.148420E-05  0.104E-03    0.15      14.7  T
   5    -84.6068312 -0.369876E-07  0.334E-04    0.15      45.7  T
   6    -84.6068312 -0.151090E-09  0.626E-05    0.15     243.7  T
   7    -84.6068312 -0.183903E-09  0.119E-05    0.15    1286.7  T
     SCC iter.                  ...        0 min,  0.025 sec
     gradient                   ...        0 min,  0.082 sec
 * total energy  :   -83.8524590 Eh     change       -0.2386876E-04 Eh
   gradient norm :     0.0018876 Eh/α   predicted    -0.1633620E-04 ( -31.56%)
   displ. norm   :     0.1947300 α      lambda       -0.3173019E-04
   maximum displ.:     0.1170306 α      in ANC's #4, #1, #9, ...

........................................................................
.............................. CYCLE   42 ..............................
........................................................................
   1    -84.6057942 -0.846058E+02  0.154E-02    0.16       0.0  T
   2    -84.6052233  0.570923E-03  0.661E-02    0.12       1.0  T
   3    -84.6058181 -0.594881E-03  0.597E-03    0.15       2.6  T
   4    -84.6058224 -0.428155E-05  0.166E-03    0.15       9.2  T
   5    -84.6058222  0.199912E-06  0.144E-03    0.15      10.6  T
   6    -84.6058224 -0.203431E-06  0.248E-04    0.15      61.5  T
   7    -84.6058224 -0.657758E-08  0.441E-05    0.15     346.1  T
   8    -84.6058224 -0.116557E-09  0.142E-05    0.15    1073.5  T
     SCC iter.                  ...        0 min,  0.030 sec
     gradient                   ...        0 min,  0.082 sec
 * total energy  :   -83.8524829 Eh     change       -0.2388005E-04 Eh
   gradient norm :     0.0033570 Eh/α   predicted    -0.1613597E-04 ( -32.43%)
   displ. norm   :     0.0491129 α      lambda       -0.2217518E-04
   maximum displ.:     0.0225169 α      in ANC's #6, #2, #9, ...
 * RMSD in coord.:     0.3668723 α      energy gain  -0.4259530E-03 Eh

generating ANC from model Hessian ...
Using Lindh-Hessian (1995)
 Shifting diagonal of input Hessian by   9.840352549010183E-003
 Lowest  eigenvalues of input Hessian
    0.000000    0.000000    0.000000    0.000000    0.000000    0.000000
    0.010000    0.010168    0.010725    0.010924    0.011476    0.012213
    0.012396    0.013380    0.014241    0.014708    0.015317    0.016457
 Highest eigenvalues
    2.034495    2.072532    2.122100    2.130877    2.266835    2.408995
 

........................................................................
.............................. CYCLE   43 ..............................
........................................................................
   1    -84.6061794 -0.846062E+02  0.231E-03    0.15       0.0  T
   2    -84.6061775  0.188863E-05  0.428E-03    0.15       3.6  T
   3    -84.6061795 -0.199258E-05  0.153E-03    0.15      10.0  T
   4    -84.6061796 -0.138469E-06  0.926E-04    0.15      16.5  T
   5    -84.6061797 -0.495363E-07  0.180E-04    0.15      84.9  T
   6    -84.6061797 -0.193040E-09  0.493E-05    0.15     309.4  T
     SCC iter.                  ...        0 min,  0.021 sec
     gradient                   ...        0 min,  0.081 sec
 * total energy  :   -83.8524987 Eh     change       -0.1580588E-04 Eh
   gradient norm :     0.0020563 Eh/α   predicted     0.0000000E+00 (-100.00%)
   displ. norm   :     0.0216789 α      lambda       -0.1159199E-04
   maximum displ.:     0.0116931 α      in ANC's #6, #2, #4, ...

........................................................................
.............................. CYCLE   44 ..............................
........................................................................
   1    -84.6064138 -0.846064E+02  0.149E-03    0.15       0.0  T
   2    -84.6064138 -0.577487E-07  0.706E-04    0.15      21.6  T
   3    -84.6064138  0.448512E-07  0.770E-04    0.15      19.8  T
   4    -84.6064138  0.915746E-08  0.749E-04    0.15      20.4  T
   5    -84.6064139 -0.635827E-07  0.150E-04    0.15     101.6  T
   6    -84.6064139 -0.212479E-08  0.190E-05    0.15     803.9  T
     SCC iter.                  ...        0 min,  0.021 sec
     gradient                   ...        0 min,  0.082 sec
 * total energy  :   -83.8525078 Eh     change       -0.9037734E-05 Eh
   gradient norm :     0.0008659 Eh/α   predicted    -0.6003493E-05 ( -33.57%)
   displ. norm   :     0.0706265 α      lambda       -0.1279715E-04
   maximum displ.:     0.0412155 α      in ANC's #6, #2, #4, ...

........................................................................
.............................. CYCLE   45 ..............................
........................................................................
   1    -84.6067999 -0.846068E+02  0.292E-03    0.15       0.0  T
   2    -84.6068000 -0.176985E-06  0.147E-03    0.15      10.4  T
   3    -84.6067996  0.433411E-06  0.205E-03    0.15       7.4  T
   4    -84.6068000 -0.360693E-06  0.127E-03    0.15      12.0  T
   5    -84.6068001 -0.160072E-06  0.257E-04    0.15      59.3  T
   6    -84.6068001 -0.372960E-08  0.514E-05    0.15     296.7  T
   7    -84.6068001 -0.180620E-09  0.158E-05    0.15     964.6  T
     SCC iter.                  ...        0 min,  0.024 sec
     gradient                   ...        0 min,  0.082 sec
 * total energy  :   -83.8525191 Eh     change       -0.1132922E-04 Eh
   gradient norm :     0.0015986 Eh/α   predicted    -0.6413235E-05 ( -43.39%)
   displ. norm   :     0.0591016 α      lambda       -0.7641156E-05
   maximum displ.:     0.0328660 α      in ANC's #6, #2, #4, ...

........................................................................
.............................. CYCLE   46 ..............................
........................................................................
   1    -84.6067416 -0.846067E+02  0.149E-03    0.15       0.0  T
   2    -84.6067399  0.166700E-05  0.365E-03    0.15       4.2  T
   3    -84.6067416 -0.167534E-05  0.106E-03    0.15      14.4  T
   4    -84.6067417 -0.139994E-06  0.213E-04    0.15      71.4  T
   5    -84.6067417 -0.102858E-09  0.726E-05    0.15     210.1  T
   6    -84.6067417 -0.876810E-10  0.284E-05    0.15     537.0  T
     SCC iter.                  ...        0 min,  0.021 sec
     gradient                   ...        0 min,  0.082 sec
 * total energy  :   -83.8525294 Eh     change       -0.1031439E-04 Eh
   gradient norm :     0.0014742 Eh/α   predicted    -0.3864723E-05 ( -62.53%)
   displ. norm   :     0.1363067 α      lambda       -0.1695304E-04
   maximum displ.:     0.0766844 α      in ANC's #2, #6, #4, ...

........................................................................
.............................. CYCLE   47 ..............................
........................................................................
   1    -84.6063630 -0.846064E+02  0.497E-03    0.15       0.0  T
   2    -84.6063263  0.367352E-04  0.169E-02    0.14       1.0  T
   3    -84.6063651 -0.388086E-04  0.187E-03    0.15       8.2  T
   4    -84.6063655 -0.381542E-06  0.590E-04    0.15      25.8  T
   5    -84.6063655 -0.316632E-09  0.174E-04    0.15      87.5  T
   6    -84.6063655 -0.713698E-09  0.406E-05    0.15     375.7  T
     SCC iter.                  ...        0 min,  0.021 sec
     gradient                   ...        0 min,  0.082 sec
 * total energy  :   -83.8525493 Eh     change       -0.1988895E-04 Eh
   gradient norm :     0.0010513 Eh/α   predicted    -0.8546986E-05 ( -57.03%)
   displ. norm   :     0.1942397 α      lambda       -0.1725938E-04
   maximum displ.:     0.1115791 α      in ANC's #2, #4, #6, ...

........................................................................
.............................. CYCLE   48 ..............................
........................................................................
   1    -84.6058841 -0.846059E+02  0.775E-03    0.16       0.0  T
   2    -84.6057822  0.101842E-03  0.281E-02    0.14       1.0  T
   3    -84.6058893 -0.107125E-03  0.282E-03    0.15       5.4  T
   4    -84.6058903 -0.967692E-06  0.800E-04    0.15      19.1  T
   5    -84.6058903 -0.295930E-08  0.295E-04    0.15      51.7  T
   6    -84.6058903 -0.232589E-09  0.965E-05    0.15     158.0  T
   7    -84.6058903 -0.503448E-09  0.357E-05    0.15     427.6  T
     SCC iter.                  ...        0 min,  0.026 sec
     gradient                   ...        0 min,  0.081 sec
 * total energy  :   -83.8525681 Eh     change       -0.1881968E-04 Eh
   gradient norm :     0.0022168 Eh/α   predicted    -0.8775405E-05 ( -53.37%)
   displ. norm   :     0.1039650 α      lambda       -0.1362266E-04
   maximum displ.:     0.0612920 α      in ANC's #2, #4, #6, ...

........................................................................
.............................. CYCLE   49 ..............................
........................................................................
   1    -84.6058642 -0.846059E+02  0.442E-03    0.15       0.0  T
   2    -84.6058340  0.302431E-04  0.154E-02    0.14       1.0  T
   3    -84.6058660 -0.320442E-04  0.143E-03    0.15      10.7  T
   4    -84.6058663 -0.265774E-06  0.370E-04    0.15      41.2  T
   5    -84.6058663 -0.428376E-08  0.153E-04    0.15     100.0  T
   6    -84.6058663 -0.161265E-09  0.567E-05    0.15     268.9  T
     SCC iter.                  ...        0 min,  0.021 sec
     gradient                   ...        0 min,  0.081 sec
 * total energy  :   -83.8525798 Eh     change       -0.1167587E-04 Eh
   gradient norm :     0.0023918 Eh/α   predicted    -0.6895668E-05 ( -40.94%)
   displ. norm   :     0.1726306 α      lambda       -0.2700710E-04
   maximum displ.:     0.1043267 α      in ANC's #2, #4, #6, ...

........................................................................
.............................. CYCLE   50 ..............................
........................................................................
   1    -84.6060147 -0.846060E+02  0.747E-03    0.16       0.0  T
   2    -84.6059293  0.854282E-04  0.259E-02    0.14       1.0  T
   3    -84.6060191 -0.898256E-04  0.303E-03    0.15       5.0  T
   4    -84.6060204 -0.125638E-05  0.553E-04    0.15      27.6  T
   5    -84.6060204 -0.257259E-08  0.287E-04    0.15      53.1  T
   6    -84.6060204 -0.170672E-08  0.130E-04    0.15     116.9  T
   7    -84.6060204 -0.154249E-08  0.224E-05    0.15     681.5  T
     SCC iter.                  ...        0 min,  0.024 sec
     gradient                   ...        0 min,  0.082 sec
 * total energy  :   -83.8526018 Eh     change       -0.2202287E-04 Eh
   gradient norm :     0.0021430 Eh/α   predicted    -0.1390679E-04 ( -36.85%)
   displ. norm   :     0.2222607 α      lambda       -0.3180491E-04
   maximum displ.:     0.1374155 α      in ANC's #2, #4, #6, ...

........................................................................
.............................. CYCLE   51 ..............................
........................................................................
   1    -84.6060802 -0.846061E+02  0.943E-03    0.16       0.0  T
   2    -84.6059569  0.123323E-03  0.312E-02    0.14       1.0  T
   3    -84.6060856 -0.128727E-03  0.464E-03    0.16       3.3  T
   4    -84.6060886 -0.300930E-05  0.720E-04    0.15      21.2  T
   5    -84.6060886  0.474796E-08  0.450E-04    0.15      33.9  T
   6    -84.6060886 -0.606731E-08  0.222E-04    0.15      68.7  T
   7    -84.6060886 -0.514005E-08  0.330E-05    0.15     462.2  T
   8    -84.6060886 -0.910063E-10  0.975E-06    0.15    1563.9  T
     SCC iter.                  ...        0 min,  0.028 sec
     gradient                   ...        0 min,  0.082 sec
 * total energy  :   -83.8526252 Eh     change       -0.2340515E-04 Eh
   gradient norm :     0.0019322 Eh/α   predicted    -0.1668878E-04 ( -28.70%)
   displ. norm   :     0.2505510 α      lambda       -0.2161384E-04
   maximum displ.:     0.1605464 α      in ANC's #2, #4, #6, ...

........................................................................
.............................. CYCLE   52 ..............................
........................................................................
   1    -84.6063908 -0.846064E+02  0.989E-03    0.16       0.0  T
   2    -84.6062932  0.975648E-04  0.282E-02    0.14       1.0  T
   3    -84.6063928 -0.995828E-04  0.646E-03    0.16       2.4  T
   4    -84.6063987 -0.589061E-05  0.874E-04    0.15      17.4  T
   5    -84.6063987  0.873706E-08  0.546E-04    0.15      27.9  T
   6    -84.6063987 -0.102394E-07  0.267E-04    0.15      57.1  T
   7    -84.6063987 -0.754810E-08  0.374E-05    0.15     408.0  T
   8    -84.6063987 -0.102261E-09  0.130E-05    0.15    1170.3  T
     SCC iter.                  ...        0 min,  0.029 sec
     gradient                   ...        0 min,  0.082 sec
 * total energy  :   -83.8526450 Eh     change       -0.1973134E-04 Eh
   gradient norm :     0.0013511 Eh/α   predicted    -0.1110889E-04 ( -43.70%)
   displ. norm   :     0.1408613 α      lambda       -0.9178247E-05
   maximum displ.:     0.0889481 α      in ANC's #2, #4, #1, ...

........................................................................
.............................. CYCLE   53 ..............................
........................................................................
   1    -84.6062928 -0.846063E+02  0.479E-03    0.15       0.0  T
   2    -84.6062796  0.132905E-04  0.107E-02    0.15       1.4  T
   3    -84.6062920 -0.124886E-04  0.407E-03    0.16       3.8  T
   4    -84.6062944 -0.233484E-05  0.513E-04    0.15      29.7  T
   5    -84.6062944 -0.873754E-09  0.268E-04    0.15      56.8  T
   6    -84.6062944 -0.228772E-08  0.858E-05    0.15     177.8  T
   7    -84.6062944 -0.551807E-09  0.196E-05    0.15     777.4  T
     SCC iter.                  ...        0 min,  0.025 sec
     gradient                   ...        0 min,  0.082 sec
 * total energy  :   -83.8526564 Eh     change       -0.1141187E-04 Eh
   gradient norm :     0.0012011 Eh/α   predicted    -0.4643328E-05 ( -59.31%)
   displ. norm   :     0.3088162 α      lambda       -0.2975459E-04
   maximum displ.:     0.1928074 α      in ANC's #2, #4, #1, ...

........................................................................
.............................. CYCLE   54 ..............................
........................................................................
   1    -84.6070108 -0.846070E+02  0.941E-03    0.15       0.0  T
   2    -84.6070070  0.375682E-05  0.865E-03    0.15       1.8  T
   3    -84.6070003  0.667265E-05  0.103E-02    0.16       1.5  T
   4    -84.6070145 -0.141839E-04  0.152E-03    0.15      10.0  T
   5    -84.6070146 -0.430981E-07  0.560E-04    0.15      27.2  T
   6    -84.6070146 -0.489480E-08  0.144E-04    0.15     105.9  T
   7    -84.6070146 -0.107492E-08  0.384E-05    0.15     396.7  T
     SCC iter.                  ...        0 min,  0.025 sec
     gradient                   ...        0 min,  0.082 sec
 * total energy  :   -83.8526776 Eh     change       -0.2123741E-04 Eh
   gradient norm :     0.0021193 Eh/α   predicted    -0.1550910E-04 ( -26.97%)
   displ. norm   :     0.3157230 α      lambda       -0.2789181E-04
   maximum displ.:     0.1951780 α      in ANC's #2, #4, #1, ...

........................................................................
.............................. CYCLE   55 ..............................
........................................................................
   1    -84.6054080 -0.846054E+02  0.130E-02    0.16       0.0  T
   2    -84.6052957  0.112258E-03  0.309E-02    0.14       1.0  T
   3    -84.6054045 -0.108809E-03  0.105E-02    0.16       1.4  T
   4    -84.6054190 -0.145030E-04  0.228E-03    0.15       6.7  T
   5    -84.6054190  0.132652E-07  0.959E-04    0.15      15.9  T
   6    -84.6054190 -0.408503E-07  0.262E-04    0.15      58.1  T
   7    -84.6054191 -0.404793E-08  0.971E-05    0.15     157.1  T
   8    -84.6054191 -0.109492E-08  0.143E-05    0.15    1064.1  T
     SCC iter.                  ...        0 min,  0.028 sec
     gradient                   ...        0 min,  0.082 sec
 * total energy  :   -83.8526650 Eh     change        0.1257164E-04 Eh
   gradient norm :     0.0045246 Eh/α   predicted    -0.1533641E-04 (-221.99%)
   displ. norm   :     0.2077940 α      lambda       -0.5490700E-04
   maximum displ.:     0.1310483 α      in ANC's #2, #4, #1, ...

........................................................................
.............................. CYCLE   56 ..............................
........................................................................
   1    -84.6066984 -0.846067E+02  0.770E-03    0.15       0.0  T
   2    -84.6066886  0.976906E-05  0.106E-02    0.16       1.4  T
[...]
 N  N  Rav=1.3655 sigma=0.0000  Rmin=1.3655  Rmax=1.3655     1
 O  H  Rav=1.0102 sigma=0.0000  Rmin=1.0102  Rmax=1.0102     1
 O  C  Rav=1.3526 sigma=0.0628  Rmin=1.2257  Rmax=1.4200     9
 
 selected bond angles (degree)
 --------------------
H26-C1-O2=107.22               H27-C1-O2=111.28               H27-C1-H26=109.26              H28-C1-O2=111.34               
H28-C1-H26=109.26              H28-C1-H27=108.45              C3-O2-C1=114.97                O4-C3-O2=118.72                
C5-C3-O2=115.85                C5-C3-O4=125.43                C6-C5-C3=120.78                N25-C5-C3=121.33               
N25-C5-C6=117.74               O7-C6-C5=118.09                C8-C6-C5=119.61                C8-C6-O7=122.23                
H29-O7-C6=105.18               O9-C8-C6=128.34                N11-C8-C6=120.20               N11-C8-O9=111.34               
C10-O9-C8=116.63               H30-C10-O9=111.41              H31-C10-O9=111.26              H31-C10-H30=108.93             
H32-C10-O9=106.89              H32-C10-H30=109.11             H32-C10-H31=109.19             
 
 selected dihedral angles (degree)
 ---------------------------------
C3-O2-C1-H26=180.24           C3-O2-C1-H27=299.67           C3-O2-C1-H28= 60.79           O4-C3-O2-C1=358.82            
C5-C3-O2-C1=179.35            C6-C5-C3-O2=181.50            C6-C5-C3-O4=  2.07            N25-C5-C3-O2=357.07           
N25-C5-C3-O4=177.64           O7-C6-C5-C3=  2.46            O7-C6-C5-N25=186.74           C8-C6-C5-C3=179.42            
C8-C6-C5-N25=  3.69           H29-O7-C6-C5=357.28           H29-O7-C6-C8=180.41           O9-C8-C6-C5=182.33            
O9-C8-C6-O7=359.15            N11-C8-C6-C5=  6.57           N11-C8-C6-O7=183.40           C10-O9-C8-C6= 44.49           
C10-O9-C8-N11=220.56          H30-C10-O9-C8=284.12          H31-C10-O9-C8= 45.89          H32-C10-O9-C8=165.01          
           -------------------------------------------------
          |                Final Singlepoint                |
           -------------------------------------------------

          ...................................................
          :                      SETUP                      :
          :.................................................:
          :  # basis functions                 136          :
          :  # atomic orbitals                 136          :
          :  # shells                           86          :
          :  # electrons                       136          :
          :  # halogen bonds                     0          :
          :  max. iterations                   250          :
          :  Hamiltonian                  GFN1-xTB          :
          :  restarted?                      false          :
          :  GBSA solvation                   true          :
          :  PC potential                    false          :
          :  electronic temp.          300.0000000     K    :
          :  accuracy                    1.0000000          :
          :  -> integral cutoff          0.2500000E+02      :
          :  -> integral neglect         0.1000000E-07      :
          :  -> SCF convergence          0.1000000E-05 Eh   :
          :  -> wf. convergence          0.2000000E-04 e    :
          :  Broyden damping             0.4000000          :
          ...................................................

 iter      E             dE          RMSdq      gap      omega  full diag
   1    -84.6068520 -0.846069E+02  0.147E-05    0.16       0.0  T
   2    -84.6068520  0.147793E-11  0.107E-05    0.16    1429.1  T
   3    -84.6068520  0.177636E-10  0.138E-05    0.16    1102.8  T

   *** convergence criteria satisfied after 3 iterations ***

         #    Occupation            Energy/Eh            Energy/eV
      -------------------------------------------------------------
         1        2.0000           -0.8508182             -23.1519
       ...           ...                  ...                  ...
        62        2.0000           -0.4376878             -11.9101
        63        2.0000           -0.4284350             -11.6583
        64        2.0000           -0.4222818             -11.4909
        65        2.0000           -0.4069330             -11.0732
        66        2.0000           -0.3861538             -10.5078
        67        2.0000           -0.3808852             -10.3644
        68        1.9063           -0.3026349              -8.2351 (HOMO)
        69        0.0937           -0.2969107              -8.0794 (LUMO)
        70                         -0.2470559              -6.7227
        71                         -0.2258650              -6.1461
        72                         -0.1883711              -5.1258
        73                         -0.1830363              -4.9807
       ...                                ...                  ...
       136                          0.7213964              19.6302
      -------------------------------------------------------------
                  HL-Gap            0.0057242 Eh            0.1558 eV
             Fermi-level           -0.2997728 Eh           -8.1572 eV

 SCC (total)                   0 d,  0 h,  0 min,  0.072 sec
 SCC setup                      ...        0 min,  0.001 sec (  1.779%)
 Dispersion                     ...        0 min,  0.000 sec (  0.331%)
 classical contributions        ...        0 min,  0.000 sec (  0.122%)
 integral evaluation            ...        0 min,  0.019 sec ( 25.972%)
 iterations                     ...        0 min,  0.008 sec ( 10.920%)
 molecular gradient             ...        0 min,  0.043 sec ( 60.242%)
 printout                       ...        0 min,  0.000 sec (  0.594%)

         :::::::::::::::::::::::::::::::::::::::::::::::::::::
         ::                     SUMMARY                     ::
         :::::::::::::::::::::::::::::::::::::::::::::::::::::
         :: total energy             -83.852775268992 Eh    ::
         :: total w/o Gsasa/hb       -83.829733654501 Eh    ::
         :: gradient norm              0.000362573149 Eh/a0 ::
         :: HOMO-LUMO gap              0.155763400357 eV    ::
         ::.................................................::
         :: SCC energy               -84.606852045869 Eh    ::
         :: -> electrostatic           0.426653679160 Eh    ::
         :: -> Gsolv                  -0.107233033295 Eh    ::
         ::    -> Gelec               -0.084191418804 Eh    ::
         ::    -> Gsasa               -0.025733467523 Eh    ::
         ::    -> Ghb                 -0.004932425972 Eh    ::
         ::    -> Gshift               0.007624279005 Eh    ::
         :: repulsion energy           0.779368655503 Eh    ::
         :: dispersion energy         -0.025291878626 Eh    ::
         :: halogen bond corr.         0.000000000000 Eh    ::
         :: add. restraining           0.000000000000 Eh    ::
         :: total charge              -1.000000000000 e     ::
         :::::::::::::::::::::::::::::::::::::::::::::::::::::

           -------------------------------------------------
          |                Property Printout                |
           -------------------------------------------------

    * Orbital Energies and Occupations

         #    Occupation            Energy/Eh            Energy/eV
      -------------------------------------------------------------
         1        2.0000           -0.8508182             -23.1519
       ...           ...                  ...                  ...
        56        2.0000           -0.4703323             -12.7984
        57        2.0000           -0.4644219             -12.6376
        58        2.0000           -0.4530622             -12.3285
        59        2.0000           -0.4494083             -12.2290
        60        2.0000           -0.4471164             -12.1667
        61        2.0000           -0.4408818             -11.9970
        62        2.0000           -0.4376878             -11.9101
        63        2.0000           -0.4284350             -11.6583
        64        2.0000           -0.4222818             -11.4909
        65        2.0000           -0.4069330             -11.0732
        66        2.0000           -0.3861538             -10.5078
        67        2.0000           -0.3808852             -10.3644
        68        1.9063           -0.3026349              -8.2351 (HOMO)
        69        0.0937           -0.2969107              -8.0794 (LUMO)
        70                         -0.2470559              -6.7227
        71                         -0.2258650              -6.1461
        72                         -0.1883711              -5.1258
        73                         -0.1830363              -4.9807
        74                         -0.1390302              -3.7832
        75                         -0.1161229              -3.1599
        76                         -0.1130713              -3.0768
        77                         -0.1112119              -3.0262
        78                         -0.1057344              -2.8772
        79                         -0.0958566              -2.6084
       ...                                ...                  ...
       136                          0.7213964              19.6302
      -------------------------------------------------------------
                  HL-Gap            0.0057242 Eh            0.1558 eV
             Fermi-level           -0.2997728 Eh           -8.1572 eV

  Mulliken/CM5 charges         n(s)   n(p)   n(d)
     1C     0.18091  0.06262   0.965  2.854  0.000
     2O    -0.47672 -0.55608   1.698  4.778  0.000
     3C     0.47223  0.52767   0.964  2.564  0.000
     4O    -0.69398 -0.76696   1.744  4.950  0.000
     5C    -0.05591  0.01418   1.015  3.041  0.000
     6C     0.17438  0.20391   1.013  2.813  0.000
     7O    -0.58684 -0.76925   1.718  4.869  0.000
     8C     0.24887  0.32842   0.966  2.785  0.000
     9O    -0.47072 -0.55179   1.689  4.782  0.000
    10C     0.17243  0.05338   0.971  2.856  0.000
    11N    -0.39699 -0.72803   1.460  3.937  0.000
    12C     0.23720  0.38391   1.012  2.751  0.000
    13C     0.15154  0.19137   1.065  2.784  0.000
    14C    -0.10232 -0.24220   1.018  3.085  0.000
    15C    -0.08984 -0.22764   1.012  3.078  0.000
    16N    -0.34125 -0.69132   1.432  3.909  0.000
    17C     0.45460  0.56322   0.973  2.573  0.000
    18O    -0.59552 -0.64010   1.729  4.866  0.000
    19C     0.32380  0.44799   1.010  2.666  0.000
    20N    -0.26158 -0.37096   1.571  3.691  0.000
    21N    -0.27528 -0.38308   1.566  3.709  0.000
    22C     0.38262  0.49140   1.004  2.613  0.000
    23C    -0.11094 -0.24835   1.011  3.100  0.000
    24O    -0.34980 -0.40091   1.694  4.656  0.000
    25N    -0.39126 -0.57519   1.538  3.853  0.000
    26H     0.01702  0.07702   0.983  0.000  0.000
    27H     0.02091  0.08226   0.979  0.000  0.000
    28H     0.02000  0.08137   0.980  0.000  0.000
    29H     0.37558  0.56706   0.624  0.000  0.000
    30H     0.02584  0.08852   0.974  0.000  0.000
    31H     0.01910  0.07916   0.981  0.000  0.000
    32H     0.02459  0.08445   0.975  0.000  0.000
    33H     0.22394  0.42601   0.776  0.000  0.000
    34H     0.03635  0.09098   0.964  0.000  0.000
    35H     0.03536  0.09316   0.965  0.000  0.000
    36H     0.04922  0.10871   0.951  0.000  0.000
    37H     0.02983  0.08801   0.970  0.000  0.000
    38H     0.04063  0.10028   0.959  0.000  0.000
    39H     0.03316  0.09136   0.967  0.000  0.000
    40H     0.23721  0.44902   0.763  0.000  0.000
    41H     0.07338  0.12785   0.927  0.000  0.000
    42H     0.07388  0.12836   0.926  0.000  0.000
    43H     0.06436  0.12022   0.936  0.000  0.000

Wiberg/Mayer (AO) data.
largest (>0.10) Wiberg bond orders for each atom

 ---------------------------------------------------------------------------
     #   Z sym  total        # sym  WBO       # sym  WBO       # sym  WBO
 ---------------------------------------------------------------------------
     1   6 C    3.914 --    26 H    0.987    28 H    0.981    27 H    0.981
                             2 O    0.945
     2   8 O    2.073 --     3 C    0.954     1 C    0.945
     3   6 C    3.856 --     5 C    1.383     4 O    1.363     2 O    0.954
     4   8 O    1.796 --     3 C    1.363    29 H    0.120     5 C    0.111
     5   6 C    3.826 --     3 C    1.383    25 N    1.080     6 C    1.070
                             4 O    0.111
     6   6 C    3.902 --     8 C    1.637     5 C    1.070     7 O    1.035
     7   8 O    1.978 --     6 C    1.035    29 H    0.751
     8   6 C    3.799 --     6 C    1.637    11 N    0.966     9 O    0.961
     9   8 O    2.046 --     8 C    0.961    10 C    0.932
    10   6 C    3.907 --    32 H    0.986    31 H    0.983    30 H    0.980
                             9 O    0.932
    11   7 N    3.175 --    12 C    1.032     8 C    0.966    33 H    0.916
                            25 N    0.103
    12   6 C    3.935 --    25 N    1.721    11 N    1.032    13 C    0.975
    13   6 C    3.930 --    15 C    0.994    14 C    0.981    12 C    0.975
                            16 N    0.914
    14   6 C    3.990 --    34 H    0.986    35 H    0.984    36 H    0.982
                            13 C    0.981
    15   6 C    3.994 --    13 C    0.994    37 H    0.986    39 H    0.984
                            38 H    0.984
    16   7 N    3.336 --    17 C    1.259    13 C    0.914    40 H    0.895
                            18 O    0.175
    17   6 C    3.891 --    18 O    1.554    16 N    1.259    19 C    1.002
    18   8 O    1.860 --    17 C    1.554    16 N    0.175
    19   6 C    3.832 --    20 N    1.582    24 O    1.049    17 C    1.002
    20   7 N    2.964 --    19 C    1.582    21 N    1.191
    21   7 N    2.979 --    22 C    1.615    20 N    1.191
    22   6 C    3.863 --    21 N    1.615    24 O    1.077    23 C    1.029
    23   6 C    3.989 --    22 C    1.029    43 H    0.983    41 H    0.965
                            42 H    0.965
    24   8 O    2.302 --    22 C    1.077    19 C    1.049
    25   7 N    3.034 --    12 C    1.721     5 C    1.080    11 N    0.103
    26   1 H    1.019 --     1 C    0.987
    27   1 H    1.018 --     1 C    0.981
    28   1 H    1.019 --     1 C    0.981
    29   1 H    0.884 --     7 O    0.751     4 O    0.120
    30   1 H    1.025 --    10 C    0.980
    31   1 H    1.011 --    10 C    0.983
    32   1 H    1.018 --    10 C    0.986
    33   1 H    0.961 --    11 N    0.916
    34   1 H    1.005 --    14 C    0.986
    35   1 H    1.004 --    14 C    0.984
    36   1 H    1.011 --    14 C    0.982
    37   1 H    1.011 --    15 C    0.986
    38   1 H    1.013 --    15 C    0.984
    39   1 H    1.018 --    15 C    0.984
    40   1 H    0.969 --    16 N    0.895
    41   1 H    0.998 --    23 C    0.965
    42   1 H    0.998 --    23 C    0.965
    43   1 H    1.000 --    23 C    0.983
 ---------------------------------------------------------------------------

Topologies differ in total number of bonds
Writing topology from bond orders to xtbtopo.mol

 dipole moment from electron density (au)
     X       Y       Z   
   4.4189  -1.7154  -1.7397  total (Debye):   12.834

           -------------------------------------------------
          |                Geometry Summary                 |
           -------------------------------------------------

      molecular mass/u    :      352.3231817
   center of mass at/Å    :        0.0587172      -0.0600654       0.0973527
  moments of inertia/u·Å² :        0.1369309E+04   0.4943927E+04   0.5642493E+04
rotational constants/cm⁻¹ :        0.1231105E-01   0.3409765E-02   0.2987621E-02

 * 36 selected distances

     #   Z          #   Z                                           value/Å
     1   6 C        2   8 O                                       1.4146457
     2   8 O        3   6 C                                       1.3965377
     3   6 C        5   6 C                                       1.3856833
     6   6 C        7   8 O                                       1.3687687
     6   6 C        8   6 C                                       1.3429764
     8   6 C        9   8 O                                       1.3870300
     9   8 O       10   6 C                                       1.4200442
    11   7 N       12   6 C                                       1.4147775
    13   6 C       14   6 C                                       1.5370373 (max)
    13   6 C       15   6 C                                       1.5324446
    13   6 C       16   7 N                                       1.4692462
    16   7 N       17   6 C                                       1.3468725
    17   6 C       18   8 O                                       1.2257280
    19   6 C       20   7 N                                       1.3041301
    21   7 N       22   6 C                                       1.2964310
    22   6 C       23   6 C                                       1.4803705
    19   6 C       24   8 O                                       1.3514980
    22   6 C       24   8 O                                       1.3432197
    12   6 C       25   7 N                                       1.2715806
     1   6 C       26   1 H                                       1.0914533
     1   6 C       27   1 H                                       1.0970333
     1   6 C       28   1 H                                       1.0971126
    10   6 C       30   1 H                                       1.0970324
    10   6 C       31   1 H                                       1.0966193
    10   6 C       32   1 H                                       1.0921187
    11   7 N       33   1 H                                       1.0115243 (min)
    14   6 C       34   1 H                                       1.0890723
    14   6 C       35   1 H                                       1.0887199
    14   6 C       36   1 H                                       1.0887936
    15   6 C       37   1 H                                       1.0897892
    15   6 C       38   1 H                                       1.0882251
    15   6 C       39   1 H                                       1.0895178
    16   7 N       40   1 H                                       1.0120693
    23   6 C       41   1 H                                       1.0898420
    23   6 C       42   1 H                                       1.0897659
    23   6 C       43   1 H                                       1.0870486

 * 5 distinct bonds (by element types)

   Z      Z             #   av. dist./Å        max./Å        min./Å
   1 H    6 C          15     1.0914763     1.0971126     1.0870486
   6 C    6 C           5     1.4557024     1.5370373     1.3429764
   1 H    7 N           2     1.0117968     1.0120693     1.0115243
   6 C    7 N           6     1.3505063     1.4692462     1.2715806
   6 C    8 O           8     1.3634340     1.4200442     1.2257280


optimized geometry written to: xtbopt.xyz


           -------------------------------------------------
          | TOTAL ENERGY              -83.852775268992 Eh   |
          | GRADIENT NORM               0.000362573149 Eh/α |
          | HOMO-LUMO GAP               0.155763400357 eV   |
           -------------------------------------------------

------------------------------------------------------------------------
 * finished run on 2023/06/20 at 15:16:11.050     
------------------------------------------------------------------------
 total:
 * wall-time:     0 d,  0 h,  0 min,  9.902 sec
 *  cpu-time:     0 d,  0 h,  0 min,  9.825 sec
 * ratio c/w:     0.992 speedup
 SCF:
 * wall-time:     0 d,  0 h,  0 min,  0.199 sec
 *  cpu-time:     0 d,  0 h,  0 min,  0.194 sec
 * ratio c/w:     0.975 speedup
 ANC optimizer:
 * wall-time:     0 d,  0 h,  0 min,  9.623 sec
 *  cpu-time:     0 d,  0 h,  0 min,  9.598 sec
 * ratio c/w:     0.997 speedup

