      -----------------------------------------------------------      
     |                   =====================                   |     
     |                           x T B                           |     
     |                   =====================                   |     
     |                         S. Grimme                         |     
     |          Mulliken Center for Theoretical Chemistry        |     
     |                    University of Bonn                     |     
      -----------------------------------------------------------      

   * xtb version 6.5.1 (579679a) compiled by 'ehlert@majestix' on 2022-07-11

   xtb is free software: you can redistribute it and/or modify it under
   the terms of the GNU Lesser General Public License as published by
   the Free Software Foundation, either version 3 of the License, or
   (at your option) any later version.
   
   xtb is distributed in the hope that it will be useful,
   but WITHOUT ANY WARRANTY; without even the implied warranty of
   MERCHANTABILITY or FITNESS FOR A PARTICULAR PURPOSE.  See the
   GNU Lesser General Public License for more details.
   
   Cite this work as:
   * C. Bannwarth, E. Caldeweyher, S. Ehlert, A. Hansen, P. Pracht,
     J. Seibert, S. Spicher, S. Grimme, WIREs Comput. Mol. Sci., 2020, 11,
     e01493. DOI: 10.1002/wcms.1493
   
   for GFN2-xTB:
   * C. Bannwarth, S. Ehlert and S. Grimme., J. Chem. Theory Comput., 2019,
     15, 1652-1671. DOI: 10.1021/acs.jctc.8b01176
   for GFN1-xTB:
   * S. Grimme, C. Bannwarth, P. Shushkov, J. Chem. Theory Comput., 2017,
     13, 1989-2009. DOI: 10.1021/acs.jctc.7b00118
   for GFN0-xTB:
   * P. Pracht, E. Caldeweyher, S. Ehlert, S. Grimme, ChemRxiv, 2019, preprint.
     DOI: 10.26434/chemrxiv.8326202.v1
   for GFN-FF:
   * S. Spicher and S. Grimme, Angew. Chem. Int. Ed., 2020, 59, 15665-15673.
     DOI: 10.1002/anie.202004239
   
   for ALPB and GBSA implicit solvation:
   * S. Ehlert, M. Stahn, S. Spicher, S. Grimme, J. Chem. Theory Comput.,
     2021, 17, 4250-4261. DOI: 10.1021/acs.jctc.1c00471
   
   for DFT-D4:
   * E. Caldeweyher, C. Bannwarth and S. Grimme, J. Chem. Phys., 2017,
     147, 034112. DOI: 10.1063/1.4993215
   * E. Caldeweyher, S. Ehlert, A. Hansen, H. Neugebauer, S. Spicher,
     C. Bannwarth and S. Grimme, J. Chem. Phys., 2019, 150, 154122.
     DOI: 10.1063/1.5090222
   * E. Caldeweyher, J.-M. Mewes, S. Ehlert and S. Grimme, Phys. Chem. Chem. Phys.
     2020, 22, 8499-8512. DOI: 10.1039/D0CP00502A
   
   for sTDA-xTB:
   * S. Grimme and C. Bannwarth, J. Chem. Phys., 2016, 145, 054103.
     DOI: 10.1063/1.4959605
   
   in the mass-spec context:
   * V. Asgeirsson, C. Bauer and S. Grimme, Chem. Sci., 2017, 8, 4879.
     DOI: 10.1039/c7sc00601b
   * J. Koopman and S. Grimme, ACS Omega 2019, 4, 12, 15120-15133.
     DOI: 10.1021/acsomega.9b02011
   
   for metadynamics refer to:
   * S. Grimme, J. Chem. Theory Comput., 2019, 155, 2847-2862
     DOI: 10.1021/acs.jctc.9b00143
   
   for SPH calculations refer to:
   * S. Spicher and S. Grimme, J. Chem. Theory Comput., 2021, 17, 1701-1714
     DOI: 10.1021/acs.jctc.0c01306
   
   with help from (in alphabetical order)
   P. Atkinson, C. Bannwarth, F. Bohle, G. Brandenburg, E. Caldeweyher
   M. Checinski, S. Dohm, S. Ehlert, S. Ehrlich, I. Gerasimov, C. Hölzer
   A. Katbashev, J. Koopman, C. Lavigne, S. Lehtola, F. März, M. Müller,
   F. Musil, H. Neugebauer, J. Pisarek, C. Plett, P. Pracht, F. Pultar,
   J. Seibert, P. Shushkov, S. Spicher, M. Stahn, M. Steiner, T. Strunk,
   J. Stückrath, T. Rose, and J. Unsleber
   
 * started run on 2023/06/20 at 15:00:34.775     

           -------------------------------------------------
          |                Calculation Setup                |
           -------------------------------------------------

          program call               : /lustre/hpc/kemi/ree/PhD/git/ReactivityQM/dep/xtb-6.5.1/bin/xtb --gfn 1 /lustre/hpc/kemi/ree/PhD/git/ReactivityQM/calculations/R02/reac01prodE06/conf13/R02_reac01prodE06_conf13_gfn1.xyz --opt --vfukui --chrg -1 --uhf 0 --alpb DMSO
          hostname                   : node315
          coordinate file            : /lustre/hpc/kemi/ree/PhD/git/ReactivityQM/calculations/R02/reac01prodE06/conf13/R02_reac01prodE06_conf13_gfn1.xyz
          omp threads                :                     1

   ID    Z sym.   atoms
    1    6 C      1, 3, 5, 6, 8, 11-15, 17, 19, 22, 23
    2    8 O      2, 4, 7, 9, 18, 24
    3    7 N      10, 16, 20, 21, 25
    4    1 H      26-43

           -------------------------------------------------
          |                 G F N 1 - x T B                 |
           -------------------------------------------------

        Reference                      10.1021/acs.jctc.7b00118
      * Hamiltonian:
        H0-scaling (s, p, d)           1.850000    2.250000    2.000000
        zeta-weighting                 0.000000
      * Dispersion:
        s8                             2.400000
        a1                             0.630000
        a2                             5.000000
        s9                             0.000000
      * Repulsion:
        kExp                           1.500000
        rExp                           1.000000
      * Coulomb:
        alpha                          2.000000
        third order                    atomic
        anisotropic                    false
      * Halogen bond correction:
        rad-scale                      1.300000
        damping                        0.440000

      * Solvation model:               ALPB
        Solvent                        DMSO
        Parameter file                 internal GFN1-xTB/ALPB
        Dielectric constant                4.6680E+01
        Reference state                gsolv [1 M gas/solution]
        Free energy shift                  7.6243E-03 Eh       4.7843E+00 kcal/mol
        Temperature                        2.9815E+02 K
        Density                            1.1000E+00 kg/L
        Solvent mass                       7.8130E+01 g/mol
        Interaction kernel             P16
        Born radius scaling (c1)           1.7672E+00
        Born radii integrator          GBOBC
        Born offset                        0.0000E+00 a0       0.0000E+00 AA
        H-bond correction              true
        Ion screening                  false
        Surface tension                    1.0000E-05 Eh       1.5569E+01 dyn/cm
        Grid points                               230 per atom

          ...................................................
          :                      SETUP                      :
          :.................................................:
          :  # basis functions                 136          :
          :  # atomic orbitals                 136          :
          :  # shells                           86          :
          :  # electrons                       136          :
          :  # halogen bonds                     0          :
          :  max. iterations                   250          :
          :  Hamiltonian                  GFN1-xTB          :
          :  restarted?                      false          :
          :  GBSA solvation                   true          :
          :  PC potential                    false          :
          :  electronic temp.          300.0000000     K    :
          :  accuracy                    1.0000000          :
          :  -> integral cutoff          0.2500000E+02      :
          :  -> integral neglect         0.1000000E-07      :
          :  -> SCF convergence          0.1000000E-05 Eh   :
          :  -> wf. convergence          0.2000000E-04 e    :
          :  Broyden damping             0.4000000          :
          ...................................................

 iter      E             dE          RMSdq      gap      omega  full diag
   1    -84.3246796 -0.843247E+02  0.851E+00    1.78       0.0  T
   2    -84.5886922 -0.264013E+00  0.509E+00    0.73       1.0  T
   3    -84.5660163  0.226759E-01  0.159E+00    0.31       1.0  T
   4    -84.5399636  0.260527E-01  0.786E-01    0.05       1.0  T
   5    -84.6007811 -0.608175E-01  0.290E-01    0.83       1.0  T
   6    -84.6040400 -0.325894E-02  0.141E-01    0.57       1.0  T
   7    -84.6043865 -0.346510E-03  0.998E-02    0.51       1.0  T
   8    -84.6046816 -0.295106E-03  0.676E-02    0.40       1.0  T
   9    -84.6049055 -0.223827E-03  0.294E-02    0.29       1.0  T
  10    -84.6049541 -0.486276E-04  0.110E-02    0.22       1.4  T
  11    -84.6049482  0.588935E-05  0.149E-02    0.26       1.0  T
  12    -84.6049662 -0.179410E-04  0.301E-03    0.23       5.1  T
  13    -84.6049671 -0.941185E-06  0.203E-04    0.24      75.3  T
  14    -84.6049671  0.134261E-08  0.200E-04    0.24      76.4  T
  15    -84.6049671 -0.276529E-09  0.164E-04    0.24      93.0  T

   *** convergence criteria satisfied after 15 iterations ***

         #    Occupation            Energy/Eh            Energy/eV
      -------------------------------------------------------------
         1        2.0000           -0.8528769             -23.2080
       ...           ...                  ...                  ...
        62        2.0000           -0.4344810             -11.8228
        63        2.0000           -0.4266507             -11.6098
        64        2.0000           -0.4219992             -11.4832
        65        2.0000           -0.4049731             -11.0199
        66        2.0000           -0.3953465             -10.7579
        67        2.0000           -0.3764773             -10.2445
        68        1.9795           -0.3152362              -8.5780 (HOMO)
        69        0.0205           -0.3065504              -8.3417 (LUMO)
        70                         -0.2676643              -7.2835
        71                         -0.2533672              -6.8945
        72                         -0.1949484              -5.3048
        73                         -0.1897464              -5.1633
       ...                                ...                  ...
       136                          0.7333151              19.9545
      -------------------------------------------------------------
                  HL-Gap            0.0086859 Eh            0.2364 eV
             Fermi-level           -0.3108933 Eh           -8.4598 eV

 SCC (total)                   0 d,  0 h,  0 min,  0.194 sec
 SCC setup                      ...        0 min,  0.002 sec (  1.087%)
 Dispersion                     ...        0 min,  0.000 sec (  0.222%)
 classical contributions        ...        0 min,  0.000 sec (  0.069%)
 integral evaluation            ...        0 min,  0.045 sec ( 23.150%)
 iterations                     ...        0 min,  0.053 sec ( 27.313%)
 molecular gradient             ...        0 min,  0.093 sec ( 47.641%)
 printout                       ...        0 min,  0.001 sec (  0.498%)

         :::::::::::::::::::::::::::::::::::::::::::::::::::::
         ::                     SUMMARY                     ::
         :::::::::::::::::::::::::::::::::::::::::::::::::::::
         :: total energy             -83.865514972881 Eh    ::
         :: total w/o Gsasa/hb       -83.842850039313 Eh    ::
         :: gradient norm              0.126299808087 Eh/a0 ::
         :: HOMO-LUMO gap              0.236355055854 eV    ::
         ::.................................................::
         :: SCC energy               -84.604967095876 Eh    ::
         :: -> electrostatic           0.444939349624 Eh    ::
         :: -> Gsolv                  -0.108383279157 Eh    ::
         ::    -> Gelec               -0.085718345589 Eh    ::
         ::    -> Gsasa               -0.023937038521 Eh    ::
         ::    -> Ghb                 -0.006352174051 Eh    ::
         ::    -> Gshift               0.007624279005 Eh    ::
         :: repulsion energy           0.766727204048 Eh    ::
         :: dispersion energy         -0.027275081053 Eh    ::
         :: halogen bond corr.         0.000000000000 Eh    ::
         :: add. restraining           0.000000000000 Eh    ::
         :: total charge              -1.000000000000 e     ::
         :::::::::::::::::::::::::::::::::::::::::::::::::::::

      ----------------------------------------------------------- 
     |                   =====================                   |
     |                        A N C O P T                        |
     |                   =====================                   |
     |               Approximate Normal Coordinate               |
     |                Rational Function Optimizer                |
      ----------------------------------------------------------- 

          ...................................................
          :                      SETUP                      :
          :.................................................:
          :   optimization level            normal          :
          :   max. optcycles                   200          :
          :   ANC micro-cycles                  20          :
          :   degrees of freedom               123          :
          :.................................................:
          :   RF solver                   davidson          :
          :   write xtbopt.log                true          :
          :   linear?                        false          :
          :   energy convergence         0.5000000E-05 Eh   :
          :   grad. convergence          0.1000000E-02 Eh/α :
          :   maximium RF displ.         1.0000000          :
          :   Hlow (freq-cutoff)         0.1000000E-01      :
          :   Hmax (freq-cutoff)         5.0000000          :
          :   S6 in model hess.         20.0000000          :
          ...................................................

generating ANC from model Hessian ...
Using Lindh-Hessian (1995)
 Shifting diagonal of input Hessian by   9.841193196403197E-003
 Lowest  eigenvalues of input Hessian
    0.000000    0.000000    0.000000    0.000000    0.000000    0.000000
    0.010000    0.010204    0.010481    0.011212    0.011762    0.012410
    0.013095    0.013861    0.014571    0.014790    0.015957    0.017373
 Highest eigenvalues
    2.002734    2.055991    2.073891    2.254380    2.327743    2.329813
 

........................................................................
.............................. CYCLE    1 ..............................
........................................................................
   1    -84.6049671 -0.846050E+02  0.103E-05    0.24       0.0  T
   2    -84.6049671 -0.582645E-12  0.777E-06    0.24    1962.6  T
   3    -84.6049671 -0.598277E-11  0.239E-06    0.24    6367.7  T
     SCC iter.                  ...        0 min,  0.011 sec
     gradient                   ...        0 min,  0.081 sec
 * total energy  :   -83.8655150 Eh     change       -0.2684757E-08 Eh
   gradient norm :     0.1263112 Eh/α   predicted     0.0000000E+00 (-100.00%)
   displ. norm   :     0.3274489 α      lambda       -0.1704873E-01
   maximum displ.:     0.1067973 α      in ANC's #21, #19, #14, ...

........................................................................
.............................. CYCLE    2 ..............................
........................................................................
   1    -84.6211209 -0.846211E+02  0.846E-02    0.47       0.0  T
   2    -84.6214562 -0.335228E-03  0.516E-02    0.39       1.0  T
   3    -84.6215766 -0.120437E-03  0.173E-02    0.38       1.0  T
   4    -84.6215819 -0.530184E-05  0.105E-02    0.38       1.5  T
   5    -84.6215833 -0.142424E-05  0.388E-03    0.37       3.9  T
   6    -84.6215835 -0.175676E-06  0.701E-04    0.37      21.8  T
   7    -84.6215835 -0.794472E-08  0.198E-04    0.37      76.9  T
   8    -84.6215835 -0.766576E-09  0.724E-05    0.37     210.6  T
     SCC iter.                  ...        0 min,  0.030 sec
     gradient                   ...        0 min,  0.081 sec
 * total energy  :   -83.8780009 Eh     change       -0.1248597E-01 Eh
   gradient norm :     0.0632857 Eh/α   predicted    -0.9454683E-02 ( -24.28%)
   displ. norm   :     0.3929037 α      lambda       -0.8765688E-02
   maximum displ.:     0.1428257 α      in ANC's #21, #14, #28, ...

........................................................................
.............................. CYCLE    3 ..............................
........................................................................
   1    -84.6358792 -0.846359E+02  0.811E-02    0.61       0.0  T
   2    -84.6361251 -0.245879E-03  0.426E-02    0.59       1.0  T
   3    -84.6362056 -0.805017E-04  0.185E-02    0.59       1.0  T
   4    -84.6362101 -0.451064E-05  0.950E-03    0.59       1.6  T
   5    -84.6362104 -0.326749E-06  0.278E-03    0.59       5.5  T
   6    -84.6362106 -0.166510E-06  0.430E-04    0.59      35.5  T
   7    -84.6362106 -0.361267E-08  0.155E-04    0.59      98.2  T
   8    -84.6362106 -0.319815E-09  0.420E-05    0.59     362.8  T
     SCC iter.                  ...        0 min,  0.030 sec
     gradient                   ...        0 min,  0.081 sec
 * total energy  :   -83.8833280 Eh     change       -0.5327010E-02 Eh
   gradient norm :     0.0208132 Eh/α   predicted    -0.5063437E-02 (  -4.95%)
   displ. norm   :     0.2929875 α      lambda       -0.1795995E-02
   maximum displ.:     0.1021944 α      in ANC's #21, #7, #17, ...

........................................................................
.............................. CYCLE    4 ..............................
........................................................................
   1    -84.6390454 -0.846390E+02  0.276E-02    0.65       0.0  T
   2    -84.6390680 -0.225288E-04  0.157E-02    0.65       1.0  T
   3    -84.6390779 -0.989691E-05  0.751E-03    0.65       2.0  T
   4    -84.6390784 -0.543654E-06  0.349E-03    0.65       4.4  T
   5    -84.6390785 -0.122080E-06  0.748E-04    0.65      20.4  T
   6    -84.6390785 -0.109928E-07  0.166E-04    0.65      91.7  T
   7    -84.6390785 -0.513879E-09  0.560E-05    0.65     272.5  T
     SCC iter.                  ...        0 min,  0.026 sec
     gradient                   ...        0 min,  0.081 sec
 * total energy  :   -83.8846601 Eh     change       -0.1332185E-02 Eh
   gradient norm :     0.0153487 Eh/α   predicted    -0.9751595E-03 ( -26.80%)
   displ. norm   :     0.3584663 α      lambda       -0.1308434E-02
   maximum displ.:     0.1438252 α      in ANC's #7, #17, #2, ...

........................................................................
.............................. CYCLE    5 ..............................
........................................................................
   1    -84.6408591 -0.846409E+02  0.244E-02    0.67       0.0  T
   2    -84.6408753 -0.162186E-04  0.143E-02    0.67       1.1  T
   3    -84.6408838 -0.852463E-05  0.659E-03    0.67       2.3  T
   4    -84.6408844 -0.520456E-06  0.307E-03    0.67       5.0  T
   5    -84.6408844 -0.866637E-07  0.591E-04    0.67      25.8  T
   6    -84.6408845 -0.744589E-08  0.170E-04    0.67      89.5  T
   7    -84.6408845 -0.468617E-09  0.478E-05    0.67     319.1  T
     SCC iter.                  ...        0 min,  0.027 sec
     gradient                   ...        0 min,  0.085 sec
 * total energy  :   -83.8855334 Eh     change       -0.8732534E-03 Eh
   gradient norm :     0.0098545 Eh/α   predicted    -0.7382855E-03 ( -15.46%)
   displ. norm   :     0.2560197 α      lambda       -0.4724216E-03
   maximum displ.:     0.1109137 α      in ANC's #7, #2, #1, ...

........................................................................
.............................. CYCLE    6 ..............................
........................................................................
   1    -84.6421546 -0.846422E+02  0.112E-02    0.67       0.0  T
   2    -84.6421596 -0.498744E-05  0.690E-03    0.68       2.2  T
   3    -84.6421612 -0.161848E-05  0.310E-03    0.68       4.9  T
   4    -84.6421613 -0.913828E-07  0.187E-03    0.68       8.2  T
   5    -84.6421614 -0.451573E-07  0.294E-04    0.68      51.8  T
   6    -84.6421614 -0.134594E-08  0.911E-05    0.68     167.4  T
   7    -84.6421614 -0.113502E-09  0.256E-05    0.68     596.7  T
     SCC iter.                  ...        0 min,  0.027 sec
     gradient                   ...        0 min,  0.072 sec
 * total energy  :   -83.8858681 Eh     change       -0.3347103E-03 Eh
   gradient norm :     0.0080531 Eh/α   predicted    -0.2517868E-03 ( -24.77%)
   displ. norm   :     0.2468428 α      lambda       -0.3126550E-03
   maximum displ.:     0.1139402 α      in ANC's #7, #2, #1, ...

........................................................................
.............................. CYCLE    7 ..............................
........................................................................
   1    -84.6430705 -0.846431E+02  0.942E-03    0.68       0.0  T
   2    -84.6430753 -0.473225E-05  0.646E-03    0.68       2.4  T
   3    -84.6430766 -0.130328E-05  0.278E-03    0.68       5.5  T
   4    -84.6430766  0.123807E-07  0.200E-03    0.68       7.6  T
   5    -84.6430766 -0.755805E-07  0.399E-04    0.68      38.2  T
   6    -84.6430766 -0.185911E-08  0.730E-05    0.68     208.9  T
   7    -84.6430766 -0.928111E-10  0.255E-05    0.68     598.5  T
     SCC iter.                  ...        0 min,  0.026 sec
     gradient                   ...        0 min,  0.082 sec
 * total energy  :   -83.8860914 Eh     change       -0.2232733E-03 Eh
   gradient norm :     0.0065051 Eh/α   predicted    -0.1658532E-03 ( -25.72%)
   displ. norm   :     0.2241902 α      lambda       -0.2144255E-03
   maximum displ.:     0.1118504 α      in ANC's #2, #1, #7, ...

........................................................................
.............................. CYCLE    8 ..............................
........................................................................
   1    -84.6432763 -0.846433E+02  0.885E-03    0.68       0.0  T
   2    -84.6432808 -0.456089E-05  0.471E-03    0.69       3.2  T
   3    -84.6432812 -0.332302E-06  0.228E-03    0.69       6.7  T
   4    -84.6432811  0.445494E-07  0.144E-03    0.69      10.6  T
   5    -84.6432812 -0.566046E-07  0.301E-04    0.69      50.6  T
   6    -84.6432812 -0.297061E-08  0.703E-05    0.69     216.8  T
   7    -84.6432812 -0.175120E-09  0.184E-05    0.69     827.6  T
     SCC iter.                  ...        0 min,  0.026 sec
     gradient                   ...        0 min,  0.082 sec
 * total energy  :   -83.8862451 Eh     change       -0.1537405E-03 Eh
   gradient norm :     0.0054332 Eh/α   predicted    -0.1126036E-03 ( -26.76%)
   displ. norm   :     0.2128688 α      lambda       -0.1644600E-03
   maximum displ.:     0.1086612 α      in ANC's #2, #1, #3, ...

........................................................................
.............................. CYCLE    9 ..............................
........................................................................
   1    -84.6431693 -0.846432E+02  0.698E-03    0.69       0.0  T
   2    -84.6431715 -0.219867E-05  0.335E-03    0.70       4.6  T
   3    -84.6431717 -0.171053E-06  0.163E-03    0.70       9.3  T
   4    -84.6431717  0.109564E-08  0.565E-04    0.70      27.0  T
   5    -84.6431717 -0.322920E-08  0.244E-04    0.70      62.4  T
   6    -84.6431717 -0.257862E-08  0.587E-05    0.70     259.8  T
   7    -84.6431717 -0.203215E-09  0.136E-05    0.70    1124.6  T
     SCC iter.                  ...        0 min,  0.026 sec
     gradient                   ...        0 min,  0.082 sec
 * total energy  :   -83.8863702 Eh     change       -0.1251068E-03 Eh
   gradient norm :     0.0052386 Eh/α   predicted    -0.8595823E-04 ( -31.29%)
   displ. norm   :     0.2616469 α      lambda       -0.1821179E-03
   maximum displ.:     0.1349288 α      in ANC's #2, #1, #3, ...

........................................................................
.............................. CYCLE   10 ..............................
........................................................................
   1    -84.6425684 -0.846426E+02  0.765E-03    0.70       0.0  T
   2    -84.6425705 -0.211149E-05  0.385E-03    0.71       4.0  T
   3    -84.6425711 -0.575719E-06  0.182E-03    0.71       8.4  T
   4    -84.6425711 -0.589113E-07  0.830E-04    0.71      18.4  T
   5    -84.6425711 -0.688206E-08  0.344E-04    0.71      44.3  T
   6    -84.6425711 -0.239831E-08  0.541E-05    0.71     281.9  T
   7    -84.6425711 -0.890168E-10  0.148E-05    0.71    1030.6  T
     SCC iter.                  ...        0 min,  0.026 sec
     gradient                   ...        0 min,  0.082 sec
 * total energy  :   -83.8865095 Eh     change       -0.1392427E-03 Eh
   gradient norm :     0.0062900 Eh/α   predicted    -0.9729303E-04 ( -30.13%)
   displ. norm   :     0.2950687 α      lambda       -0.1874966E-03
   maximum displ.:     0.1504455 α      in ANC's #2, #1, #3, ...

........................................................................
.............................. CYCLE   11 ..............................
........................................................................
   1    -84.6421062 -0.846421E+02  0.666E-03    0.71       0.0  T
   2    -84.6421083 -0.208905E-05  0.347E-03    0.71       4.4  T
   3    -84.6421088 -0.501507E-06  0.164E-03    0.71       9.3  T
   4    -84.6421088 -0.533262E-07  0.812E-04    0.71      18.8  T
   5    -84.6421088 -0.609531E-08  0.311E-04    0.71      49.1  T
   6    -84.6421088 -0.125122E-08  0.568E-05    0.71     268.5  T
   7    -84.6421088 -0.762270E-10  0.154E-05    0.71     993.1  T
     SCC iter.                  ...        0 min,  0.026 sec
     gradient                   ...        0 min,  0.082 sec
 * total energy  :   -83.8866508 Eh     change       -0.1413010E-03 Eh
   gradient norm :     0.0063022 Eh/α   predicted    -0.1019152E-03 ( -27.87%)
   displ. norm   :     0.2976518 α      lambda       -0.1656319E-03
   maximum displ.:     0.1540499 α      in ANC's #1, #2, #3, ...

........................................................................
.............................. CYCLE   12 ..............................
........................................................................
   1    -84.6419204 -0.846419E+02  0.536E-03    0.72       0.0  T
   2    -84.6419220 -0.159396E-05  0.308E-03    0.72       4.9  T
   3    -84.6419222 -0.267413E-06  0.163E-03    0.72       9.4  T
   4    -84.6419223 -0.166567E-07  0.929E-04    0.72      16.4  T
   5    -84.6419223 -0.179361E-07  0.293E-04    0.72      52.1  T
   6    -84.6419223 -0.153753E-08  0.434E-05    0.72     351.7  T
   7    -84.6419223 -0.388241E-10  0.132E-05    0.72    1158.1  T
     SCC iter.                  ...        0 min,  0.026 sec
     gradient                   ...        0 min,  0.082 sec
 * total energy  :   -83.8867717 Eh     change       -0.1209162E-03 Eh
   gradient norm :     0.0054712 Eh/α   predicted    -0.9015393E-04 ( -25.44%)
   displ. norm   :     0.2421736 α      lambda       -0.1252856E-03
   maximum displ.:     0.1350987 α      in ANC's #1, #2, #3, ...

........................................................................
.............................. CYCLE   13 ..............................
........................................................................
   1    -84.6431190 -0.846431E+02  0.564E-03    0.72       0.0  T
   2    -84.6431201 -0.114710E-05  0.317E-03    0.72       4.8  T
   3    -84.6431204 -0.213385E-06  0.165E-03    0.72       9.2  T
   4    -84.6431204 -0.395266E-08  0.938E-04    0.72      16.3  T
   5    -84.6431204 -0.259946E-07  0.170E-04    0.72      89.6  T
   6    -84.6431204 -0.733820E-09  0.395E-05    0.72     386.3  T
     SCC iter.                  ...        0 min,  0.023 sec
     gradient                   ...        0 min,  0.082 sec
 * total energy  :   -83.8868610 Eh     change       -0.8930148E-04 Eh
   gradient norm :     0.0038065 Eh/α   predicted    -0.6631855E-04 ( -25.74%)
   displ. norm   :     0.2474706 α      lambda       -0.8782191E-04
   maximum displ.:     0.1391746 α      in ANC's #1, #2, #3, ...

........................................................................
.............................. CYCLE   14 ..............................
........................................................................
   1    -84.6426259 -0.846426E+02  0.570E-03    0.72       0.0  T
   2    -84.6426270 -0.110851E-05  0.260E-03    0.72       5.9  T
   3    -84.6426271 -0.135922E-06  0.156E-03    0.73       9.8  T
   4    -84.6426272 -0.552930E-07  0.799E-04    0.73      19.1  T
   5    -84.6426272 -0.118871E-07  0.176E-04    0.73      86.5  T
   6    -84.6426272 -0.426226E-09  0.438E-05    0.73     348.6  T
     SCC iter.                  ...        0 min,  0.023 sec
     gradient                   ...        0 min,  0.082 sec
 * total energy  :   -83.8869199 Eh     change       -0.5888003E-04 Eh
   gradient norm :     0.0041706 Eh/α   predicted    -0.4660150E-04 ( -20.85%)
   displ. norm   :     0.1969305 α      lambda       -0.7967162E-04
   maximum displ.:     0.1188996 α      in ANC's #1, #2, #3, ...

........................................................................
.............................. CYCLE   15 ..............................
........................................................................
   1    -84.6450796 -0.846451E+02  0.640E-03    0.72       0.0  T
   2    -84.6450802 -0.561560E-06  0.416E-03    0.72       3.7  T
   3    -84.6450807 -0.479330E-06  0.228E-03    0.72       6.7  T
   4    -84.6450808 -0.787535E-07  0.686E-04    0.72      22.2  T
   5    -84.6450808 -0.818601E-08  0.149E-04    0.72     102.7  T
   6    -84.6450808 -0.465562E-09  0.339E-05    0.72     449.4  T
     SCC iter.                  ...        0 min,  0.023 sec
     gradient                   ...        0 min,  0.082 sec
 * total energy  :   -83.8869597 Eh     change       -0.3982351E-04 Eh
   gradient norm :     0.0045832 Eh/α   predicted    -0.4138687E-04 (   3.93%)
   displ. norm   :     0.1677009 α      lambda       -0.4463823E-04
   maximum displ.:     0.0964354 α      in ANC's #1, #2, #3, ...

........................................................................
.............................. CYCLE   16 ..............................
........................................................................
   1    -84.6437123 -0.846437E+02  0.507E-03    0.72       0.0  T
   2    -84.6437131 -0.758475E-06  0.242E-03    0.73       6.3  T
   3    -84.6437131 -0.608254E-07  0.119E-03    0.73      12.8  T
   4    -84.6437131  0.255315E-08  0.538E-04    0.73      28.4  T
   5    -84.6437131 -0.945214E-08  0.170E-04    0.73      89.6  T
   6    -84.6437131 -0.852609E-09  0.474E-05    0.73     321.9  T
     SCC iter.                  ...        0 min,  0.023 sec
     gradient                   ...        0 min,  0.082 sec
 * total energy  :   -83.8869874 Eh     change       -0.2766369E-04 Eh
   gradient norm :     0.0031885 Eh/α   predicted    -0.2294865E-04 ( -17.04%)
   displ. norm   :     0.1112907 α      lambda       -0.3196833E-04
   maximum displ.:     0.0688164 α      in ANC's #1, #2, #3, ...

........................................................................
.............................. CYCLE   17 ..............................
........................................................................
   1    -84.6435297 -0.846435E+02  0.526E-03    0.73       0.0  T
   2    -84.6435310 -0.132227E-05  0.313E-03    0.73       4.9  T
   3    -84.6435314 -0.339721E-06  0.134E-03    0.73      11.4  T
   4    -84.6435314 -0.189651E-07  0.793E-04    0.73      19.2  T
   5    -84.6435314 -0.602445E-08  0.231E-04    0.73      66.1  T
   6    -84.6435314 -0.163332E-08  0.376E-05    0.73     405.3  T
   7    -84.6435314 -0.468674E-10  0.119E-05    0.73    1279.4  T
     SCC iter.                  ...        0 min,  0.026 sec
     gradient                   ...        0 min,  0.053 sec
 * total energy  :   -83.8870073 Eh     change       -0.1997178E-04 Eh
   gradient norm :     0.0028736 Eh/α   predicted    -0.1618567E-04 ( -18.96%)
   displ. norm   :     0.0666846 α      lambda       -0.2485136E-04
   maximum displ.:     0.0441356 α      in ANC's #1, #16, #17, ...

........................................................................
.............................. CYCLE   18 ..............................
........................................................................
   1    -84.6445316 -0.846445E+02  0.414E-03    0.73       0.0  T
   2    -84.6445321 -0.500285E-06  0.222E-03    0.73       6.9  T
   3    -84.6445323 -0.123133E-06  0.125E-03    0.73      12.2  T
   4    -84.6445323 -0.175650E-07  0.629E-04    0.73      24.2  T
   5    -84.6445323 -0.792977E-08  0.127E-04    0.73     119.9  T
   6    -84.6445323 -0.372154E-09  0.217E-05    0.73     702.6  T
     SCC iter.                  ...        0 min,  0.023 sec
     gradient                   ...        0 min,  0.087 sec
 * total energy  :   -83.8870226 Eh     change       -0.1527282E-04 Eh
   gradient norm :     0.0021943 Eh/α   predicted    -0.1248580E-04 ( -18.25%)
   displ. norm   :     0.0796319 α      lambda       -0.1712983E-04
   maximum displ.:     0.0494355 α      in ANC's #1, #17, #8, ...

........................................................................
.............................. CYCLE   19 ..............................
........................................................................
   1    -84.6445298 -0.846445E+02  0.281E-03    0.74       0.0  T
   2    -84.6445301 -0.245759E-06  0.196E-03    0.74       7.8  T
   3    -84.6445303 -0.213948E-06  0.622E-04    0.74      24.5  T
   4    -84.6445303 -0.566610E-08  0.318E-04    0.74      47.9  T
   5    -84.6445303 -0.362917E-09  0.903E-05    0.74     169.0  T
   6    -84.6445303 -0.110262E-09  0.169E-05    0.74     902.3  T
     SCC iter.                  ...        0 min,  0.023 sec
     gradient                   ...        0 min,  0.087 sec
 * total energy  :   -83.8870366 Eh     change       -0.1397071E-04 Eh
   gradient norm :     0.0025236 Eh/α   predicted    -0.8619777E-05 ( -38.30%)
   displ. norm   :     0.1640586 α      lambda       -0.3794315E-04
   maximum displ.:     0.0988366 α      in ANC's #1, #17, #8, ...

........................................................................
.............................. CYCLE   20 ..............................
........................................................................
   1    -84.6445725 -0.846446E+02  0.421E-03    0.74       0.0  T
   2    -84.6445730 -0.525526E-06  0.335E-03    0.74       4.6  T
   3    -84.6445737 -0.703758E-06  0.829E-04    0.74      18.4  T
   4    -84.6445737 -0.742423E-08  0.413E-04    0.74      36.9  T
   5    -84.6445737 -0.332463E-09  0.127E-04    0.74     119.9  T
   6    -84.6445737 -0.153861E-09  0.279E-05    0.74     547.0  T
     SCC iter.                  ...        0 min,  0.023 sec
     gradient                   ...        0 min,  0.087 sec
 * total energy  :   -83.8870642 Eh     change       -0.2766651E-04 Eh
   gradient norm :     0.0027837 Eh/α   predicted    -0.1948603E-04 ( -29.57%)
   displ. norm   :     0.1662890 α      lambda       -0.3053630E-04
   maximum displ.:     0.0980873 α      in ANC's #1, #17, #8, ...
 * RMSD in coord.:     0.5208148 α      energy gain  -0.2154926E-01 Eh

generating ANC from model Hessian ...
Using Lindh-Hessian (1995)
 Shifting diagonal of input Hessian by   9.784660295821717E-003
 Lowest  eigenvalues of input Hessian
    0.000000    0.000000    0.000000    0.000000    0.000000    0.000000
    0.010000    0.010194    0.010456    0.011310    0.011751    0.012297
    0.013348    0.013876    0.014628    0.014940    0.015883    0.017190
 Highest eigenvalues
    2.036191    2.047683    2.135715    2.266988    2.346634    2.426361
 

........................................................................
.............................. CYCLE   21 ..............................
........................................................................
   1    -84.6441383 -0.846441E+02  0.251E-03    0.74       0.0  T
   2    -84.6441385 -0.196804E-06  0.163E-03    0.74       9.4  T
   3    -84.6441386 -0.131018E-06  0.757E-04    0.74      20.1  T
   4    -84.6441386 -0.109114E-07  0.320E-04    0.74      47.6  T
   5    -84.6441386 -0.386095E-09  0.817E-05    0.74     186.7  T
   6    -84.6441386 -0.982823E-10  0.210E-05    0.74     726.6  T
     SCC iter.                  ...        0 min,  0.023 sec
     gradient                   ...        0 min,  0.087 sec
 * total energy  :   -83.8870858 Eh     change       -0.2159429E-04 Eh
   gradient norm :     0.0026574 Eh/α   predicted     0.0000000E+00 (-100.00%)
   displ. norm   :     0.0197409 α      lambda       -0.1357266E-04
   maximum displ.:     0.0074861 α      in ANC's #10, #17, #6, ...

........................................................................
.............................. CYCLE   22 ..............................
........................................................................
   1    -84.6443404 -0.846443E+02  0.261E-03    0.74       0.0  T
   2    -84.6443406 -0.214179E-06  0.178E-03    0.74       8.6  T
   3    -84.6443408 -0.158296E-06  0.689E-04    0.74      22.1  T
   4    -84.6443408 -0.638900E-08  0.340E-04    0.74      44.8  T
   5    -84.6443408 -0.691657E-09  0.640E-05    0.74     238.2  T
   6    -84.6443408 -0.556071E-10  0.129E-05    0.74    1179.0  T
     SCC iter.                  ...        0 min,  0.023 sec
     gradient                   ...        0 min,  0.087 sec
 * total energy  :   -83.8870977 Eh     change       -0.1185546E-04 Eh
   gradient norm :     0.0013868 Eh/α   predicted    -0.7686502E-05 ( -35.16%)
   displ. norm   :     0.0653802 α      lambda       -0.1553670E-04
   maximum displ.:     0.0238593 α      in ANC's #6, #10, #17, ...

........................................................................
.............................. CYCLE   23 ..............................
........................................................................
   1    -84.6444009 -0.846444E+02  0.637E-03    0.74       0.0  T
   2    -84.6444022 -0.127129E-05  0.453E-03    0.74       3.4  T
   3    -84.6444034 -0.121019E-05  0.127E-03    0.74      12.0  T
   4    -84.6444034 -0.273830E-07  0.658E-04    0.74      23.2  T
   5    -84.6444034 -0.834987E-09  0.168E-04    0.74      90.6  T
   6    -84.6444034 -0.282313E-09  0.277E-05    0.74     551.4  T
     SCC iter.                  ...        0 min,  0.023 sec
     gradient                   ...        0 min,  0.087 sec
 * total energy  :   -83.8871093 Eh     change       -0.1166192E-04 Eh
   gradient norm :     0.0015840 Eh/α   predicted    -0.8226287E-05 ( -29.46%)
   displ. norm   :     0.0326266 α      lambda       -0.5496885E-05
   maximum displ.:     0.0143478 α      in ANC's #6, #1, #8, ...

........................................................................
.............................. CYCLE   24 ..............................
........................................................................
   1    -84.6442611 -0.846443E+02  0.992E-04    0.74       0.0  T
   2    -84.6442611 -0.159174E-07  0.519E-04    0.74      29.4  T
   3    -84.6442611 -0.129710E-08  0.323E-04    0.74      47.2  T
   4    -84.6442611 -0.114177E-08  0.140E-04    0.74     108.8  T
   5    -84.6442611 -0.863949E-09  0.232E-05    0.74     658.1  T
     SCC iter.                  ...        0 min,  0.019 sec
     gradient                   ...        0 min,  0.087 sec
 * total energy  :   -83.8871169 Eh     change       -0.7530414E-05 Eh
   gradient norm :     0.0012397 Eh/α   predicted    -0.2858954E-05 ( -62.03%)
   displ. norm   :     0.2001241 α      lambda       -0.2701359E-04
   maximum displ.:     0.0881569 α      in ANC's #6, #8, #1, ...

........................................................................
.............................. CYCLE   25 ..............................
........................................................................
   1    -84.6433711 -0.846434E+02  0.441E-03    0.74       0.0  T
   2    -84.6433715 -0.435491E-06  0.223E-03    0.74       6.9  T
   3    -84.6433715 -0.227464E-07  0.132E-03    0.74      11.6  T
   4    -84.6433715  0.325743E-08  0.652E-04    0.74      23.4  T
   5    -84.6433716 -0.205692E-07  0.129E-04    0.74     117.8  T
   6    -84.6433716 -0.642544E-09  0.340E-05    0.74     449.2  T
     SCC iter.                  ...        0 min,  0.023 sec
     gradient                   ...        0 min,  0.087 sec
 * total energy  :   -83.8871396 Eh     change       -0.2276141E-04 Eh
   gradient norm :     0.0020333 Eh/α   predicted    -0.1381814E-04 ( -39.29%)
   displ. norm   :     0.0784637 α      lambda       -0.1262575E-04
   maximum displ.:     0.0349196 α      in ANC's #6, #1, #8, ...

........................................................................
.............................. CYCLE   26 ..............................
........................................................................
   1    -84.6433884 -0.846434E+02  0.154E-03    0.74       0.0  T
   2    -84.6433884 -0.586115E-07  0.110E-03    0.74      13.9  T
   3    -84.6433885 -0.625944E-07  0.439E-04    0.74      34.8  T
   4    -84.6433885 -0.280163E-08  0.185E-04    0.74      82.3  T
   5    -84.6433885 -0.364366E-10  0.455E-05    0.74     335.3  T
     SCC iter.                  ...        0 min,  0.019 sec
     gradient                   ...        0 min,  0.087 sec
 * total energy  :   -83.8871494 Eh     change       -0.9783906E-05 Eh
   gradient norm :     0.0018411 Eh/α   predicted    -0.6352918E-05 ( -35.07%)
   displ. norm   :     0.2178628 α      lambda       -0.2128012E-04
   maximum displ.:     0.0945848 α      in ANC's #6, #1, #8, ...

........................................................................
.............................. CYCLE   27 ..............................
........................................................................
   1    -84.6435328 -0.846435E+02  0.460E-03    0.74       0.0  T
   2    -84.6435332 -0.441642E-06  0.368E-03    0.74       4.1  T
   3    -84.6435340 -0.796371E-06  0.999E-04    0.74      15.3  T
   4    -84.6435340 -0.107015E-07  0.457E-04    0.74      33.4  T
   5    -84.6435340 -0.378947E-09  0.126E-04    0.74     121.2  T
   6    -84.6435340 -0.221021E-09  0.285E-05    0.74     534.3  T
     SCC iter.                  ...        0 min,  0.022 sec
     gradient                   ...        0 min,  0.087 sec
 * total energy  :   -83.8871716 Eh     change       -0.2219855E-04 Eh
   gradient norm :     0.0018851 Eh/α   predicted    -0.1086476E-04 ( -51.06%)
   displ. norm   :     0.1960180 α      lambda       -0.1992958E-04
   maximum displ.:     0.0839423 α      in ANC's #1, #6, #8, ...

........................................................................
.............................. CYCLE   28 ..............................
........................................................................
   1    -84.6436115 -0.846436E+02  0.381E-03    0.74       0.0  T
   2    -84.6436118 -0.311703E-06  0.303E-03    0.74       5.0  T
   3    -84.6436124 -0.539997E-06  0.666E-04    0.74      22.9  T
   4    -84.6436124 -0.676417E-08  0.326E-04    0.74      46.8  T
   5    -84.6436124 -0.707701E-09  0.101E-04    0.74     151.4  T
   6    -84.6436124 -0.837446E-10  0.224E-05    0.74     681.2  T
     SCC iter.                  ...        0 min,  0.022 sec
     gradient                   ...        0 min,  0.086 sec
 * total energy  :   -83.8871939 Eh     change       -0.2224029E-04 Eh
   gradient norm :     0.0015036 Eh/α   predicted    -0.1013816E-04 ( -54.42%)
   displ. norm   :     0.1724237 α      lambda       -0.1887964E-04
   maximum displ.:     0.0795654 α      in ANC's #1, #5, #8, ...

........................................................................
.............................. CYCLE   29 ..............................
........................................................................
   1    -84.6441301 -0.846441E+02  0.352E-03    0.73       0.0  T
   2    -84.6441303 -0.255730E-06  0.265E-03    0.73       5.8  T
   3    -84.6441307 -0.343488E-06  0.870E-04    0.73      17.5  T
   4    -84.6441307 -0.830016E-08  0.422E-04    0.73      36.1  T
   5    -84.6441307 -0.126363E-08  0.894E-05    0.73     170.6  T
   6    -84.6441307 -0.144453E-09  0.216E-05    0.73     704.9  T
     SCC iter.                  ...        0 min,  0.023 sec
     gradient                   ...        0 min,  0.086 sec
 * total energy  :   -83.8872129 Eh     change       -0.1899510E-04 Eh
   gradient norm :     0.0013945 Eh/α   predicted    -0.9569464E-05 ( -49.62%)
   displ. norm   :     0.2611852 α      lambda       -0.1559852E-04
   maximum displ.:     0.1158546 α      in ANC's #1, #8, #6, ...

........................................................................
.............................. CYCLE   30 ..............................
........................................................................
   1    -84.6417413 -0.846417E+02  0.546E-03    0.73       0.0  T
   2    -84.6417421 -0.766554E-06  0.369E-03    0.73       4.1  T
   3    -84.6417425 -0.442014E-06  0.172E-03    0.73       8.9  T
   4    -84.6417426 -0.409684E-07  0.829E-04    0.73      18.4  T
   5    -84.6417426 -0.101526E-07  0.184E-04    0.73      82.9  T
   6    -84.6417426 -0.970061E-09  0.354E-05    0.73     430.4  T
     SCC iter.                  ...        0 min,  0.023 sec
     gradient                   ...        0 min,  0.086 sec
 * total energy  :   -83.8872104 Eh     change        0.2449135E-05 Eh
   gradient norm :     0.0040891 Eh/α   predicted    -0.8036400E-05 (-428.13%)
   displ. norm   :     0.0583814 α      lambda       -0.3151631E-04
   maximum displ.:     0.0258997 α      in ANC's #6, #7, #15, ...

........................................................................
.............................. CYCLE   31 ..............................
........................................................................
   1    -84.6434020 -0.846434E+02  0.382E-03    0.73       0.0  T
   2    -84.6434023 -0.391570E-06  0.216E-03    0.73       7.1  T
   3    -84.6434024 -0.634895E-07  0.130E-03    0.73      11.8  T
   4    -84.6434024 -0.991029E-08  0.662E-04    0.73      23.0  T
   5    -84.6434024 -0.139675E-07  0.120E-04    0.73     127.1  T
   6    -84.6434024 -0.601531E-09  0.222E-05    0.73     686.9  T
     SCC iter.                  ...        0 min,  0.023 sec
     gradient                   ...        0 min,  0.087 sec
 * total energy  :   -83.8872311 Eh     change       -0.2073113E-04 Eh
   gradient norm :     0.0013407 Eh/α   predicted    -0.1582334E-04 ( -23.67%)
   displ. norm   :     0.0655887 α      lambda       -0.1155072E-04
   maximum displ.:     0.0278212 α      in ANC's #3, #15, #1, ...

........................................................................
.............................. CYCLE   32 ..............................
........................................................................
   1    -84.6445830 -0.846446E+02  0.319E-03    0.73       0.0  T
   2    -84.6445833 -0.326025E-06  0.162E-03    0.73       9.4  T
   3    -84.6445833 -0.197762E-07  0.959E-04    0.73      15.9  T
   4    -84.6445833  0.463089E-08  0.555E-04    0.73      27.5  T
   5    -84.6445833 -0.124271E-07  0.967E-05    0.73     157.7  T
   6    -84.6445833 -0.395289E-09  0.214E-05    0.73     713.6  T
     SCC iter.                  ...        0 min,  0.023 sec
     gradient                   ...        0 min,  0.086 sec
 * total energy  :   -83.8872414 Eh     change       -0.1023479E-04 Eh
   gradient norm :     0.0012669 Eh/α   predicted    -0.5789572E-05 ( -43.43%)
   displ. norm   :     0.0767570 α      lambda       -0.7695323E-05
   maximum displ.:     0.0371948 α      in ANC's #1, #3, #8, ...

........................................................................
.............................. CYCLE   33 ..............................
........................................................................
   1    -84.6445724 -0.846446E+02  0.160E-03    0.73       0.0  T
   2    -84.6445725 -0.901499E-07  0.123E-03    0.73      12.4  T
   3    -84.6445725 -0.717829E-07  0.451E-04    0.73      33.8  T
   4    -84.6445725 -0.130142E-08  0.252E-04    0.73      60.4  T
   5    -84.6445725 -0.436003E-09  0.461E-05    0.73     330.8  T
   6    -84.6445725 -0.404157E-10  0.101E-05    0.73    1511.3  T
     SCC iter.                  ...        0 min,  0.023 sec
     gradient                   ...        0 min,  0.086 sec
 * total energy  :   -83.8872512 Eh     change       -0.9815624E-05 Eh
   gradient norm :     0.0011431 Eh/α   predicted    -0.3858142E-05 ( -60.69%)
   displ. norm   :     0.2300986 α      lambda       -0.1769009E-04
   maximum displ.:     0.1163712 α      in ANC's #1, #8, #3, ...

........................................................................
.............................. CYCLE   34 ..............................
........................................................................
   1    -84.6432591 -0.846433E+02  0.536E-03    0.73       0.0  T
   2    -84.6432598 -0.766033E-06  0.446E-03    0.73       3.4  T
   3    -84.6432609 -0.107533E-05  0.125E-03    0.73      12.2  T
   4    -84.6432609 -0.100281E-07  0.649E-04    0.73      23.5  T
   5    -84.6432609 -0.290220E-08  0.181E-04    0.73      84.4  T
   6    -84.6432609 -0.662467E-09  0.300E-05    0.73     508.8  T
     SCC iter.                  ...        0 min,  0.018 sec
     gradient                   ...        0 min,  0.086 sec
 * total energy  :   -83.8872670 Eh     change       -0.1576817E-04 Eh
   gradient norm :     0.0021100 Eh/α   predicted    -0.9057312E-05 ( -42.56%)
   displ. norm   :     0.0631049 α      lambda       -0.7192157E-05
   maximum displ.:     0.0330152 α      in ANC's #1, #3, #8, ...

........................................................................
.............................. CYCLE   35 ..............................
........................................................................
   1    -84.6432407 -0.846432E+02  0.128E-03    0.73       0.0  T
   2    -84.6432407 -0.327112E-07  0.705E-04    0.73      21.6  T
   3    -84.6432407 -0.208731E-07  0.399E-04    0.73      38.2  T
   4    -84.6432407 -0.393568E-08  0.140E-04    0.73     108.8  T
   5    -84.6432407 -0.121290E-09  0.362E-05    0.73     420.9  T
     SCC iter.                  ...        0 min,  0.019 sec
     gradient                   ...        0 min,  0.087 sec
 * total energy  :   -83.8872731 Eh     change       -0.6115612E-05 Eh
   gradient norm :     0.0016077 Eh/α   predicted    -0.3611361E-05 ( -40.95%)
   displ. norm   :     0.2544886 α      lambda       -0.1922354E-04
   maximum displ.:     0.1353806 α      in ANC's #1, #3, #2, ...

........................................................................
.............................. CYCLE   36 ..............................
........................................................................
   1    -84.6430848 -0.846431E+02  0.475E-03    0.73       0.0  T
   2    -84.6430852 -0.445042E-06  0.308E-03    0.73       5.0  T
   3    -84.6430858 -0.557542E-06  0.116E-03    0.74      13.2  T
   4    -84.6430858 -0.319010E-07  0.417E-04    0.74      36.6  T
   5    -84.6430858 -0.482871E-09  0.177E-04    0.74      86.1  T
   6    -84.6430858 -0.510298E-09  0.414E-05    0.74     368.5  T
     SCC iter.                  ...        0 min,  0.021 sec
     gradient                   ...        0 min,  0.086 sec
 * total energy  :   -83.8872911 Eh     change       -0.1802688E-04 Eh
   gradient norm :     0.0018068 Eh/α   predicted    -0.9890141E-05 ( -45.14%)
   displ. norm   :     0.1461979 α      lambda       -0.1154916E-04
   maximum displ.:     0.0830402 α      in ANC's #1, #2, #3, ...

........................................................................
.............................. CYCLE   37 ..............................
........................................................................
   1    -84.6431520 -0.846432E+02  0.207E-03    0.74       0.0  T
   2    -84.6431521 -0.119145E-06  0.119E-03    0.74      12.8  T
   3    -84.6431521 -0.555140E-07  0.661E-04    0.74      23.1  T
   4    -84.6431521 -0.773727E-08  0.279E-04    0.74      54.7  T
   5    -84.6431521 -0.450413E-09  0.851E-05    0.74     179.3  T
   6    -84.6431521 -0.202050E-09  0.151E-05    0.74    1008.6  T
     SCC iter.                  ...        0 min,  0.022 sec
     gradient                   ...        0 min,  0.086 sec
 * total energy  :   -83.8873038 Eh     change       -0.1266762E-04 Eh
   gradient norm :     0.0019460 Eh/α   predicted    -0.5831615E-05 ( -53.96%)
   displ. norm   :     0.1028674 α      lambda       -0.1666179E-04
   maximum displ.:     0.0550177 α      in ANC's #1, #7, #2, ...

........................................................................
.............................. CYCLE   38 ..............................
........................................................................
   1    -84.6446774 -0.846447E+02  0.475E-03    0.74       0.0  T
   2    -84.6446779 -0.501838E-06  0.334E-03    0.74       4.6  T
   3    -84.6446783 -0.369894E-06  0.156E-03    0.74       9.8  T
   4    -84.6446783 -0.157374E-07  0.755E-04    0.74      20.2  T
   5    -84.6446783 -0.134916E-07  0.961E-05    0.74     158.7  T
   6    -84.6446783 -0.194362E-09  0.262E-05    0.74     581.2  T
     SCC iter.                  ...        0 min,  0.022 sec
     gradient                   ...        0 min,  0.086 sec
 * total energy  :   -83.8873102 Eh     change       -0.6422643E-05 Eh
   gradient norm :     0.0020895 Eh/α   predicted    -0.8371548E-05 (  30.34%)
   displ. norm   :     0.1690633 α      lambda       -0.1864260E-04
   maximum displ.:     0.0929220 α      in ANC's #1, #8, #2, ...

........................................................................
.............................. CYCLE   39 ..............................
........................................................................
   1    -84.6433934 -0.846434E+02  0.312E-03    0.74       0.0  T
   2    -84.6433937 -0.253368E-06  0.166E-03    0.74       9.2  T
   3    -84.6433937 -0.298687E-07  0.961E-04    0.74      15.9  T
   4    -84.6433937  0.129094E-08  0.486E-04    0.74      31.4  T
   5    -84.6433937 -0.102752E-07  0.113E-04    0.74     135.0  T
   6    -84.6433937 -0.531813E-09  0.125E-05    0.74    1219.6  T
     SCC iter.                  ...        0 min,  0.023 sec
     gradient                   ...        0 min,  0.086 sec
 * total energy  :   -83.8873197 Eh     change       -0.9517183E-05 Eh
   gradient norm :     0.0019832 Eh/α   predicted    -0.9588146E-05 (   0.75%)
   displ. norm   :     0.0330409 α      lambda       -0.5927414E-05
   maximum displ.:     0.0130906 α      in ANC's #3, #1, #7, ...

........................................................................
.............................. CYCLE   40 ..............................
........................................................................
   1    -84.6434335 -0.846434E+02  0.190E-03    0.74       0.0  T
   2    -84.6434336 -0.127625E-06  0.111E-03    0.74      13.7  T
   3    -84.6434336 -0.307599E-07  0.623E-04    0.74      24.5  T
   4    -84.6434336 -0.269786E-08  0.312E-04    0.74      48.9  T
   5    -84.6434336 -0.221507E-08  0.823E-05    0.74     185.3  T
   6    -84.6434336 -0.240320E-09  0.130E-05    0.74    1176.9  T
     SCC iter.                  ...        0 min,  0.022 sec
     gradient                   ...        0 min,  0.086 sec
 * total energy  :   -83.8873255 Eh     change       -0.5767635E-05 Eh
   gradient norm :     0.0010392 Eh/α   predicted    -0.2967367E-05 ( -48.55%)
   displ. norm   :     0.0662528 α      lambda       -0.6004205E-05
   maximum displ.:     0.0318220 α      in ANC's #1, #8, #2, ...

........................................................................
.............................. CYCLE   41 ..............................
........................................................................
   1    -84.6434293 -0.846434E+02  0.163E-03    0.74       0.0  T
   2    -84.6434295 -0.106538E-06  0.748E-04    0.74      20.4  T
   3    -84.6434295 -0.374131E-08  0.399E-04    0.74      38.2  T
   4    -84.6434295 -0.728591E-10  0.149E-04    0.74     102.7  T
   5    -84.6434295 -0.189843E-09  0.472E-05    0.74     322.8  T
     SCC iter.                  ...        0 min,  0.018 sec
     gradient                   ...        0 min,  0.086 sec
 * total energy  :   -83.8873311 Eh     change       -0.5607832E-05 Eh
   gradient norm :     0.0011558 Eh/α   predicted    -0.3011407E-05 ( -46.30%)
   displ. norm   :     0.0734765 α      lambda       -0.3684957E-05
   maximum displ.:     0.0374680 α      in ANC's #1, #8, #2, ...

........................................................................
.............................. CYCLE   42 ..............................
........................................................................
   1    -84.6436484 -0.846436E+02  0.108E-03    0.74       0.0  T
   2    -84.6436484 -0.432154E-07  0.500E-04    0.74      30.5  T
   3    -84.6436484 -0.434402E-08  0.247E-04    0.74      61.6  T
   4    -84.6436484  0.332804E-09  0.172E-04    0.74      88.5  T
   5    -84.6436484 -0.107450E-08  0.335E-05    0.74     455.3  T
     SCC iter.                  ...        0 min,  0.018 sec
     gradient                   ...        0 min,  0.086 sec
 * total energy  :   -83.8873351 Eh     change       -0.3970981E-05 Eh
   gradient norm :     0.0008628 Eh/α   predicted    -0.1850368E-05 ( -53.40%)
   displ. norm   :     0.0966975 α      lambda       -0.3454449E-05
   maximum displ.:     0.0502848 α      in ANC's #1, #8, #2, ...

   *** GEOMETRY OPTIMIZATION CONVERGED AFTER 42 ITERATIONS ***

------------------------------------------------------------------------
 total energy gain   :        -0.0218201 Eh      -13.6923 kcal/mol
 total RMSD          :         0.6764470 a0        0.3580 Å
 total power (kW/mol):        -1.3640147 (step)   -9.1457 (real)
------------------------------------------------------------------------

 ANCopt (total)                0 d,  0 h,  0 min,  6.264 sec
 optimizer setup                ...        0 min,  0.001 sec (  0.012%)
 model hessian                  ...        0 min,  0.086 sec (  1.375%)
 ANC generation                 ...        0 min,  0.005 sec (  0.082%)
 coordinate transformation      ...        0 min,  0.002 sec (  0.027%)
 single point calculation       ...        0 min,  6.145 sec ( 98.094%)
 optimization log               ...        0 min,  0.012 sec (  0.198%)
 hessian update                 ...        0 min,  0.001 sec (  0.022%)
 rational function              ...        0 min,  0.008 sec (  0.120%)

================
 final structure:
================
43
 xtb: 6.5.1 (579679a)
C           -4.09338657678944        1.47517394984866       -3.21797904781382
O           -3.88676399006103        0.87355715907619       -1.94454428611589
C           -2.61255045866683        0.78220757265171       -1.52766719852632
O           -1.69449091396578        1.19316698784892       -2.21371926433400
C           -2.43829003130716        0.14502699919555       -0.19132743416298
C           -3.49084350408894       -0.32974994325748        0.58849641365530
O           -4.83599912379733       -0.15993278026159        0.25702572778150
C           -3.22739245787303       -1.09049297672417        1.76075861054019
O           -4.11089548200288       -1.59989332842985        2.47469156766294
N           -1.88258894046651       -1.33627588857296        2.02218390755691
C           -0.87191973994226       -0.41835669003951        1.50740274349660
C           -0.76183732599800        0.80963242122551        2.44483541505362
C            0.48978166670779       -1.18416707948533        1.41114661845245
C            0.28380544356518       -2.47960553493769        0.61397107610272
C            1.10705061531373       -1.48490714877386        2.77842036901284
N            1.36499273680258       -0.29691918348959        0.63971764733087
C            2.65686940857560       -0.51832880268655        0.37706668066595
O            3.35734266902034       -1.39988193750122        0.85696947251610
C            3.18490283972848        0.48765385262448       -0.59225745975618
N            2.50742455045123        1.43059020472512       -1.17217359861210
N            3.37650225002965        2.09694484380757       -1.98794863805152
C            4.52695405910322        1.51485421153012       -1.85345701654656
C            5.79891710450072        1.86148666914446       -2.52606984714044
O            4.47352210840997        0.49092977164938       -0.98763210276309
N           -1.16187393219909        0.05270729430825        0.17280544941894
H           -3.76701047804948        2.51958974351218       -3.20572002002814
H           -5.16139169145546        1.42301138933240       -3.42537986529037
H           -3.53556308020650        0.93858952128864       -3.99151611587513
H           -5.34125121991172       -0.60691660437775        0.95580655255885
H           -1.71298551875292       -1.65937657111874        2.96317584772618
H           -0.63944235007522        0.49772041447586        3.47983765986683
H            0.08543404535495        1.42667736218713        2.15064032497128
H           -1.67326545693201        1.40114527285198        2.36505461850820
H           -0.38293637599327       -3.14434792243042        1.16140019654804
H           -0.16462003189767       -2.24702525314411       -0.35272853421405
H            1.23640904092223       -2.98297834505696        0.45554806751702
H            1.95164447744733       -2.16462042148063        2.67345591020129
H            1.45923100061479       -0.57072168629404        3.25357557209798
H            0.36785638544122       -1.95580492523887        3.42436724702080
H            0.85805289767580        0.37844318722708        0.06423333065941
H            5.65435953739325        2.73761141802831       -3.15288561622778
H            6.13679310343374        1.02716475195788       -3.14036278995408
H            6.56945373993770        2.06641602480407       -1.78382419150751
 
 Bond Distances (Angstroems)
 ---------------------------
C1-O2=1.4235         C1-H26=1.0943        C1-H27=1.0892        C1-H28=1.0943        O2-C1=1.4235         O2-C3=1.3438         
C3-O2=1.3438         C3-O4=1.2175         C3-C5=1.4907         O4-C3=1.2175         C5-C3=1.4907         C5-C6=1.3933         
C5-N25=1.3305        C6-C5=1.3933         C6-O7=1.3958         C6-C8=1.4221         O7-C6=1.3958         O7-H29=0.9713        
C8-C6=1.4221         C8-O9=1.2449         C8-N10=1.3919        O9-C8=1.2449         N10-C8=1.3919        N10-C11=1.4591       
N10-H30=1.0093       C11-N10=1.4591       C11-C12=1.5488       C11-C13=1.5652       C11-N25=1.4447       C12-C11=1.5488       
C12-H31=1.0879       C12-H32=1.0887       C12-H33=1.0895       C13-C11=1.5652       C13-C14=1.5350       C13-C15=1.5300       
C13-N16=1.4657       C14-C13=1.5350       C14-H34=1.0891       C14-H35=1.0907       C14-H36=1.0890       C15-C13=1.5300       
C15-H37=1.0892       C15-H38=1.0888       C15-H39=1.0888       N16-C13=1.4657       N16-C17=1.3368       N16-H40=1.0219       
C17-N16=1.3368       C17-O18=1.2240       C17-C19=1.4935       O18-C17=1.2240       C19-C17=1.4935       C19-N20=1.2978       
C19-O24=1.3479       N20-C19=1.2978       N20-N21=1.3656       N21-N20=1.3656       N21-C22=1.2963       C22-N21=1.2963       
C22-C23=1.4800       C22-O24=1.3420       C23-C22=1.4800       C23-H41=1.0869       C23-H42=1.0898       C23-H43=1.0893       
O24-C19=1.3479       O24-C22=1.3420       N25-C5=1.3305        N25-C11=1.4447       H26-C1=1.0943        H27-C1=1.0892        
H28-C1=1.0943        H29-O7=0.9713        H30-N10=1.0093       H31-C12=1.0879       H32-C12=1.0887       H33-C12=1.0895       
H34-C14=1.0891       H35-C14=1.0907       H36-C14=1.0890       H37-C15=1.0892       H38-C15=1.0888       H39-C15=1.0888       
H40-N16=1.0219       H41-C23=1.0869       H42-C23=1.0898       H43-C23=1.0893       
 C  H  Rav=1.0897 sigma=0.0020  Rmin=1.0869  Rmax=1.0943    15
 C  C  Rav=1.4954 sigma=0.0543  Rmin=1.3933  Rmax=1.5652     9
 N  H  Rav=1.0156 sigma=0.0063  Rmin=1.0093  Rmax=1.0219     2
 N  C  Rav=1.3779 sigma=0.0670  Rmin=1.2963  Rmax=1.4657     8
 N  N  Rav=1.3656 sigma=0.0000  Rmin=1.3656  Rmax=1.3656     1
 O  H  Rav=0.9713 sigma=0.0000  Rmin=0.9713  Rmax=0.9713     1
 O  C  Rav=1.3174 sigma=0.0738  Rmin=1.2175  Rmax=1.4235     8
 
 selected bond angles (degree)
 --------------------
H26-C1-O2=110.49               H27-C1-O2=107.00               H27-C1-H26=109.89              H28-C1-O2=110.56               
H28-C1-H26=108.90              H28-C1-H27=109.98              C3-O2-C1=116.35                O4-C3-O2=121.15                
C5-C3-O2=114.71                C5-C3-O4=124.14                C6-C5-C3=123.99                N25-C5-C3=112.78               
N25-C5-C6=123.22               O7-C6-C5=123.62                C8-C6-C5=120.24                C8-C6-O7=116.06                
H29-O7-C6=105.93               O9-C8-C6=124.07                N10-C8-C6=115.36               N10-C8-O9=120.38               
C11-N10-C8=119.46              H30-N10-C8=113.20              H30-N10-C11=114.45             
 
 selected dihedral angles (degree)
 ---------------------------------
C3-O2-C1-H26=296.67           C3-O2-C1-H27=177.06           C3-O2-C1-H28= 57.30           O4-C3-O2-C1=359.84            
C5-C3-O2-C1=180.08            C6-C5-C3-O2=  0.06            C6-C5-C3-O4=180.31            N25-C5-C3-O2=178.87           
N25-C5-C3-O4=359.12           O7-C6-C5-C3=354.34            O7-C6-C5-N25=175.65           C8-C6-C5-C3=171.12            
C8-C6-C5-N25=352.43           H29-O7-C6-C5=178.44           H29-O7-C6-C8=  1.54           O9-C8-C6-C5=183.40            
O9-C8-C6-O7=  0.41            N10-C8-C6-C5=358.34           N10-C8-C6-O7=175.35           C11-N10-C8-C6= 25.57          
C11-N10-C8-O9=200.71          H30-N10-C8-C6=164.99          H30-N10-C8-O9=340.13          
           -------------------------------------------------
          |                Final Singlepoint                |
           -------------------------------------------------

          ...................................................
          :                      SETUP                      :
          :.................................................:
          :  # basis functions                 136          :
          :  # atomic orbitals                 136          :
          :  # shells                           86          :
          :  # electrons                       136          :
          :  # halogen bonds                     0          :
          :  max. iterations                   250          :
          :  Hamiltonian                  GFN1-xTB          :
          :  restarted?                      false          :
          :  GBSA solvation                   true          :
          :  PC potential                    false          :
          :  electronic temp.          300.0000000     K    :
          :  accuracy                    1.0000000          :
          :  -> integral cutoff          0.2500000E+02      :
          :  -> integral neglect         0.1000000E-07      :
          :  -> SCF convergence          0.1000000E-05 Eh   :
          :  -> wf. convergence          0.2000000E-04 e    :
          :  Broyden damping             0.4000000          :
          ...................................................

 iter      E             dE          RMSdq      gap      omega  full diag
   1    -84.6436484 -0.846436E+02  0.990E-06    0.74       0.0  T
   2    -84.6436484 -0.980549E-12  0.561E-06    0.74    2716.7  T
   3    -84.6436484 -0.426326E-12  0.383E-06    0.74    3984.2  T

   *** convergence criteria satisfied after 3 iterations ***

         #    Occupation            Energy/Eh            Energy/eV
      -------------------------------------------------------------
         1        2.0000           -0.8547508             -23.2590
       ...           ...                  ...                  ...
        62        2.0000           -0.4387819             -11.9399
        63        2.0000           -0.4313573             -11.7378
        64        2.0000           -0.4258841             -11.5889
        65        2.0000           -0.4084197             -11.1137
        66        2.0000           -0.3955923             -10.7646
        67        2.0000           -0.3832461             -10.4287
        68        2.0000           -0.3231463              -8.7933 (HOMO)
        69        0.0000           -0.2960321              -8.0554 (LUMO)
        70                         -0.2703945              -7.3578
        71                         -0.2492906              -6.7835
        72                         -0.1925115              -5.2385
        73                         -0.1849353              -5.0323
       ...                                ...                  ...
       136                          0.7365483              20.0425
      -------------------------------------------------------------
                  HL-Gap            0.0271142 Eh            0.7378 eV
             Fermi-level           -0.3095892 Eh           -8.4244 eV

 SCC (total)                   0 d,  0 h,  0 min,  0.140 sec
 SCC setup                      ...        0 min,  0.002 sec (  1.418%)
 Dispersion                     ...        0 min,  0.000 sec (  0.262%)
 classical contributions        ...        0 min,  0.000 sec (  0.083%)
 integral evaluation            ...        0 min,  0.038 sec ( 27.158%)
 iterations                     ...        0 min,  0.012 sec (  8.309%)
 molecular gradient             ...        0 min,  0.087 sec ( 62.090%)
 printout                       ...        0 min,  0.001 sec (  0.640%)

         :::::::::::::::::::::::::::::::::::::::::::::::::::::
         ::                     SUMMARY                     ::
         :::::::::::::::::::::::::::::::::::::::::::::::::::::
         :: total energy             -83.887335055435 Eh    ::
         :: total w/o Gsasa/hb       -83.864965755892 Eh    ::
         :: gradient norm              0.000862962454 Eh/a0 ::
         :: HOMO-LUMO gap              0.737813864136 eV    ::
         ::.................................................::
         :: SCC energy               -84.643648441950 Eh    ::
         :: -> electrostatic           0.453067574439 Eh    ::
         :: -> Gsolv                  -0.109555596180 Eh    ::
         ::    -> Gelec               -0.087186296637 Eh    ::
         ::    -> Gsasa               -0.023828743187 Eh    ::
         ::    -> Ghb                 -0.006164835361 Eh    ::
         ::    -> Gshift               0.007624279005 Eh    ::
         :: repulsion energy           0.783990100461 Eh    ::
         :: dispersion energy         -0.027676713946 Eh    ::
         :: halogen bond corr.         0.000000000000 Eh    ::
         :: add. restraining           0.000000000000 Eh    ::
         :: total charge              -1.000000000000 e     ::
         :::::::::::::::::::::::::::::::::::::::::::::::::::::

           -------------------------------------------------
          |                Property Printout                |
           -------------------------------------------------

    * Orbital Energies and Occupations

         #    Occupation            Energy/Eh            Energy/eV
      -------------------------------------------------------------
         1        2.0000           -0.8547508             -23.2590
       ...           ...                  ...                  ...
        56        2.0000           -0.4761741             -12.9574
        57        2.0000           -0.4726741             -12.8621
        58        2.0000           -0.4624747             -12.5846
        59        2.0000           -0.4505167             -12.2592
        60        2.0000           -0.4495922             -12.2340
        61        2.0000           -0.4439346             -12.0801
        62        2.0000           -0.4387819             -11.9399
        63        2.0000           -0.4313573             -11.7378
        64        2.0000           -0.4258841             -11.5889
        65        2.0000           -0.4084197             -11.1137
        66        2.0000           -0.3955923             -10.7646
        67        2.0000           -0.3832461             -10.4287
        68        2.0000           -0.3231463              -8.7933 (HOMO)
        69        0.0000           -0.2960321              -8.0554 (LUMO)
        70                         -0.2703945              -7.3578
        71                         -0.2492906              -6.7835
        72                         -0.1925115              -5.2385
        73                         -0.1849353              -5.0323
        74                         -0.1402248              -3.8157
        75                         -0.1282634              -3.4902
        76                         -0.1172957              -3.1918
        77                         -0.1126394              -3.0651
        78                         -0.1038190              -2.8251
        79                         -0.0974214              -2.6510
       ...                                ...                  ...
       136                          0.7365483              20.0425
      -------------------------------------------------------------
                  HL-Gap            0.0271142 Eh            0.7378 eV
             Fermi-level           -0.3095892 Eh           -8.4244 eV

  Mulliken/CM5 charges         n(s)   n(p)   n(d)
     1C     0.17019  0.05050   0.973  2.857  0.000
     2O    -0.41882 -0.50230   1.686  4.733  0.000
     3C     0.56025  0.62660   0.988  2.452  0.000
     4O    -0.59460 -0.63861   1.732  4.863  0.000
     5C     0.09677  0.18021   1.040  2.863  0.000
     6C     0.08979  0.11992   1.002  2.908  0.000
     7O    -0.57795 -0.76769   1.710  4.868  0.000
     8C     0.41750  0.51270   0.989  2.593  0.000
     9O    -0.66601 -0.71087   1.743  4.923  0.000
    10N    -0.40825 -0.75320   1.450  3.959  0.000
    11C     0.26211  0.36231   1.046  2.692  0.000
    12C    -0.11695 -0.25230   1.022  3.095  0.000
    13C     0.15210  0.19128   1.072  2.776  0.000
    14C    -0.09344 -0.23087   1.015  3.079  0.000
    15C    -0.10539 -0.24641   1.016  3.090  0.000
    16N    -0.32183 -0.67300   1.437  3.885  0.000
    17C     0.45892  0.56952   0.973  2.568  0.000
    18O    -0.59408 -0.63772   1.729  4.865  0.000
    19C     0.33144  0.45727   1.014  2.654  0.000
    20N    -0.24404 -0.35455   1.568  3.676  0.000
    21N    -0.27317 -0.38109   1.566  3.707  0.000
    22C     0.38451  0.49344   1.005  2.610  0.000
    23C    -0.11070 -0.24818   1.011  3.100  0.000
    24O    -0.34579 -0.39709   1.693  4.653  0.000
    25N    -0.51188 -0.69948   1.551  3.960  0.000
    26H     0.03790  0.09926   0.962  0.000  0.000
    27H     0.04022  0.10049   0.960  0.000  0.000
    28H     0.03839  0.10040   0.962  0.000  0.000
    29H     0.36371  0.54367   0.636  0.000  0.000
    30H     0.22427  0.42490   0.776  0.000  0.000
    31H     0.02892  0.08577   0.971  0.000  0.000
    32H     0.02876  0.08803   0.971  0.000  0.000
    33H     0.03496  0.09374   0.965  0.000  0.000
    34H     0.03086  0.08950   0.969  0.000  0.000
    35H     0.03160  0.09256   0.968  0.000  0.000
    36H     0.03498  0.09329   0.965  0.000  0.000
    37H     0.04667  0.10626   0.953  0.000  0.000
    38H     0.03541  0.09286   0.965  0.000  0.000
    39H     0.03446  0.09088   0.966  0.000  0.000
    40H     0.23331  0.44825   0.767  0.000  0.000
    41H     0.06554  0.12140   0.934  0.000  0.000
    42H     0.07477  0.12921   0.925  0.000  0.000
    43H     0.07456  0.12916   0.925  0.000  0.000

Wiberg/Mayer (AO) data.
largest (>0.10) Wiberg bond orders for each atom

 ---------------------------------------------------------------------------
     #   Z sym  total        # sym  WBO       # sym  WBO       # sym  WBO
 ---------------------------------------------------------------------------
     1   6 C    3.892 --    27 H    0.987    26 H    0.980    28 H    0.980
                             2 O    0.916
     2   8 O    2.187 --     3 C    1.085     1 C    0.916     4 O    0.123
     3   6 C    3.823 --     4 O    1.636     2 O    1.085     5 C    1.007
     4   8 O    1.890 --     3 C    1.636     2 O    0.123
     5   6 C    3.971 --    25 N    1.399     6 C    1.344     3 C    1.007
     6   6 C    3.871 --     5 C    1.344     8 C    1.192     7 O    0.979
                            25 N    0.176
     7   8 O    1.953 --     6 C    0.979    29 H    0.847
     8   6 C    3.916 --     9 O    1.475     6 C    1.192    10 N    1.093
     9   8 O    1.806 --     8 C    1.475    10 N    0.103
    10   7 N    3.207 --     8 C    1.093    11 C    0.941    30 H    0.917
                             9 O    0.103
    11   6 C    3.945 --    25 N    1.006    12 C    0.972    13 C    0.947
                            10 N    0.941
    12   6 C    3.996 --    32 H    0.985    31 H    0.985    33 H    0.984
                            11 C    0.972
    13   6 C    3.926 --    15 C    1.000    14 C    0.991    11 C    0.947
                            16 N    0.920
    14   6 C    3.995 --    13 C    0.991    36 H    0.986    34 H    0.984
                            35 H    0.983
    15   6 C    3.994 --    13 C    1.000    38 H    0.984    39 H    0.983
                            37 H    0.980
    16   7 N    3.385 --    17 C    1.299    13 C    0.920    40 H    0.875
                            18 O    0.186
    17   6 C    3.924 --    18 O    1.563    16 N    1.299    19 C    0.979
    18   8 O    1.882 --    17 C    1.563    16 N    0.186
    19   6 C    3.868 --    20 N    1.620    24 O    1.059    17 C    0.979
    20   7 N    3.010 --    19 C    1.620    21 N    1.190
    21   7 N    2.980 --    22 C    1.616    20 N    1.190
    22   6 C    3.874 --    21 N    1.616    24 O    1.080    23 C    1.030
    23   6 C    3.988 --    22 C    1.030    41 H    0.983    43 H    0.966
                            42 H    0.964
    24   8 O    2.322 --    22 C    1.080    19 C    1.059
    25   7 N    2.945 --     5 C    1.399    11 C    1.006     6 C    0.176
    26   1 H    1.012 --     1 C    0.980
    27   1 H    1.014 --     1 C    0.987
    28   1 H    1.013 --     1 C    0.980
    29   1 H    0.888 --     7 O    0.847
    30   1 H    0.964 --    10 N    0.917
    31   1 H    1.005 --    12 C    0.985
    32   1 H    1.009 --    12 C    0.985
    33   1 H    1.007 --    12 C    0.984
    34   1 H    1.014 --    14 C    0.984
    35   1 H    1.017 --    14 C    0.983
    36   1 H    1.008 --    14 C    0.986
    37   1 H    1.016 --    15 C    0.980
    38   1 H    1.005 --    15 C    0.984
    39   1 H    1.003 --    15 C    0.983
    40   1 H    0.990 --    16 N    0.875
    41   1 H    0.999 --    23 C    0.983
    42   1 H    0.998 --    23 C    0.964
    43   1 H    0.998 --    23 C    0.966
 ---------------------------------------------------------------------------

Topologies differ in total number of bonds
Writing topology from bond orders to xtbtopo.mol

 dipole moment from electron density (au)
     X       Y       Z   
   3.7492   1.0774  -0.5944  total (Debye):   10.029

           -------------------------------------------------
          |                Geometry Summary                 |
           -------------------------------------------------

      molecular mass/u    :      352.3231817
   center of mass at/Å    :       -0.1126101       0.0328024      -0.0188742
  moments of inertia/u·Å² :        0.1498684E+04   0.3761621E+04   0.4955385E+04
rotational constants/cm⁻¹ :        0.1124829E-01   0.4481481E-02   0.3401881E-02

 * 38 selected distances

     #   Z          #   Z                                           value/Å
     1   6 C        2   8 O                                       1.4234719
     2   8 O        3   6 C                                       1.3437826
     3   6 C        4   8 O                                       1.2175339
     5   6 C        6   6 C                                       1.3933440
     6   6 C        7   8 O                                       1.3957631
     6   6 C        8   6 C                                       1.4220884
     8   6 C        9   8 O                                       1.2448963
     8   6 C       10   7 N                                       1.3918510
    10   7 N       11   6 C                                       1.4591189
    13   6 C       14   6 C                                       1.5349516 (max)
    13   6 C       15   6 C                                       1.5300011
    13   6 C       16   7 N                                       1.4657102
    16   7 N       17   6 C                                       1.3367698
    17   6 C       18   8 O                                       1.2239713
    19   6 C       20   7 N                                       1.2978478
    21   7 N       22   6 C                                       1.2963245
    22   6 C       23   6 C                                       1.4800177
    19   6 C       24   8 O                                       1.3479139
    22   6 C       24   8 O                                       1.3419871
     5   6 C       25   7 N                                       1.3305465
     1   6 C       26   1 H                                       1.0942926
     1   6 C       27   1 H                                       1.0892067
     1   6 C       28   1 H                                       1.0942805
     7   8 O       29   1 H                                       0.9712719 (min)
    10   7 N       30   1 H                                       1.0092697
    12   6 C       31   1 H                                       1.0878876
    12   6 C       32   1 H                                       1.0886525
    12   6 C       33   1 H                                       1.0894741
    14   6 C       34   1 H                                       1.0890849
    14   6 C       35   1 H                                       1.0907279
    14   6 C       36   1 H                                       1.0890068
    15   6 C       37   1 H                                       1.0892046
    15   6 C       38   1 H                                       1.0888245
    15   6 C       39   1 H                                       1.0887610
    16   7 N       40   1 H                                       1.0219025
    23   6 C       41   1 H                                       1.0869175
    23   6 C       42   1 H                                       1.0897749
    23   6 C       43   1 H                                       1.0893354

 * 6 distinct bonds (by element types)

   Z      Z             #   av. dist./Å        max./Å        min./Å
   1 H    6 C          15     1.0896954     1.0942926     1.0869175
   6 C    6 C           5     1.4720806     1.5349516     1.3933440
   1 H    7 N           2     1.0155861     1.0219025     1.0092697
   6 C    7 N           7     1.3683098     1.4657102     1.2963245
   1 H    8 O           1     0.9712719     0.9712719     0.9712719
   6 C    8 O           8     1.3174150     1.4234719     1.2175339


optimized geometry written to: xtbopt.xyz


           -------------------------------------------------
          | TOTAL ENERGY              -83.887335055435 Eh   |
          | GRADIENT NORM               0.000862962454 Eh/α |
          | HOMO-LUMO GAP               0.737813864136 eV   |
           -------------------------------------------------

------------------------------------------------------------------------
 * finished run on 2023/06/20 at 15:00:41.466     
------------------------------------------------------------------------
 total:
 * wall-time:     0 d,  0 h,  0 min,  6.691 sec
 *  cpu-time:     0 d,  0 h,  0 min,  6.622 sec
 * ratio c/w:     0.990 speedup
 SCF:
 * wall-time:     0 d,  0 h,  0 min,  0.195 sec
 *  cpu-time:     0 d,  0 h,  0 min,  0.177 sec
 * ratio c/w:     0.905 speedup
 ANC optimizer:
 * wall-time:     0 d,  0 h,  0 min,  6.417 sec
 *  cpu-time:     0 d,  0 h,  0 min,  6.392 sec
 * ratio c/w:     0.996 speedup

