43
 energy: -76.181619500467 gnorm: 0.000462418153 xtb: 6.5.1 (579679a)
C           -3.78549828882597       -0.09334328503233        2.19652018502172
N           -2.57420071704315        0.15013779061533        1.41005577948329
C           -2.52470626120678        0.04869033545386        0.04152930179252
C           -3.73420958744113       -0.35826223732087       -0.79206361050275
C           -3.84735850836091       -1.89036101726300       -0.77756651660349
C           -3.52975781167536        0.12167876803675       -2.23937906479709
N           -4.95853782438864        0.22232954009781       -0.25113910907337
N           -1.42539693168911        0.23978472778639       -0.61728508764843
C           -0.26086208959049        0.58936883634862        0.00493289568448
C            0.91796190923357        0.71907794375740       -0.91731860135665
O            0.90902233115261        0.23288442978563       -2.04203317129606
N            1.96468325975984        1.41379601218020       -0.43137143955739
C            3.20358883974854        1.53730416894617       -1.19003955363925
C            4.20180807885540        0.48873219333524       -0.74701095929368
C            5.36773280867593        0.85827195077489       -0.08226622830754
C            6.27633360556210       -0.10332447156322        0.34059570237437
C            5.98770338443827       -1.43178599482871        0.08902818420641
F            6.85814115008345       -2.36986235333355        0.49797717536949
C            4.83874824504917       -1.83460660176484       -0.56905490678488
C            3.94486995171630       -0.86050270107246       -0.98805505106183
C           -0.25231247268485        0.74103253834818        1.36013361524884
O            0.83926097884772        1.07523031721430        2.08316245558640
C           -1.45756783891347        0.52039482312736        2.13536631890223
O           -1.46716573771811        0.64560935828481        3.35970065075293
H           -4.30859061703655       -0.96633764949442        1.81984819265101
H           -4.44183628783566        0.77320832225295        2.13776570591080
H           -3.48890204394693       -0.25966620796079        3.23194941623320
H           -2.91642257755137       -2.33378073194038       -1.12990104767247
H           -4.65766390746046       -2.20218982704304       -1.43492071583291
H           -4.05418360303979       -2.25880668163727        0.22569192877200
H           -2.65701368981007       -0.35816841718160       -2.68105905605389
H           -3.38450663056932        1.20089326414519       -2.25875386452978
H           -4.41050184748632       -0.12724950939876       -2.82840327030208
H           -4.98799478418780        1.21163821922750       -0.46054133415079
H           -5.75553738586604       -0.20790531566258       -0.69841175990108
H            1.96969464385369        1.75648766397187        0.51442158253791
H            3.60493008172379        2.54119344819414       -1.03260667742463
H            2.96246995958656        1.40998195616541       -2.25080436436495
H            5.57412078193582        1.90490970100654        0.10770049274122
H            7.18650445854794        0.17175518211834        0.85701646044085
H            4.65247222881489       -2.88567429952558       -0.74747331269812
H            3.03843248242688       -1.15130384184619       -1.50728809673689
H            0.58224726431450        1.11874065269378        3.02410675587981
