42
 energy: -83.005153944953 gnorm: 0.000788995883 xtb: 6.5.1 (579679a)
C            2.67540224682057        3.09639639499324       -1.73710254036587
O            2.24176041197141        1.93042622796819       -1.02245889146501
C            3.17678666305354        1.02938119395031       -0.74626992641290
O            4.33640231106224        1.17319476601686       -1.09246416735841
C            2.71063101244784       -0.20215692145561       -0.07006437551219
C            3.48136459146719       -1.33434484680589       -0.15093043876192
O            4.68688385583614       -1.37956872732625       -0.71171819335410
C            2.97319342819756       -2.62307194468745        0.37723672717527
O            3.66279449690693       -3.62950599300881        0.43919517874681
N            1.65743466604966       -2.60500963787172        0.76594283301878
C            0.96104896405739       -1.51018515875213        0.85239069019961
C           -0.46836530789193       -1.71734537765924        1.34709818681655
C           -0.53476854751120       -1.56537572404478        2.87073319057544
C           -0.93322639536361       -3.13315733956986        0.96644332296352
N           -1.37881437905907       -0.75547642264375        0.72907821776972
C           -1.44981381251641       -0.61468406998489       -0.61336186476705
O           -0.71116874040571       -1.17296173789714       -1.40754165709205
C           -2.51354473389752        0.32686864294050       -1.03701993126235
N           -2.86807668526526        0.63713094835567       -2.24491610286284
N           -3.88962953771293        1.53237940496828       -2.13719116610241
C           -4.09520147265149        1.71493221933875       -0.87005469849157
C           -5.09101540817602        2.59882199417171       -0.22710535146308
O           -3.25822932999803        0.98015897043323       -0.11863250593084
N            1.46126205517710       -0.28802752508664        0.55354261855727
C            0.80789222642219        0.95027609518801        0.97279293843286
H            3.05581507654916        2.80983308045848       -2.71978925459659
H            3.46198475540685        3.60349083513104       -1.17542306610600
H            1.80322780871551        3.73845714591102       -1.83604327978777
H            4.96774960746955       -0.48803065215754       -1.01995167330398
H           -1.53724952152835       -1.81054884650671        3.21724685179969
H            0.17628571432649       -2.24979481827833        3.33226059766628
H           -0.29906577452473       -0.55232754045448        3.18756043970309
H           -0.33627256130914       -3.87290195661180        1.49664702984451
H           -0.82545486172590       -3.29305284668285       -0.10539234456836
H           -1.97853605679913       -3.25021513342441        1.24404574161988
H           -2.07116876139036       -0.31520152169641        1.30875202206779
H           -5.73370482617885        3.04308624339012       -0.98383927123359
H           -5.69229623201622        2.02692375657099        0.47973143896956
H           -4.58118112965674        3.38749336455293        0.32674017868845
H            0.16456238224711        0.75422694626688        1.82211178311837
H            0.21347863726283        1.36512972004468        0.16026410836455
H            1.57082316413420        1.66433579195698        1.27319660470145
