38
 energy: -79.614039735745 gnorm: 0.000506865194 xtb: 6.5.1 (579679a)
C            6.77398359175878       -0.14755418062422       -0.21095157946871
O            5.48482875007604        0.46936082373081       -0.19713139970577
C            4.42931416234158       -0.37416743274625       -0.12660045034234
O            4.58620944443124       -1.57650664450967       -0.07772720928727
C            3.11634124392433        0.30441184014715       -0.11831063049802
N            2.06183455525230       -0.56905577717099       -0.07287459042789
C            0.85346850541763       -0.05311732307618       -0.06090288593191
C           -0.28873785434538       -1.06392777746569       -0.02769032434393
C           -0.14284691977216       -1.95914919370811        1.20950693834376
C           -0.24931897023879       -1.90220631079179       -1.31283324374626
N           -1.53656172840795       -0.30819658049271        0.04186766037088
C           -2.75782603213829       -0.84562339803421        0.08517364006349
O           -3.02119825699073       -2.04096292576480        0.07119744375523
C           -3.81035532875990        0.21050855884699        0.15704403511777
N           -3.61512314160209        1.49153718169406        0.23207159963051
N           -4.84760818876206        2.07624444514573        0.28451299177659
C           -5.71414835968158        1.11295895596691        0.23751854011344
C           -7.18979040528648        1.22408078597218        0.24968398747892
O           -5.12402269219255       -0.08914750880869        0.15735868503051
N            0.52871392341106        1.23305387756392       -0.08390945901359
C            1.51101316648550        2.17717337353302       -0.12993163447099
O            1.25783218517033        3.39141947832650       -0.15297986561195
C            2.89264315329768        1.66178059895400       -0.15026849581967
O            3.85629603850624        2.61341297674858       -0.20129623625814
H            6.87580080858358       -0.78960015568324       -1.08975998646797
H            7.50802849199502        0.65428554001125       -0.24620858436224
H            6.91506847940338       -0.74785186908474        0.69147171908421
H           -0.89727723594969       -2.74421745123549        1.20840849626301
H            0.84746018460588       -2.41329368582756        1.20011058495620
H           -0.25044527673459       -1.36424428853684        2.11599766559729
H           -1.02253363949418       -2.66865120694506       -1.29664881246043
H           -0.40096672103127       -1.26171341625162       -2.18123512395618
H            0.72680059339808       -2.37966478974884       -1.39173850039124
H           -1.42328792550823        0.70610588773237        0.05106605765610
H           -7.60870324997012        0.57311448497441        1.01573953079730
H           -7.59382375475201        0.91312622876957       -0.71376958993120
H           -7.47788392742453        2.25401076337477        0.44460145695815
H            4.74682033099109        2.23226411501554       -0.22550143049588
