      -----------------------------------------------------------      
     |                   =====================                   |     
     |                           x T B                           |     
     |                   =====================                   |     
     |                         S. Grimme                         |     
     |          Mulliken Center for Theoretical Chemistry        |     
     |                    University of Bonn                     |     
      -----------------------------------------------------------      

   * xtb version 6.5.1 (579679a) compiled by 'ehlert@majestix' on 2022-07-11

   xtb is free software: you can redistribute it and/or modify it under
   the terms of the GNU Lesser General Public License as published by
   the Free Software Foundation, either version 3 of the License, or
   (at your option) any later version.
   
   xtb is distributed in the hope that it will be useful,
   but WITHOUT ANY WARRANTY; without even the implied warranty of
   MERCHANTABILITY or FITNESS FOR A PARTICULAR PURPOSE.  See the
   GNU Lesser General Public License for more details.
   
   Cite this work as:
   * C. Bannwarth, E. Caldeweyher, S. Ehlert, A. Hansen, P. Pracht,
     J. Seibert, S. Spicher, S. Grimme, WIREs Comput. Mol. Sci., 2020, 11,
     e01493. DOI: 10.1002/wcms.1493
   
   for GFN2-xTB:
   * C. Bannwarth, S. Ehlert and S. Grimme., J. Chem. Theory Comput., 2019,
     15, 1652-1671. DOI: 10.1021/acs.jctc.8b01176
   for GFN1-xTB:
   * S. Grimme, C. Bannwarth, P. Shushkov, J. Chem. Theory Comput., 2017,
     13, 1989-2009. DOI: 10.1021/acs.jctc.7b00118
   for GFN0-xTB:
   * P. Pracht, E. Caldeweyher, S. Ehlert, S. Grimme, ChemRxiv, 2019, preprint.
     DOI: 10.26434/chemrxiv.8326202.v1
   for GFN-FF:
   * S. Spicher and S. Grimme, Angew. Chem. Int. Ed., 2020, 59, 15665-15673.
     DOI: 10.1002/anie.202004239
   
   for ALPB and GBSA implicit solvation:
   * S. Ehlert, M. Stahn, S. Spicher, S. Grimme, J. Chem. Theory Comput.,
     2021, 17, 4250-4261. DOI: 10.1021/acs.jctc.1c00471
   
   for DFT-D4:
   * E. Caldeweyher, C. Bannwarth and S. Grimme, J. Chem. Phys., 2017,
     147, 034112. DOI: 10.1063/1.4993215
   * E. Caldeweyher, S. Ehlert, A. Hansen, H. Neugebauer, S. Spicher,
     C. Bannwarth and S. Grimme, J. Chem. Phys., 2019, 150, 154122.
     DOI: 10.1063/1.5090222
   * E. Caldeweyher, J.-M. Mewes, S. Ehlert and S. Grimme, Phys. Chem. Chem. Phys.
     2020, 22, 8499-8512. DOI: 10.1039/D0CP00502A
   
   for sTDA-xTB:
   * S. Grimme and C. Bannwarth, J. Chem. Phys., 2016, 145, 054103.
     DOI: 10.1063/1.4959605
   
   in the mass-spec context:
   * V. Asgeirsson, C. Bauer and S. Grimme, Chem. Sci., 2017, 8, 4879.
     DOI: 10.1039/c7sc00601b
   * J. Koopman and S. Grimme, ACS Omega 2019, 4, 12, 15120-15133.
     DOI: 10.1021/acsomega.9b02011
   
   for metadynamics refer to:
   * S. Grimme, J. Chem. Theory Comput., 2019, 155, 2847-2862
     DOI: 10.1021/acs.jctc.9b00143
   
   for SPH calculations refer to:
   * S. Spicher and S. Grimme, J. Chem. Theory Comput., 2021, 17, 1701-1714
     DOI: 10.1021/acs.jctc.0c01306
   
   with help from (in alphabetical order)
   P. Atkinson, C. Bannwarth, F. Bohle, G. Brandenburg, E. Caldeweyher
   M. Checinski, S. Dohm, S. Ehlert, S. Ehrlich, I. Gerasimov, C. Hölzer
   A. Katbashev, J. Koopman, C. Lavigne, S. Lehtola, F. März, M. Müller,
   F. Musil, H. Neugebauer, J. Pisarek, C. Plett, P. Pracht, F. Pultar,
   J. Seibert, P. Shushkov, S. Spicher, M. Stahn, M. Steiner, T. Strunk,
   J. Stückrath, T. Rose, and J. Unsleber
   
 * started run on 2023/06/20 at 17:35:01.897     

           -------------------------------------------------
          |                Calculation Setup                |
           -------------------------------------------------

          program call               : /lustre/hpc/kemi/ree/PhD/git/ReactivityQM/dep/xtb-6.5.1/bin/xtb --gfn 1 /lustre/hpc/kemi/ree/PhD/git/ReactivityQM/calculations/R02deprot/reac01prodE03/conf10/R02deprot_reac01prodE03_conf10_gfn1.xyz --opt --vfukui --chrg -2 --uhf 0 --alpb DMSO
          hostname                   : node308
          coordinate file            : /lustre/hpc/kemi/ree/PhD/git/ReactivityQM/calculations/R02deprot/reac01prodE03/conf10/R02deprot_reac01prodE03_conf10_gfn1.xyz
          omp threads                :                     1

   ID    Z sym.   atoms
    1    6 C      1, 3, 5, 6, 8-11, 13, 15, 18, 19, 22, 24
    2    8 O      2, 4, 14, 20, 23, 25
    3    7 N      7, 12, 16, 17, 21
    4    1 H      26-42

           -------------------------------------------------
          |                 G F N 1 - x T B                 |
           -------------------------------------------------

        Reference                      10.1021/acs.jctc.7b00118
      * Hamiltonian:
        H0-scaling (s, p, d)           1.850000    2.250000    2.000000
        zeta-weighting                 0.000000
      * Dispersion:
        s8                             2.400000
        a1                             0.630000
        a2                             5.000000
        s9                             0.000000
      * Repulsion:
        kExp                           1.500000
        rExp                           1.000000
      * Coulomb:
        alpha                          2.000000
        third order                    atomic
        anisotropic                    false
      * Halogen bond correction:
        rad-scale                      1.300000
        damping                        0.440000

      * Solvation model:               ALPB
        Solvent                        DMSO
        Parameter file                 internal GFN1-xTB/ALPB
        Dielectric constant                4.6680E+01
        Reference state                gsolv [1 M gas/solution]
        Free energy shift                  7.6243E-03 Eh       4.7843E+00 kcal/mol
        Temperature                        2.9815E+02 K
        Density                            1.1000E+00 kg/L
        Solvent mass                       7.8130E+01 g/mol
        Interaction kernel             P16
        Born radius scaling (c1)           1.7672E+00
        Born radii integrator          GBOBC
        Born offset                        0.0000E+00 a0       0.0000E+00 AA
        H-bond correction              true
        Ion screening                  false
        Surface tension                    1.0000E-05 Eh       1.5569E+01 dyn/cm
        Grid points                               230 per atom

          ...................................................
          :                      SETUP                      :
          :.................................................:
          :  # basis functions                 134          :
          :  # atomic orbitals                 134          :
          :  # shells                           84          :
          :  # electrons                       136          :
          :  # halogen bonds                     0          :
          :  max. iterations                   250          :
          :  Hamiltonian                  GFN1-xTB          :
          :  restarted?                      false          :
          :  GBSA solvation                   true          :
          :  PC potential                    false          :
          :  electronic temp.          300.0000000     K    :
          :  accuracy                    1.0000000          :
          :  -> integral cutoff          0.2500000E+02      :
          :  -> integral neglect         0.1000000E-07      :
          :  -> SCF convergence          0.1000000E-05 Eh   :
          :  -> wf. convergence          0.2000000E-04 e    :
          :  Broyden damping             0.4000000          :
          ...................................................

 iter      E             dE          RMSdq      gap      omega  full diag
   1    -83.9920661 -0.839921E+02  0.870E+00    0.65       0.0  T
   2    -83.9566168  0.354493E-01  0.538E+00    0.64       1.0  T
   3    -83.8529857  0.103631E+00  0.324E+00    0.97       1.0  T
   4    -84.1646278 -0.311642E+00  0.132E+00    2.30       1.0  T
   5    -84.2108232 -0.461955E-01  0.824E-01    1.27       1.0  T
   6    -83.9905766  0.220247E+00  0.146E+00    0.23       1.0  T
   7    -84.2173230 -0.226746E+00  0.705E-01    0.83       1.0  T
   8    -84.2222737 -0.495069E-02  0.627E-01    0.49       1.0  T
   9    -84.2606871 -0.384134E-01  0.150E-01    0.07       1.0  T
  10    -84.1553290  0.105358E+00  0.909E-01    0.05       1.0  T
  11    -84.2222988 -0.669698E-01  0.617E-01    0.45       1.0  T
  12    -84.2449921 -0.226933E-01  0.383E-01    0.13       1.0  T
  13    -84.2223652  0.226269E-01  0.563E-01    0.01       1.0  T
  14    -84.2303060 -0.794084E-02  0.522E-01    0.21       1.0  T
  15    -84.2623024 -0.319964E-01  0.866E-02    0.04       1.0  T
  16    -84.2522542  0.100482E-01  0.296E-01    0.10       1.0  T
  17    -84.2609663 -0.871212E-02  0.134E-01    0.03       1.0  T
  18    -84.2604662  0.500082E-03  0.148E-01    0.07       1.0  T
  19    -84.2630011 -0.253487E-02  0.449E-02    0.04       1.0  T
  20    -84.2630355 -0.344111E-04  0.419E-02    0.06       1.0  T
  21    -84.2632523 -0.216810E-03  0.713E-03    0.05       2.2  T
  22    -84.2632522  0.127245E-06  0.720E-03    0.05       2.1  T
  23    -84.2632585 -0.631032E-05  0.150E-03    0.05      10.3  T
  24    -84.2632587 -0.185187E-06  0.886E-04    0.05      17.4  T
  25    -84.2632588 -0.972538E-07  0.145E-04    0.05     106.2  T
  26    -84.2632588 -0.321521E-09  0.136E-04    0.05     113.1  T

   *** convergence criteria satisfied after 26 iterations ***

         #    Occupation            Energy/Eh            Energy/eV
      -------------------------------------------------------------
         1        2.0000           -0.8042247             -21.8841
       ...           ...                  ...                  ...
        62        2.0000           -0.3873183             -10.5395
        63        2.0000           -0.3806927             -10.3592
        64        2.0000           -0.3750716             -10.2062
        65        2.0000           -0.3507765              -9.5451
        66        2.0000           -0.3255543              -8.8588
        67        2.0000           -0.3221634              -8.7665
        68        1.4547           -0.2614847              -7.1154 (HOMO)
        69        0.5453           -0.2596201              -7.0646 (LUMO)
        70                         -0.2128289              -5.7914
        71                         -0.1849623              -5.0331
        72                         -0.1549615              -4.2167
        73                         -0.1423119              -3.8725
       ...                                ...                  ...
       134                          0.7360045              20.0277
      -------------------------------------------------------------
                  HL-Gap            0.0018645 Eh            0.0507 eV
             Fermi-level           -0.2605524 Eh           -7.0900 eV

 SCC (total)                   0 d,  0 h,  0 min,  0.330 sec
 SCC setup                      ...        0 min,  0.002 sec (  0.620%)
 Dispersion                     ...        0 min,  0.000 sec (  0.123%)
 classical contributions        ...        0 min,  0.000 sec (  0.039%)
 integral evaluation            ...        0 min,  0.056 sec ( 17.012%)
 iterations                     ...        0 min,  0.155 sec ( 46.937%)
 molecular gradient             ...        0 min,  0.116 sec ( 35.021%)
 printout                       ...        0 min,  0.001 sec (  0.236%)

         :::::::::::::::::::::::::::::::::::::::::::::::::::::
         ::                     SUMMARY                     ::
         :::::::::::::::::::::::::::::::::::::::::::::::::::::
         :: total energy             -83.551103875507 Eh    ::
         :: total w/o Gsasa/hb       -83.530419180287 Eh    ::
         :: gradient norm              0.125733432521 Eh/a0 ::
         :: HOMO-LUMO gap              0.050736525009 eV    ::
         ::.................................................::
         :: SCC energy               -84.263258793177 Eh    ::
         :: -> electrostatic           0.662350036328 Eh    ::
         :: -> Gsolv                  -0.273371299544 Eh    ::
         ::    -> Gelec               -0.252686604324 Eh    ::
         ::    -> Gsasa               -0.024652994154 Eh    ::
         ::    -> Ghb                 -0.003655980072 Eh    ::
         ::    -> Gshift               0.007624279005 Eh    ::
         :: repulsion energy           0.737790501774 Eh    ::
         :: dispersion energy         -0.025635584104 Eh    ::
         :: halogen bond corr.         0.000000000000 Eh    ::
         :: add. restraining           0.000000000000 Eh    ::
         :: total charge              -2.000000000000 e     ::
         :::::::::::::::::::::::::::::::::::::::::::::::::::::

      ----------------------------------------------------------- 
     |                   =====================                   |
     |                        A N C O P T                        |
     |                   =====================                   |
     |               Approximate Normal Coordinate               |
     |                Rational Function Optimizer                |
      ----------------------------------------------------------- 

          ...................................................
          :                      SETUP                      :
          :.................................................:
          :   optimization level            normal          :
          :   max. optcycles                   200          :
          :   ANC micro-cycles                  20          :
          :   degrees of freedom               120          :
          :.................................................:
          :   RF solver                   davidson          :
          :   write xtbopt.log                true          :
          :   linear?                        false          :
          :   energy convergence         0.5000000E-05 Eh   :
          :   grad. convergence          0.1000000E-02 Eh/α :
          :   maximium RF displ.         1.0000000          :
          :   Hlow (freq-cutoff)         0.1000000E-01      :
          :   Hmax (freq-cutoff)         5.0000000          :
          :   S6 in model hess.         20.0000000          :
          ...................................................

generating ANC from model Hessian ...
Using Lindh-Hessian (1995)
 Shifting diagonal of input Hessian by   9.846177210635784E-003
 Lowest  eigenvalues of input Hessian
    0.000000    0.000000    0.000000    0.000000    0.000000    0.000000
    0.010000    0.010152    0.010574    0.010783    0.011525    0.012110
    0.012793    0.013597    0.014113    0.014154    0.014780    0.015100
 Highest eigenvalues
    1.971826    1.981575    2.045033    2.105907    2.259553    2.307521
 

........................................................................
.............................. CYCLE    1 ..............................
........................................................................
   1    -84.2632588 -0.842633E+02  0.127E-05    0.05       0.0  T
   2    -84.2632588  0.768902E-08  0.247E-04    0.05      62.5  T
   3    -84.2632588 -0.770939E-08  0.944E-07    0.05   16349.5  T
   4    -84.2632588 -0.568434E-13  0.282E-07    0.05   54640.9  T
     SCC iter.                  ...        0 min,  0.027 sec
     gradient                   ...        0 min,  0.093 sec
 * total energy  :   -83.5511039 Eh     change       -0.2372175E-08 Eh
   gradient norm :     0.1257318 Eh/α   predicted     0.0000000E+00 (-100.00%)
   displ. norm   :     0.3713863 α      lambda       -0.1698407E-01
   maximum displ.:     0.1731431 α      in ANC's #25, #9, #6, ...

........................................................................
.............................. CYCLE    2 ..............................
........................................................................
   1    -84.2642315 -0.842642E+02  0.267E-01    0.02       0.0  T
   2    -84.2237155  0.405160E-01  0.710E-01    0.66       1.0  T
   3    -84.2444085 -0.206929E-01  0.473E-01    0.17       1.0  T
   4    -84.2613706 -0.169621E-01  0.290E-01    0.02       1.0  T
   5    -84.2590361  0.233445E-02  0.322E-01    0.11       1.0  T
   6    -84.2716218 -0.125857E-01  0.591E-02    0.04       1.0  T
   7    -84.2718334 -0.211612E-03  0.422E-02    0.06       1.0  T
   8    -84.2719387 -0.105260E-03  0.307E-02    0.05       1.0  T
   9    -84.2720571 -0.118388E-03  0.397E-03    0.05       3.9  T
  10    -84.2720590 -0.196937E-05  0.463E-04    0.05      33.3  T
  11    -84.2720591 -0.270676E-07  0.374E-05    0.05     412.7  T
  12    -84.2720591  0.106611E-08  0.957E-05    0.05     161.2  T
     SCC iter.                  ...        0 min,  0.040 sec
     gradient                   ...        0 min,  0.080 sec
 * total energy  :   -83.5636647 Eh     change       -0.1256084E-01 Eh
   gradient norm :     0.0617493 Eh/α   predicted    -0.9682415E-02 ( -22.92%)
   displ. norm   :     0.3863212 α      lambda       -0.8410888E-02
   maximum displ.:     0.1946044 α      in ANC's #25, #19, #13, ...

........................................................................
.............................. CYCLE    3 ..............................
........................................................................
   1    -84.2815473 -0.842815E+02  0.105E-01    0.05       0.0  T
   2    -84.2643558  0.171915E-01  0.383E-01    0.13       1.0  T
   3    -84.2305784  0.337774E-01  0.634E-01    0.02       1.0  T
   4    -84.2808664 -0.502881E-01  0.990E-02    0.07       1.0  T
   5    -84.2820148 -0.114840E-02  0.268E-02    0.05       1.0  T
   6    -84.2820959 -0.811191E-04  0.726E-03    0.05       2.1  T
   7    -84.2821014 -0.545639E-05  0.156E-03    0.05       9.9  T
   8    -84.2821016 -0.223974E-06  0.804E-04    0.05      19.2  T
   9    -84.2821017 -0.804875E-07  0.626E-05    0.05     246.7  T
  10    -84.2821017  0.220598E-08  0.138E-04    0.05     112.2  T
     SCC iter.                  ...        0 min,  0.024 sec
     gradient                   ...        0 min,  0.042 sec
 * total energy  :   -83.5688170 Eh     change       -0.5152309E-02 Eh
   gradient norm :     0.0196832 Eh/α   predicted    -0.4833081E-02 (  -6.20%)
   displ. norm   :     0.2815062 α      lambda       -0.1671344E-02
   maximum displ.:     0.1060487 α      in ANC's #25, #13, #6, ...

........................................................................
.............................. CYCLE    4 ..............................
........................................................................
   1    -84.2815835 -0.842816E+02  0.173E-01    0.08       0.0  T
   2    -84.0067437  0.274840E+00  0.151E+00    0.37       1.0  T
   3    -84.2807713 -0.274028E+00  0.189E-01    0.03       1.0  T
   4    -84.2831091 -0.233780E-02  0.133E-01    0.07       1.0  T
   5    -84.2847430 -0.163386E-02  0.679E-02    0.04       1.0  T
   6    -84.2853001 -0.557133E-03  0.147E-02    0.06       1.0  T
   7    -84.2853182 -0.180474E-04  0.826E-03    0.05       1.9  T
   8    -84.2853268 -0.860906E-05  0.724E-04    0.05      21.3  T
   9    -84.2853268 -0.113824E-07  0.658E-04    0.05      23.5  T
  10    -84.2853269 -0.507282E-07  0.172E-04    0.05      89.7  T
  11    -84.2853269 -0.362560E-08  0.301E-05    0.05     512.1  T
     SCC iter.                  ...        0 min,  0.027 sec
     gradient                   ...        0 min,  0.052 sec
 * total energy  :   -83.5700517 Eh     change       -0.1234702E-02 Eh
   gradient norm :     0.0152940 Eh/α   predicted    -0.9019026E-03 ( -26.95%)
   displ. norm   :     0.3350347 α      lambda       -0.1265692E-02
   maximum displ.:     0.1297888 α      in ANC's #6, #13, #19, ...

........................................................................
.............................. CYCLE    5 ..............................
........................................................................
   1    -84.2786380 -0.842786E+02  0.273E-01    0.10       0.0  T
   2    -83.9906397  0.287998E+00  0.160E+00    0.61       1.0  T
   3    -84.2521526 -0.261513E+00  0.528E-01    0.01       1.0  T
   4    -84.2772148 -0.250622E-01  0.292E-01    0.11       1.0  T
   5    -84.2870632 -0.984838E-02  0.780E-02    0.07       1.0  T
   6    -84.2877521 -0.688915E-03  0.234E-02    0.05       1.0  T
   7    -84.2878212 -0.690519E-04  0.252E-03    0.05       6.1  T
   8    -84.2878188  0.235016E-05  0.497E-03    0.05       3.1  T
   9    -84.2878220 -0.310656E-05  0.311E-04    0.05      49.7  T
  10    -84.2878220 -0.604724E-08  0.225E-04    0.05      68.6  T
  11    -84.2878220 -0.461753E-08  0.116E-04    0.05     133.4  T
  12    -84.2878220 -0.165663E-08  0.862E-06    0.05    1790.4  T
     SCC iter.                  ...        0 min,  0.042 sec
     gradient                   ...        0 min,  0.081 sec
 * total energy  :   -83.5709497 Eh     change       -0.8979840E-03 Eh
   gradient norm :     0.0116218 Eh/α   predicted    -0.7038820E-03 ( -21.62%)
   displ. norm   :     0.3033999 α      lambda       -0.7328332E-03
   maximum displ.:     0.1215555 α      in ANC's #10, #6, #15, ...

........................................................................
.............................. CYCLE    6 ..............................
........................................................................
   1    -84.2794505 -0.842795E+02  0.285E-01    0.11       0.0  T
   2    -83.9847076  0.294743E+00  0.162E+00    0.64       1.0  T
   3    -84.2522262 -0.267519E+00  0.540E-01    0.01       1.0  T
   4    -84.2821029 -0.298767E-01  0.242E-01    0.10       1.0  T
   5    -84.2886629 -0.656002E-02  0.767E-02    0.07       1.0  T
   6    -84.2893897 -0.726762E-03  0.645E-03    0.06       2.4  T
   7    -84.2893946 -0.495425E-05  0.124E-03    0.06      12.5  T
   8    -84.2893945  0.921628E-07  0.148E-03    0.06      10.4  T
   9    -84.2893946 -0.105794E-06  0.115E-03    0.06      13.4  T
  10    -84.2893948 -0.164337E-06  0.951E-05    0.06     162.3  T
  11    -84.2893948 -0.102480E-08  0.216E-05    0.06     715.4  T
     SCC iter.                  ...        0 min,  0.039 sec
     gradient                   ...        0 min,  0.081 sec
 * total energy  :   -83.5714981 Eh     change       -0.5484087E-03 Eh
   gradient norm :     0.0109991 Eh/α   predicted    -0.4001460E-03 ( -27.04%)
   displ. norm   :     0.3409367 α      lambda       -0.6703701E-03
   maximum displ.:     0.1524704 α      in ANC's #10, #6, #15, ...

........................................................................
.............................. CYCLE    7 ..............................
........................................................................
   1    -84.2794903 -0.842795E+02  0.303E-01    0.12       0.0  T
   2    -83.9768166  0.302674E+00  0.165E+00    0.67       1.0  T
   3    -84.2502520 -0.273435E+00  0.564E-01    0.01       1.0  T
   4    -84.2838939 -0.336419E-01  0.232E-01    0.10       1.0  T
   5    -84.2895909 -0.569701E-02  0.879E-02    0.07       1.0  T
   6    -84.2905324 -0.941527E-03  0.116E-02    0.06       1.3  T
   7    -84.2905477 -0.152493E-04  0.315E-03    0.06       4.9  T
   8    -84.2905489 -0.124436E-05  0.120E-04    0.06     128.3  T
   9    -84.2905487  0.237776E-06  0.138E-03    0.06      11.2  T
  10    -84.2905489 -0.237500E-06  0.773E-05    0.06     199.7  T
  11    -84.2905489 -0.412271E-09  0.525E-05    0.06     294.0  T
     SCC iter.                  ...        0 min,  0.038 sec
     gradient                   ...        0 min,  0.081 sec
 * total energy  :   -83.5719984 Eh     change       -0.5002805E-03 Eh
   gradient norm :     0.0106104 Eh/α   predicted    -0.3741524E-03 ( -25.21%)
   displ. norm   :     0.3320992 α      lambda       -0.5856454E-03
   maximum displ.:     0.1487632 α      in ANC's #10, #6, #15, ...

........................................................................
.............................. CYCLE    8 ..............................
........................................................................
   1    -84.2848186 -0.842848E+02  0.238E-01    0.10       0.0  T
   2    -83.9814622  0.303356E+00  0.162E+00    0.51       1.0  T
   3    -84.2818922 -0.300430E+00  0.278E-01    0.03       1.0  T
   4    -84.2847253 -0.283312E-02  0.236E-01    0.10       1.0  T
   5    -84.2912945 -0.656915E-02  0.501E-02    0.07       1.0  T
   6    -84.2915897 -0.295249E-03  0.101E-02    0.06       1.5  T
   7    -84.2916011 -0.113794E-04  0.343E-03    0.06       4.5  T
   8    -84.2916009  0.248819E-06  0.364E-03    0.06       4.2  T
   9    -84.2916024 -0.156423E-05  0.852E-04    0.06      18.1  T
  10    -84.2916025 -0.889173E-07  0.673E-05    0.06     229.1  T
  11    -84.2916025  0.220010E-08  0.149E-04    0.06     103.6  T
     SCC iter.                  ...        0 min,  0.039 sec
     gradient                   ...        0 min,  0.081 sec
 * total energy  :   -83.5724262 Eh     change       -0.4277543E-03 Eh
   gradient norm :     0.0090583 Eh/α   predicted    -0.3251202E-03 ( -23.99%)
   displ. norm   :     0.3000204 α      lambda       -0.4647887E-03
   maximum displ.:     0.1345184 α      in ANC's #10, #8, #6, ...

........................................................................
.............................. CYCLE    9 ..............................
........................................................................
   1    -84.2910552 -0.842911E+02  0.100E-01    0.08       0.0  T
   2    -84.0201222  0.270933E+00  0.147E+00    0.18       1.0  T
   3    -84.2921894 -0.272067E+00  0.217E-02    0.06       1.0  T
   4    -84.2922434 -0.540367E-04  0.291E-03    0.06       5.3  T
   5    -84.2922370  0.640034E-05  0.766E-03    0.06       2.0  T
   6    -84.2922436 -0.659241E-05  0.208E-04    0.06      74.2  T
   7    -84.2922436  0.442280E-08  0.229E-04    0.06      67.4  T
   8    -84.2922436 -0.592549E-08  0.370E-05    0.06     417.4  T
   9    -84.2922436  0.112408E-10  0.319E-05    0.06     483.0  T
     SCC iter.                  ...        0 min,  0.032 sec
     gradient                   ...        0 min,  0.081 sec
 * total energy  :   -83.5727755 Eh     change       -0.3493549E-03 Eh
   gradient norm :     0.0080855 Eh/α   predicted    -0.2533157E-03 ( -27.49%)
   displ. norm   :     0.3260757 α      lambda       -0.4299126E-03
   maximum displ.:     0.1498912 α      in ANC's #10, #8, #6, ...

........................................................................
.............................. CYCLE   10 ..............................
........................................................................
   1    -84.2917017 -0.842917E+02  0.482E-02    0.07       0.0  T
   2    -84.1707405  0.120961E+00  0.980E-01    0.05       1.0  T
   3    -84.2918420 -0.121101E+00  0.319E-02    0.07       1.0  T
   4    -84.2919585 -0.116452E-03  0.804E-03    0.06       1.9  T
   5    -84.2919607 -0.224874E-05  0.631E-03    0.06       2.4  T
   6    -84.2919650 -0.431180E-05  0.121E-03    0.06      12.7  T
   7    -84.2919652 -0.167379E-06  0.270E-04    0.06      57.1  T
   8    -84.2919652 -0.829637E-08  0.732E-05    0.06     210.7  T
   9    -84.2919652 -0.582517E-09  0.894E-06    0.06    1725.4  T
     SCC iter.                  ...        0 min,  0.032 sec
     gradient                   ...        0 min,  0.080 sec
 * total energy  :   -83.5731003 Eh     change       -0.3248389E-03 Eh
   gradient norm :     0.0093808 Eh/α   predicted    -0.2378171E-03 ( -26.79%)
   displ. norm   :     0.3290928 α      lambda       -0.4163700E-03
   maximum displ.:     0.1390171 α      in ANC's #10, #8, #13, ...

........................................................................
.............................. CYCLE   11 ..............................
........................................................................
   1    -84.2924531 -0.842925E+02  0.119E-02    0.06       0.0  T
   2    -84.2913479  0.110521E-02  0.953E-02    0.08       1.0  T
   3    -84.2924582 -0.111031E-02  0.742E-03    0.06       2.1  T
   4    -84.2924622 -0.406825E-05  0.273E-03    0.06       5.7  T
   5    -84.2924615  0.714770E-06  0.275E-03    0.06       5.6  T
   6    -84.2924622 -0.708745E-06  0.859E-04    0.06      18.0  T
   7    -84.2924623 -0.861546E-07  0.825E-05    0.06     187.0  T
   8    -84.2924623 -0.649322E-09  0.235E-05    0.06     656.4  T
     SCC iter.                  ...        0 min,  0.028 sec
     gradient                   ...        0 min,  0.081 sec
 * total energy  :   -83.5733979 Eh     change       -0.2975422E-03 Eh
   gradient norm :     0.0103673 Eh/α   predicted    -0.2307452E-03 ( -22.45%)
   displ. norm   :     0.5428820 α      lambda       -0.4977623E-03
   maximum displ.:     0.2774033 α      in ANC's #10, #8, #6, ...

........................................................................
.............................. CYCLE   12 ..............................
........................................................................
   1    -84.2762908 -0.842763E+02  0.269E-01    0.12       0.0  T
   2    -83.9608528  0.315438E+00  0.168E+00    0.58       1.0  T
   3    -84.2667996 -0.305947E+00  0.385E-01    0.02       1.0  T
   4    -84.2757151 -0.891547E-02  0.274E-01    0.12       1.0  T
   5    -84.2845904 -0.887534E-02  0.525E-02    0.07       1.0  T
   6    -84.2846770 -0.866511E-04  0.456E-02    0.06       1.0  T
   7    -84.2849196 -0.242541E-03  0.927E-03    0.06       1.7  T
   8    -84.2849255 -0.592907E-05  0.614E-03    0.06       2.5  T
   9    -84.2849301 -0.463279E-05  0.532E-04    0.06      29.0  T
  10    -84.2849301  0.306871E-08  0.562E-04    0.06      27.4  T
  11    -84.2849302 -0.378266E-07  0.775E-05    0.06     199.2  T
  12    -84.2849302 -0.648171E-09  0.310E-05    0.06     498.1  T
     SCC iter.                  ...        0 min,  0.042 sec
     gradient                   ...        0 min,  0.081 sec
 * total energy  :   -83.5732399 Eh     change        0.1580117E-03 Eh
   gradient norm :     0.0217516 Eh/α   predicted    -0.3222387E-03 (-303.93%)
   displ. norm   :     0.1549867 α      lambda       -0.1128118E-02
   maximum displ.:     0.0710383 α      in ANC's #10, #6, #15, ...

........................................................................
.............................. CYCLE   13 ..............................
........................................................................
   1    -84.2899736 -0.842900E+02  0.154E-01    0.04       0.0  T
   2    -84.2610504  0.289232E-01  0.562E-01    0.44       1.0  T
   3    -84.2802254 -0.191750E-01  0.324E-01    0.13       1.0  T
   4    -84.2920239 -0.117984E-01  0.829E-02    0.08       1.0  T
   5    -84.2919448  0.790330E-04  0.849E-02    0.05       1.0  T
   6    -84.2926971 -0.752282E-03  0.334E-02    0.07       1.0  T
   7    -84.2927946 -0.974857E-04  0.180E-02    0.06       1.0  T
   8    -84.2928322 -0.375794E-04  0.447E-03    0.06       3.5  T
   9    -84.2928346 -0.246678E-05  0.101E-04    0.06     152.9  T
  10    -84.2928346  0.124508E-07  0.335E-04    0.06      46.1  T
  11    -84.2928346 -0.135922E-07  0.292E-05    0.06     528.4  T
  12    -84.2928346 -0.728448E-10  0.168E-05    0.06     916.4  T
     SCC iter.                  ...        0 min,  0.042 sec
     gradient                   ...        0 min,  0.080 sec
 * total energy  :   -83.5738003 Eh     change       -0.5604002E-03 Eh
   gradient norm :     0.0070385 Eh/α   predicted    -0.5776184E-03 (   3.07%)
   displ. norm   :     0.1583822 α      lambda       -0.1529220E-03
   maximum displ.:     0.0766574 α      in ANC's #10, #4, #2, ...

........................................................................
.............................. CYCLE   14 ..............................
........................................................................
   1    -84.2910073 -0.842910E+02  0.122E-01    0.08       0.0  T
   2    -83.9962747  0.294733E+00  0.155E+00    0.24       1.0  T
   3    -84.2927713 -0.296497E+00  0.213E-02    0.06       1.0  T
   4    -84.2928205 -0.491672E-04  0.467E-03    0.06       3.3  T
   5    -84.2928228 -0.226179E-05  0.125E-03    0.06      12.3  T
   6    -84.2928216  0.112478E-05  0.319E-03    0.06       4.8  T
   7    -84.2928228 -0.121293E-05  0.850E-05    0.06     181.6  T
   8    -84.2928228 -0.434184E-09  0.388E-05    0.06     398.1  T
   9    -84.2928228 -0.107761E-09  0.137E-05    0.06    1122.9  T
     SCC iter.                  ...        0 min,  0.032 sec
     gradient                   ...        0 min,  0.080 sec
 * total energy  :   -83.5739320 Eh     change       -0.1317031E-03 Eh
   gradient norm :     0.0052168 Eh/α   predicted    -0.7838086E-04 ( -40.49%)
   displ. norm   :     0.4916321 α      lambda       -0.4428932E-03
   maximum displ.:     0.2321974 α      in ANC's #10, #4, #1, ...

........................................................................
.............................. CYCLE   15 ..............................
........................................................................
   1    -84.2830571 -0.842831E+02  0.288E-01    0.13       0.0  T
   2    -83.9585088  0.324548E+00  0.171E+00    0.62       1.0  T
   3    -84.2699686 -0.311460E+00  0.432E-01    0.01       1.0  T
   4    -84.2863084 -0.163397E-01  0.232E-01    0.11       1.0  T
   5    -84.2925552 -0.624687E-02  0.576E-02    0.07       1.0  T
   6    -84.2929383 -0.383029E-03  0.170E-02    0.06       1.0  T
   7    -84.2929714 -0.331665E-04  0.100E-03    0.07      15.4  T
   8    -84.2929693  0.209960E-05  0.423E-03    0.06       3.6  T
   9    -84.2929715 -0.215642E-05  0.551E-04    0.07      28.0  T
  10    -84.2929715 -0.343205E-07  0.151E-04    0.07     102.1  T
  11    -84.2929715 -0.276495E-08  0.781E-06    0.07    1976.9  T
     SCC iter.                  ...        0 min,  0.039 sec
     gradient                   ...        0 min,  0.081 sec
 * total energy  :   -83.5741531 Eh     change       -0.2210708E-03 Eh
   gradient norm :     0.0093955 Eh/α   predicted    -0.2749698E-03 (  24.38%)
   displ. norm   :     0.1264660 α      lambda       -0.1749688E-03
   maximum displ.:     0.0524340 α      in ANC's #4, #1, #2, ...

........................................................................
.............................. CYCLE   16 ..............................
........................................................................
   1    -84.2919447 -0.842919E+02  0.101E-01    0.08       0.0  T
   2    -84.0056176  0.286327E+00  0.152E+00    0.18       1.0  T
   3    -84.2931638 -0.287546E+00  0.619E-03    0.07       2.5  T
   4    -84.2931435  0.202260E-04  0.139E-02    0.06       1.1  T
   5    -84.2931661 -0.225548E-04  0.154E-03    0.07      10.0  T
   6    -84.2931661 -0.133035E-07  0.269E-04    0.07      57.3  T
   7    -84.2931661  0.238182E-08  0.224E-04    0.07      68.8  T
   8    -84.2931661 -0.549635E-08  0.417E-05    0.07     370.1  T
   9    -84.2931661 -0.157414E-09  0.924E-06    0.07    1669.9  T
     SCC iter.                  ...        0 min,  0.032 sec
     gradient                   ...        0 min,  0.081 sec
 * total energy  :   -83.5742561 Eh     change       -0.1030568E-03 Eh
   gradient norm :     0.0075297 Eh/α   predicted    -0.8888553E-04 ( -13.75%)
   displ. norm   :     0.1811173 α      lambda       -0.1618340E-03
   maximum displ.:     0.0873370 α      in ANC's #1, #4, #10, ...

........................................................................
.............................. CYCLE   17 ..............................
........................................................................
   1    -84.2946546 -0.842947E+02  0.185E-02    0.07       0.0  T
   2    -84.2797351  0.149195E-01  0.348E-01    0.02       1.0  T
   3    -84.2946927 -0.149577E-01  0.389E-03    0.07       4.0  T
   4    -84.2946892  0.355812E-05  0.622E-03    0.07       2.5  T
   5    -84.2946928 -0.359308E-05  0.237E-03    0.07       6.5  T
   6    -84.2946933 -0.553635E-06  0.480E-04    0.07      32.2  T
   7    -84.2946933 -0.272588E-07  0.318E-05    0.07     485.9  T
   8    -84.2946933  0.908074E-11  0.220E-05    0.07     702.3  T
     SCC iter.                  ...        0 min,  0.029 sec
     gradient                   ...        0 min,  0.081 sec
 * total energy  :   -83.5743706 Eh     change       -0.1145048E-03 Eh
   gradient norm :     0.0066343 Eh/α   predicted    -0.8357265E-04 ( -27.01%)
   displ. norm   :     0.4527039 α      lambda       -0.2378904E-03
   maximum displ.:     0.2048530 α      in ANC's #1, #10, #4, ...

........................................................................
.............................. CYCLE   18 ..............................
........................................................................
   1    -84.2906563 -0.842907E+02  0.123E-01    0.09       0.0  T
   2    -83.9832119  0.307444E+00  0.158E+00    0.24       1.0  T
   3    -84.2923147 -0.309103E+00  0.439E-02    0.06       1.0  T
   4    -84.2924541 -0.139415E-03  0.248E-02    0.06       1.0  T
   5    -84.2925217 -0.676206E-04  0.551E-03    0.07       2.8  T
   6    -84.2925195  0.220862E-05  0.634E-03    0.07       2.4  T
   7    -84.2925243 -0.477844E-05  0.440E-04    0.07      35.0  T
   8    -84.2925243 -0.160844E-07  0.219E-04    0.07      70.5  T
   9    -84.2925243 -0.586314E-08  0.165E-05    0.07     933.7  T
  10    -84.2925243  0.145803E-10  0.142E-05    0.07    1086.8  T
     SCC iter.                  ...        0 min,  0.035 sec
     gradient                   ...        0 min,  0.080 sec
 * total energy  :   -83.5745191 Eh     change       -0.1484432E-03 Eh
   gradient norm :     0.0076657 Eh/α   predicted    -0.1433267E-03 (  -3.45%)
   displ. norm   :     0.2246527 α      lambda       -0.2281059E-03
   maximum displ.:     0.1424636 α      in ANC's #1, #4, #3, ...

........................................................................
.............................. CYCLE   19 ..............................
........................................................................
   1    -84.2970332 -0.842970E+02  0.211E-02    0.06       0.0  T
   2    -84.2920699  0.496336E-02  0.203E-01    0.10       1.0  T
   3    -84.2969600 -0.489014E-02  0.302E-02    0.06       1.0  T
   4    -84.2970645 -0.104536E-03  0.406E-03    0.07       3.8  T
   5    -84.2970646 -0.501655E-07  0.310E-03    0.07       5.0  T
   6    -84.2970657 -0.106023E-05  0.178E-04    0.07      86.6  T
   7    -84.2970657 -0.245691E-09  0.101E-04    0.07     152.5  T
   8    -84.2970657 -0.845404E-09  0.327E-05    0.07     472.0  T
     SCC iter.                  ...        0 min,  0.028 sec
     gradient                   ...        0 min,  0.081 sec
 * total energy  :   -83.5745941 Eh     change       -0.7505721E-04 Eh
   gradient norm :     0.0094317 Eh/α   predicted    -0.1198136E-03 (  59.63%)
   displ. norm   :     0.2661297 α      lambda       -0.2017042E-03
   maximum displ.:     0.1531287 α      in ANC's #1, #10, #4, ...

........................................................................
.............................. CYCLE   20 ..............................
........................................................................
   1    -84.2940735 -0.842941E+02  0.837E-02    0.08       0.0  T
   2    -84.0310714  0.263002E+00  0.145E+00    0.14       1.0  T
   3    -84.2949165 -0.263845E+00  0.947E-03    0.07       1.6  T
   4    -84.2949019  0.146013E-04  0.146E-02    0.07       1.1  T
   5    -84.2949259 -0.240562E-04  0.277E-03    0.07       5.6  T
   6    -84.2949265 -0.558180E-06  0.351E-04    0.07      44.0  T
   7    -84.2949265 -0.825624E-08  0.242E-04    0.07      63.8  T
   8    -84.2949265 -0.634910E-08  0.432E-05    0.07     357.0  T
   9    -84.2949265 -0.975859E-10  0.272E-05    0.07     567.8  T
     SCC iter.                  ...        0 min,  0.032 sec
     gradient                   ...        0 min,  0.080 sec
 * total energy  :   -83.5747070 Eh     change       -0.1128978E-03 Eh
   gradient norm :     0.0078617 Eh/α   predicted    -0.1079963E-03 (  -4.34%)
   displ. norm   :     0.1123197 α      lambda       -0.1672473E-03
   maximum displ.:     0.0711088 α      in ANC's #1, #15, #9, ...
 * RMSD in coord.:     0.6692976 α      energy gain  -0.2360313E-01 Eh

generating ANC from model Hessian ...
Using Lindh-Hessian (1995)
 Shifting diagonal of input Hessian by   9.839783605649802E-003
 Lowest  eigenvalues of input Hessian
    0.000000    0.000000    0.000000    0.000000    0.000000    0.000000
    0.010000    0.010234    0.010606    0.010877    0.011510    0.011993
    0.012691    0.013022    0.013866    0.014387    0.015163    0.015746
 Highest eigenvalues
    1.986716    1.999576    2.081010    2.106485    2.254225    2.341316
 

........................................................................
.............................. CYCLE   21 ..............................
........................................................................
   1    -84.2947510 -0.842948E+02  0.185E-02    0.06       0.0  T
   2    -84.2886309  0.612006E-02  0.227E-01    0.11       1.0  T
   3    -84.2947476 -0.611666E-02  0.201E-02    0.07       1.0  T
   4    -84.2947882 -0.405894E-04  0.636E-03    0.07       2.4  T
   5    -84.2947919 -0.370666E-05  0.169E-03    0.07       9.1  T
   6    -84.2947916  0.312161E-06  0.227E-03    0.07       6.8  T
   7    -84.2947922 -0.596827E-06  0.581E-04    0.07      26.6  T
   8    -84.2947922 -0.417629E-07  0.241E-05    0.07     641.4  T
   9    -84.2947922  0.104734E-10  0.216E-05    0.07     715.0  T
     SCC iter.                  ...        0 min,  0.032 sec
     gradient                   ...        0 min,  0.080 sec
 * total energy  :   -83.5748135 Eh     change       -0.1064955E-03 Eh
   gradient norm :     0.0064179 Eh/α   predicted     0.0000000E+00 (-100.00%)
   displ. norm   :     0.0642368 α      lambda       -0.1135241E-03
   maximum displ.:     0.0411403 α      in ANC's #12, #1, #13, ...

........................................................................
.............................. CYCLE   22 ..............................
........................................................................
   1    -84.2952203 -0.842952E+02  0.239E-02    0.06       0.0  T
   2    -84.2858813  0.933898E-02  0.281E-01    0.13       1.0  T
   3    -84.2952437 -0.936242E-02  0.206E-02    0.07       1.0  T
   4    -84.2952927 -0.489449E-04  0.127E-03    0.07      12.2  T
   5    -84.2952893  0.336318E-05  0.547E-03    0.07       2.8  T
   6    -84.2952928 -0.347294E-05  0.230E-04    0.07      67.0  T
   7    -84.2952928  0.280835E-09  0.245E-04    0.07      62.9  T
   8    -84.2952928 -0.671331E-08  0.676E-05    0.07     228.2  T
   9    -84.2952928 -0.475438E-09  0.268E-05    0.07     575.2  T
     SCC iter.                  ...        0 min,  0.032 sec
     gradient                   ...        0 min,  0.081 sec
 * total energy  :   -83.5749066 Eh     change       -0.9309277E-04 Eh
   gradient norm :     0.0030124 Eh/α   predicted    -0.5966607E-04 ( -35.91%)
   displ. norm   :     0.1750009 α      lambda       -0.1804538E-03
   maximum displ.:     0.1167925 α      in ANC's #12, #1, #9, ...

........................................................................
.............................. CYCLE   23 ..............................
........................................................................
   1    -84.2948748 -0.842949E+02  0.723E-02    0.06       0.0  T
   2    -84.2720477  0.228271E-01  0.459E-01    0.25       1.0  T
   3    -84.2937210 -0.216733E-01  0.123E-01    0.09       1.0  T
   4    -84.2954473 -0.172633E-02  0.266E-02    0.06       1.0  T
   5    -84.2955309 -0.835222E-04  0.989E-03    0.07       1.6  T
   6    -84.2955384 -0.751196E-05  0.450E-03    0.07       3.4  T
   7    -84.2955412 -0.278408E-05  0.236E-04    0.07      65.4  T
   8    -84.2955411  0.977650E-08  0.352E-04    0.07      43.9  T
   9    -84.2955412 -0.132045E-07  0.125E-04    0.07     123.0  T
  10    -84.2955412 -0.155889E-08  0.574E-05    0.07     268.8  T
     SCC iter.                  ...        0 min,  0.035 sec
     gradient                   ...        0 min,  0.080 sec
 * total energy  :   -83.5750380 Eh     change       -0.1313539E-03 Eh
   gradient norm :     0.0035398 Eh/α   predicted    -0.9299630E-04 ( -29.20%)
   displ. norm   :     0.2573505 α      lambda       -0.1706360E-03
   maximum displ.:     0.1736314 α      in ANC's #12, #1, #9, ...

........................................................................
.............................. CYCLE   24 ..............................
........................................................................
   1    -84.2931509 -0.842932E+02  0.108E-01    0.05       0.0  T
   2    -84.2678552  0.252957E-01  0.504E-01    0.34       1.0  T
   3    -84.2887863 -0.209311E-01  0.220E-01    0.11       1.0  T
   4    -84.2941831 -0.539680E-02  0.606E-02    0.08       1.0  T
   5    -84.2946113 -0.428181E-03  0.199E-03    0.07       7.7  T
   6    -84.2946073  0.401039E-05  0.543E-03    0.07       2.8  T
   7    -84.2946096 -0.235296E-05  0.370E-03    0.07       4.2  T
   8    -84.2946112 -0.158312E-05  0.870E-04    0.07      17.7  T
   9    -84.2946113 -0.883256E-07  0.199E-04    0.07      77.4  T
  10    -84.2946113 -0.447778E-08  0.562E-05    0.07     274.5  T
     SCC iter.                  ...        0 min,  0.035 sec
     gradient                   ...        0 min,  0.081 sec
 * total energy  :   -83.5751617 Eh     change       -0.1237962E-03 Eh
   gradient norm :     0.0067682 Eh/α   predicted    -0.9111525E-04 ( -26.40%)
   displ. norm   :     0.2531956 α      lambda       -0.1442521E-03
   maximum displ.:     0.1641489 α      in ANC's #12, #1, #2, ...

........................................................................
.............................. CYCLE   25 ..............................
........................................................................
   1    -84.2924976 -0.842925E+02  0.982E-02    0.05       0.0  T
   2    -84.2673154  0.251822E-01  0.496E-01    0.31       1.0  T
   3    -84.2895742 -0.222588E-01  0.185E-01    0.10       1.0  T
   4    -84.2936207 -0.404646E-02  0.260E-02    0.07       1.0  T
   5    -84.2936956 -0.749572E-04  0.292E-03    0.07       5.3  T
   6    -84.2936927  0.297234E-05  0.557E-03    0.06       2.8  T
   7    -84.2936960 -0.331914E-05  0.249E-03    0.07       6.2  T
   8    -84.2936967 -0.671511E-06  0.806E-04    0.07      19.1  T
   9    -84.2936967 -0.772571E-07  0.170E-04    0.07      90.8  T
  10    -84.2936967 -0.339793E-08  0.309E-05    0.07     499.2  T
     SCC iter.                  ...        0 min,  0.035 sec
     gradient                   ...        0 min,  0.081 sec
 * total energy  :   -83.5752537 Eh     change       -0.9195068E-04 Eh
   gradient norm :     0.0079454 Eh/α   predicted    -0.7675010E-04 ( -16.53%)
   displ. norm   :     0.1338316 α      lambda       -0.1482603E-03
   maximum displ.:     0.0753282 α      in ANC's #1, #12, #2, ...

........................................................................
.............................. CYCLE   26 ..............................
........................................................................
   1    -84.2948695 -0.842949E+02  0.412E-02    0.06       0.0  T
   2    -84.2783128  0.165566E-01  0.378E-01    0.17       1.0  T
   3    -84.2950093 -0.166965E-01  0.221E-02    0.07       1.0  T
   4    -84.2950253 -0.159663E-04  0.188E-02    0.06       1.0  T
   5    -84.2950404 -0.151397E-04  0.150E-02    0.07       1.0  T
   6    -84.2950670 -0.265509E-04  0.290E-03    0.07       5.3  T
   7    -84.2950680 -0.103172E-05  0.287E-04    0.07      53.8  T
   8    -84.2950680 -0.991000E-08  0.165E-05    0.07     933.0  T
   9    -84.2950680  0.105118E-09  0.304E-05    0.07     506.8  T
     SCC iter.                  ...        0 min,  0.032 sec
     gradient                   ...        0 min,  0.081 sec
 * total energy  :   -83.5753580 Eh     change       -0.1042607E-03 Eh
   gradient norm :     0.0043781 Eh/α   predicted    -0.7545853E-04 ( -27.63%)
   displ. norm   :     0.1859479 α      lambda       -0.9641290E-04
   maximum displ.:     0.1050047 α      in ANC's #1, #12, #2, ...

........................................................................
.............................. CYCLE   27 ..............................
........................................................................
   1    -84.2954804 -0.842955E+02  0.269E-02    0.06       0.0  T
   2    -84.2849158  0.105646E-01  0.299E-01    0.13       1.0  T
   3    -84.2955634 -0.106476E-01  0.263E-03    0.07       5.9  T
   4    -84.2955637 -0.297786E-06  0.159E-03    0.07       9.7  T
   5    -84.2955636  0.135895E-06  0.169E-03    0.07       9.1  T
   6    -84.2955638 -0.143554E-06  0.118E-03    0.07      13.0  T
   7    -84.2955639 -0.145334E-06  0.480E-04    0.07      32.2  T
   8    -84.2955639 -0.281873E-07  0.112E-05    0.07    1380.2  T
   9    -84.2955639 -0.966338E-12  0.361E-06    0.07    4268.9  T
     SCC iter.                  ...        0 min,  0.032 sec
     gradient                   ...        0 min,  0.080 sec
 * total energy  :   -83.5754304 Eh     change       -0.7239244E-04 Eh
   gradient norm :     0.0038026 Eh/α   predicted    -0.4988829E-04 ( -31.09%)
   displ. norm   :     0.1948533 α      lambda       -0.9050422E-04
   maximum displ.:     0.1194082 α      in ANC's #1, #12, #2, ...

........................................................................
.............................. CYCLE   28 ..............................
........................................................................
   1    -84.2962606 -0.842963E+02  0.887E-03    0.07       0.0  T
   2    -84.2935346  0.272601E-02  0.150E-01    0.05       1.0  T
   3    -84.2962637 -0.272913E-02  0.753E-03    0.06       2.1  T
   4    -84.2962646 -0.939081E-06  0.659E-03    0.06       2.3  T
   5    -84.2962693 -0.461053E-05  0.154E-03    0.07      10.0  T
   6    -84.2962695 -0.254751E-06  0.683E-05    0.07     225.9  T
   7    -84.2962695 -0.568150E-10  0.426E-05    0.07     362.6  T
     SCC iter.                  ...        0 min,  0.025 sec
     gradient                   ...        0 min,  0.080 sec
 * total energy  :   -83.5754968 Eh     change       -0.6645165E-04 Eh
   gradient norm :     0.0044804 Eh/α   predicted    -0.4697639E-04 ( -29.31%)
   displ. norm   :     0.2764627 α      lambda       -0.8481753E-04
   maximum displ.:     0.1662582 α      in ANC's #1, #12, #2, ...

........................................................................
.............................. CYCLE   29 ..............................
........................................................................
   1    -84.2950674 -0.842951E+02  0.121E-02    0.07       0.0  T
   2    -84.2896200  0.544746E-02  0.211E-01    0.04       1.0  T
   3    -84.2950829 -0.546296E-02  0.267E-03    0.07       5.8  T
   4    -84.2950829  0.583041E-07  0.222E-03    0.07       7.0  T
   5    -84.2950833 -0.437728E-06  0.489E-04    0.07      31.5  T
   6    -84.2950833 -0.112468E-07  0.125E-04    0.07     123.1  T
   7    -84.2950833 -0.132772E-08  0.363E-05    0.07     425.6  T
     SCC iter.                  ...        0 min,  0.025 sec
     gradient                   ...        0 min,  0.080 sec
 * total energy  :   -83.5755505 Eh     change       -0.5368934E-04 Eh
   gradient norm :     0.0066402 Eh/α   predicted    -0.4566559E-04 ( -14.94%)
   displ. norm   :     0.2731488 α      lambda       -0.1492338E-03
   maximum displ.:     0.1857212 α      in ANC's #1, #2, #12, ...

........................................................................
.............................. CYCLE   30 ..............................
........................................................................
   1    -84.2955009 -0.842955E+02  0.846E-02    0.08       0.0  T
   2    -84.0347406  0.260760E+00  0.145E+00    0.14       1.0  T
   3    -84.2963602 -0.261620E+00  0.850E-03    0.07       1.8  T
   4    -84.2963465  0.137653E-04  0.137E-02    0.06       1.1  T
   5    -84.2963674 -0.209387E-04  0.341E-03    0.07       4.5  T
   6    -84.2963685 -0.108756E-05  0.414E-04    0.07      37.2  T
   7    -84.2963685 -0.176311E-07  0.474E-05    0.07     325.3  T
   8    -84.2963685 -0.160583E-09  0.191E-05    0.07     806.6  T
     SCC iter.                  ...        0 min,  0.028 sec
     gradient                   ...        0 min,  0.080 sec
 * total energy  :   -83.5756353 Eh     change       -0.8477234E-04 Eh
   gradient norm :     0.0057634 Eh/α   predicted    -0.8018433E-04 (  -5.41%)
   displ. norm   :     0.3198483 α      lambda       -0.1018385E-03
   maximum displ.:     0.2131288 α      in ANC's #1, #2, #12, ...

........................................................................
.............................. CYCLE   31 ..............................
........................................................................
   1    -84.2944829 -0.842945E+02  0.538E-02    0.07       0.0  T
   2    -84.1389557  0.155527E+00  0.112E+00    0.06       1.0  T
   3    -84.2947749 -0.155819E+00  0.204E-02    0.07       1.0  T
   4    -84.2948262 -0.512937E-04  0.306E-03    0.07       5.0  T
   5    -84.2948270 -0.813490E-06  0.104E-03    0.07      14.8  T
   6    -84.2948269  0.351879E-07  0.601E-04    0.07      25.7  T
   7    -84.2948270 -0.419382E-07  0.109E-04    0.07     141.2  T
   8    -84.2948270 -0.126737E-08  0.278E-05    0.07     555.7  T
     SCC iter.                  ...        0 min,  0.028 sec
     gradient                   ...        0 min,  0.081 sec
 * total energy  :   -83.5757084 Eh     change       -0.7316921E-04 Eh
   gradient norm :     0.0058608 Eh/α   predicted    -0.5612852E-04 ( -23.29%)
   displ. norm   :     0.2679097 α      lambda       -0.1603152E-03
   maximum displ.:     0.1881832 α      in ANC's #1, #2, #7, ...

........................................................................
.............................. CYCLE   32 ..............................
........................................................................
   1    -84.2945589 -0.842946E+02  0.876E-02    0.08       0.0  T
   2    -84.0271651  0.267394E+00  0.147E+00    0.15       1.0  T
   3    -84.2954151 -0.268250E+00  0.211E-02    0.07       1.0  T
   4    -84.2954600 -0.448396E-04  0.961E-03    0.07       1.6  T
   5    -84.2954705 -0.105610E-04  0.216E-03    0.07       7.2  T
   6    -84.2954709 -0.394729E-06  0.302E-04    0.07      51.0  T
   7    -84.2954709 -0.290119E-08  0.917E-05    0.07     168.2  T
   8    -84.2954709  0.390699E-09  0.107E-04    0.07     144.6  T
     SCC iter.                  ...        0 min,  0.027 sec
     gradient                   ...        0 min,  0.080 sec
 * total energy  :   -83.5758239 Eh     change       -0.1154235E-03 Eh
   gradient norm :     0.0043269 Eh/α   predicted    -0.8591264E-04 ( -25.57%)
   displ. norm   :     0.3019209 α      lambda       -0.1289523E-03
   maximum displ.:     0.2111492 α      in ANC's #1, #2, #10, ...

........................................................................
.............................. CYCLE   33 ..............................
........................................................................
   1    -84.2939049 -0.842939E+02  0.122E-01    0.09       0.0  T
   2    -83.9858760  0.308029E+00  0.159E+00    0.23       1.0  T
   3    -84.2956622 -0.309786E+00  0.190E-02    0.06       1.0  T
   4    -84.2956426  0.195161E-04  0.214E-02    0.06       1.0  T
   5    -84.2956953 -0.526559E-04  0.324E-03    0.07       4.8  T
   6    -84.2956942  0.113269E-05  0.411E-03    0.07       3.8  T
   7    -84.2956961 -0.193386E-05  0.403E-04    0.07      38.3  T
   8    -84.2956961 -0.186876E-07  0.342E-05    0.07     451.6  T
   9    -84.2956961  0.176357E-10  0.233E-05    0.07     662.3  T
     SCC iter.                  ...        0 min,  0.030 sec
     gradient                   ...        0 min,  0.080 sec
 * total energy  :   -83.5759181 Eh     change       -0.9422078E-04 Eh
   gradient norm :     0.0064828 Eh/α   predicted    -0.7035478E-04 ( -25.33%)
   displ. norm   :     0.2635749 α      lambda       -0.1402041E-03
   maximum displ.:     0.1792741 α      in ANC's #1, #10, #2, ...

........................................................................
.............................. CYCLE   34 ..............................
........................................................................
   1    -84.2949012 -0.842949E+02  0.135E-01    0.09       0.0  T
   2    -83.9782076  0.316694E+00  0.161E+00    0.26       1.0  T
   3    -84.2969295 -0.318722E+00  0.410E-02    0.06       1.0  T
   4    -84.2970708 -0.141351E-03  0.191E-02    0.07       1.0  T
   5    -84.2971102 -0.393206E-04  0.452E-03    0.07       3.4  T
   6    -84.2971058  0.432765E-05  0.714E-03    0.07       2.2  T
   7    -84.2971119 -0.602284E-05  0.354E-04    0.07      43.6  T
   8    -84.2971119 -0.120523E-07  0.960E-05    0.07     160.8  T
   9    -84.2971119 -0.832316E-09  0.419E-05    0.07     368.0  T
     SCC iter.                  ...        0 min,  0.030 sec
     gradient                   ...        0 min,  0.080 sec
 * total energy  :   -83.5760131 Eh     change       -0.9504847E-04 Eh
   gradient norm :     0.0072745 Eh/α   predicted    -0.7497620E-04 ( -21.12%)
   displ. norm   :     0.5544767 α      lambda       -0.1966649E-03
   maximum displ.:     0.4001749 α      in ANC's #1, #2, #10, ...

........................................................................
.............................. CYCLE   35 ..............................
........................................................................
   1    -84.2871202 -0.842871E+02  0.218E-01    0.11       0.0  T
   2    -83.9515107  0.335609E+00  0.170E+00    0.46       1.0  T
   3    -84.2878542 -0.336344E+00  0.205E-01    0.04       1.0  T
   4    -84.2907921 -0.293785E-02  0.128E-01    0.09       1.0  T
   5    -84.2926757 -0.188365E-02  0.383E-02    0.06       1.0  T
   6    -84.2928289 -0.153215E-03  0.116E-02    0.07       1.3  T
   7    -84.2928433 -0.143421E-04  0.576E-04    0.07      26.8  T
   8    -84.2928433  0.159251E-07  0.672E-04    0.07      22.9  T
   9    -84.2928433 -0.535145E-07  0.939E-05    0.07     164.3  T
  10    -84.2928433  0.700787E-08  0.257E-04    0.07      60.1  T
  11    -84.2928433 -0.798281E-08  0.899E-06    0.07    1716.4  T
     SCC iter.                  ...        0 min,  0.037 sec
     gradient                   ...        0 min,  0.072 sec
 * total energy  :   -83.5760548 Eh     change       -0.4171997E-04 Eh
   gradient norm :     0.0118936 Eh/α   predicted    -0.1285703E-03 ( 208.17%)
   displ. norm   :     0.1104007 α      lambda       -0.3314917E-03
   maximum displ.:     0.0509895 α      in ANC's #2, #9, #12, ...

........................................................................
.............................. CYCLE   36 ..............................
........................................................................
   1    -84.2963500 -0.842963E+02  0.164E-02    0.07       0.0  T
   2    -84.2934015  0.294843E-02  0.158E-01    0.10       1.0  T
   3    -84.2963628 -0.296130E-02  0.932E-03    0.07       1.7  T
   4    -84.2963658 -0.298093E-05  0.597E-03    0.07       2.6  T
   5    -84.2963660 -0.229698E-06  0.448E-03    0.07       3.4  T
   6    -84.2963684 -0.232257E-05  0.926E-04    0.07      16.7  T
   7    -84.2963685 -0.105683E-06  0.690E-05    0.07     223.6  T
   8    -84.2963685 -0.422673E-09  0.302E-05    0.07     510.9  T
     SCC iter.                  ...        0 min,  0.027 sec
     gradient                   ...        0 min,  0.080 sec
 * total energy  :   -83.5762366 Eh     change       -0.1817499E-03 Eh
   gradient norm :     0.0050426 Eh/α   predicted    -0.1677671E-03 (  -7.69%)
   displ. norm   :     0.2966785 α      lambda       -0.1384650E-03
   maximum displ.:     0.2175198 α      in ANC's #1, #10, #3, ...

........................................................................
.............................. CYCLE   37 ..............................
........................................................................
   1    -84.2935374 -0.842935E+02  0.149E-01    0.10       0.0  T
   2    -83.9647871  0.328750E+00  0.165E+00    0.30       1.0  T
   3    -84.2958790 -0.331092E+00  0.575E-02    0.06       1.0  T
   4    -84.2962433 -0.364367E-03  0.890E-03    0.07       1.7  T
   5    -84.2962449 -0.158235E-05  0.764E-03    0.07       2.0  T
   6    -84.2962471 -0.222804E-05  0.544E-03    0.07       2.8  T
   7    -84.2962506 -0.345735E-05  0.828E-04    0.07      18.6  T
   8    -84.2962507 -0.830865E-07  0.716E-05    0.07     215.5  T
   9    -84.2962507 -0.828067E-10  0.585E-05    0.07     263.9  T
     SCC iter.                  ...        0 min,  0.029 sec
     gradient                   ...        0 min,  0.069 sec
 * total energy  :   -83.5763398 Eh     change       -0.1032396E-03 Eh
   gradient norm :     0.0060725 Eh/α   predicted    -0.7532670E-04 ( -27.04%)
   displ. norm   :     0.5685482 α      lambda       -0.2217373E-03
   maximum displ.:     0.4309247 α      in ANC's #1, #10, #3, ...

........................................................................
.............................. CYCLE   38 ..............................
........................................................................
   1    -84.2870866 -0.842871E+02  0.226E-01    0.12       0.0  T
   2    -83.9417062  0.345380E+00  0.173E+00    0.47       1.0  T
   3    -84.2885765 -0.346870E+00  0.198E-01    0.05       1.0  T
   4    -84.2912493 -0.267281E-02  0.126E-01    0.10       1.0  T
   5    -84.2931729 -0.192354E-02  0.203E-02    0.07       1.0  T
   6    -84.2931954 -0.224864E-04  0.140E-02    0.07       1.1  T
   7    -84.2932154 -0.200398E-04  0.321E-03    0.07       4.8  T
   8    -84.2932167 -0.126503E-05  0.523E-04    0.07      29.5  T
   9    -84.2932167 -0.135611E-07  0.403E-04    0.07      38.3  T
  10    -84.2932167 -0.194274E-07  0.389E-05    0.07     396.2  T
  11    -84.2932167 -0.302123E-10  0.337E-05    0.07     457.8  T
     SCC iter.                  ...        0 min,  0.039 sec
     gradient                   ...        0 min,  0.077 sec
 * total energy  :   -83.5764817 Eh     change       -0.1418443E-03 Eh
   gradient norm :     0.0090397 Eh/α   predicted    -0.1467074E-03 (   3.43%)
   displ. norm   :     0.2638824 α      lambda       -0.2469325E-03
   maximum displ.:     0.2012809 α      in ANC's #1, #3, #4, ...

........................................................................
.............................. CYCLE   39 ..............................
........................................................................
   1    -84.2945508 -0.842946E+02  0.508E-02    0.08       0.0  T
   2    -84.1543435  0.140207E+00  0.106E+00    0.05       1.0  T
   3    -84.2947575 -0.140414E+00  0.278E-02    0.08       1.0  T
   4    -84.2948386 -0.810895E-04  0.957E-03    0.07       1.6  T
   5    -84.2948464 -0.775256E-05  0.472E-03    0.07       3.3  T
   6    -84.2948488 -0.241831E-05  0.611E-04    0.07      25.3  T
   7    -84.2948488 -0.463734E-07  0.468E-05    0.07     330.0  T
   8    -84.2948488  0.663078E-09  0.834E-05    0.07     184.9  T
     SCC iter.                  ...        0 min,  0.028 sec
     gradient                   ...        0 min,  0.075 sec
 * total energy  :   -83.5766385 Eh     change       -0.1568661E-03 Eh
   gradient norm :     0.0072718 Eh/α   predicted    -0.1320659E-03 ( -15.81%)
   displ. norm   :     0.4309308 α      lambda       -0.1913575E-03
   maximum displ.:     0.3225761 α      in ANC's #1, #3, #10, ...

........................................................................
.............................. CYCLE   40 ..............................
........................................................................
   1    -84.2911687 -0.842912E+02  0.152E-01    0.10       0.0  T
   2    -83.9504419  0.340727E+00  0.168E+00    0.30       1.0  T
   3    -84.2936560 -0.343214E+00  0.532E-02    0.07       1.0  T
   4    -84.2939616 -0.305595E-03  0.104E-02    0.07       1.5  T
   5    -84.2939666 -0.499667E-05  0.761E-03    0.07       2.0  T
   6    -84.2939693 -0.269316E-05  0.509E-03    0.07       3.0  T
   7    -84.2939723 -0.301256E-05  0.624E-04    0.07      24.7  T
   8    -84.2939723 -0.480861E-07  0.357E-05    0.07     431.7  T
   9    -84.2939723  0.489706E-10  0.274E-05    0.07     564.0  T
     SCC iter.                  ...        0 min,  0.032 sec
     gradient                   ...        0 min,  0.077 sec
 * total energy  :   -83.5767767 Eh     change       -0.1381774E-03 Eh
   gradient norm :     0.0089974 Eh/α   predicted    -0.1134470E-03 ( -17.90%)
   displ. norm   :     0.2854842 α      lambda       -0.2951566E-03
   maximum displ.:     0.1864603 α      in ANC's #1, #3, #4, ...

........................................................................
.............................. CYCLE   41 ..............................
........................................................................
   1    -84.2982882 -0.842983E+02  0.211E-02    0.08       0.0  T
   2    -84.2886593  0.962889E-02  0.280E-01    0.04       1.0  T
   3    -84.2982974 -0.963805E-02  0.163E-02    0.08       1.0  T
   4    -84.2983190 -0.216366E-04  0.687E-03    0.07       2.2  T
   5    -84.2983229 -0.391001E-05  0.122E-03    0.07      12.7  T
   6    -84.2983230 -0.395693E-07  0.416E-04    0.07      37.1  T
   7    -84.2983230 -0.944591E-08  0.269E-04    0.07      57.3  T
   8    -84.2983230 -0.810860E-08  0.422E-05    0.07     365.3  T
   9    -84.2983230  0.709832E-10  0.471E-05    0.07     327.7  T
     SCC iter.                  ...        0 min,  0.031 sec
     gradient                   ...        0 min,  0.078 sec
 * total energy  :   -83.5768898 Eh     change       -0.1130399E-03 Eh
   gradient norm :     0.0082785 Eh/α   predicted    -0.1596067E-03 (  41.19%)
   displ. norm   :     0.4168128 α      lambda       -0.2065186E-03
   maximum displ.:     0.3253185 α      in ANC's #1, #3, #4, ...

........................................................................
.............................. CYCLE   42 ..............................
........................................................................
   1    -84.2926057 -0.842926E+02  0.152E-01    0.10       0.0  T
   2    -83.9472216  0.345384E+00  0.169E+00    0.30       1.0  T
   3    -84.2950915 -0.347870E+00  0.538E-02    0.07       1.0  T
   4    -84.2953853 -0.293790E-03  0.152E-02    0.07       1.0  T
   5    -84.2954050 -0.196392E-04  0.660E-03    0.07       2.3  T
   6    -84.2954042  0.791675E-06  0.622E-03    0.07       2.5  T
   7    -84.2954088 -0.459233E-05  0.623E-04    0.07      24.8  T
   8    -84.2954088 -0.428594E-07  0.175E-04    0.07      88.3  T
   9    -84.2954088 -0.338309E-08  0.302E-05    0.07     510.8  T
     SCC iter.                  ...        0 min,  0.031 sec
     gradient                   ...        0 min,  0.080 sec
 * total energy  :   -83.5770184 Eh     change       -0.1286433E-03 Eh
   gradient norm :     0.0074138 Eh/α   predicted    -0.1212021E-03 (  -5.78%)
   displ. norm   :     0.2642866 α      lambda       -0.1223768E-03
   maximum displ.:     0.2040662 α      in ANC's #1, #4, #3, ...
 * RMSD in coord.:     0.8078241 α      energy gain  -0.2311398E-02 Eh

generating ANC from model Hessian ...
Using Lindh-Hessian (1995)
 Shifting diagonal of input Hessian by   9.838492370074758E-003
 Lowest  eigenvalues of input Hessian
    0.000000    0.000000    0.000000    0.000000    0.000000    0.000000
    0.010000    0.010261    0.010538    0.010861    0.011552    0.011841
    0.012627    0.012672    0.013719    0.014416    0.015202    0.015503
 Highest eigenvalues
    1.971842    2.000201    2.082353    2.110787    2.252572    2.348354
 

........................................................................
.............................. CYCLE   43 ..............................
........................................................................
   1    -84.2944268 -0.842944E+02  0.904E-02    0.09       0.0  T
   2    -83.9968931  0.297534E+00  0.155E+00    0.15       1.0  T
   3    -84.2953795 -0.298486E+00  0.160E-02    0.08       1.0  T
   4    -84.2953958 -0.162727E-04  0.122E-02    0.07       1.3  T
   5    -84.2954094 -0.136000E-04  0.568E-03    0.07       2.7  T
   6    -84.2954126 -0.318473E-05  0.162E-03    0.08       9.5  T
   7    -84.2954128 -0.278253E-06  0.359E-04    0.08      43.0  T
   8    -84.2954129 -0.124218E-07  0.133E-04    0.08     116.4  T
   9    -84.2954129 -0.169335E-08  0.484E-05    0.08     319.0  T
     SCC iter.                  ...        0 min,  0.032 sec
     gradient                   ...        0 min,  0.075 sec
 * total energy  :   -83.5771160 Eh     change       -0.9763172E-04 Eh
   gradient norm :     0.0064126 Eh/α   predicted     0.0000000E+00 (-100.00%)
   displ. norm   :     0.0746225 α      lambda       -0.1399506E-03
   maximum displ.:     0.0486540 α      in ANC's #7, #4, #12, ...

........................................................................
.............................. CYCLE   44 ..............................
........................................................................
   1    -84.2968917 -0.842969E+02  0.143E-02    0.08       0.0  T
   2    -84.2896637  0.722793E-02  0.243E-01    0.04       1.0  T
   3    -84.2969087 -0.724501E-02  0.712E-03    0.08       2.2  T
   4    -84.2969120 -0.323844E-05  0.427E-03    0.08       3.6  T
   5    -84.2969139 -0.195198E-05  0.563E-04    0.08      27.4  T
   6    -84.2969140 -0.216749E-07  0.183E-04    0.08      84.4  T
   7    -84.2969140 -0.390224E-08  0.150E-05    0.08    1026.5  T
     SCC iter.                  ...        0 min,  0.025 sec
     gradient                   ...        0 min,  0.075 sec
 * total energy  :   -83.5772269 Eh     change       -0.1108189E-03 Eh
   gradient norm :     0.0023146 Eh/α   predicted    -0.7053523E-04 ( -36.35%)
   displ. norm   :     0.2124162 α      lambda       -0.2173483E-03
   maximum displ.:     0.1457241 α      in ANC's #7, #4, #12, ...

........................................................................
.............................. CYCLE   45 ..............................
........................................................................
   1    -84.2981506 -0.842982E+02  0.351E-02    0.08       0.0  T
   2    -84.2345555  0.635950E-01  0.717E-01    0.01       1.0  T
   3    -84.2982443 -0.636887E-01  0.207E-02    0.08       1.0  T
   4    -84.2982636 -0.193446E-04  0.157E-02    0.08       1.0  T
   5    -84.2982867 -0.230933E-04  0.687E-03    0.08       2.2  T
   6    -84.2982921 -0.535660E-05  0.209E-04    0.08      73.8  T
   7    -84.2982921 -0.400954E-08  0.721E-05    0.08     214.1  T
   8    -84.2982921 -0.123634E-09  0.550E-05    0.08     280.6  T
     SCC iter.                  ...        0 min,  0.028 sec
     gradient                   ...        0 min,  0.076 sec
 * total energy  :   -83.5773930 Eh     change       -0.1660933E-03 Eh
   gradient norm :     0.0035261 Eh/α   predicted    -0.1135826E-03 ( -31.62%)
   displ. norm   :     0.2743326 α      lambda       -0.1952900E-03
   maximum displ.:     0.1819329 α      in ANC's #7, #4, #1, ...

........................................................................
.............................. CYCLE   46 ..............................
........................................................................
   1    -84.2976790 -0.842977E+02  0.405E-02    0.08       0.0  T
   2    -84.2091065  0.885725E-01  0.846E-01    0.02       1.0  T
   3    -84.2978210 -0.887144E-01  0.213E-02    0.08       1.0  T
   4    -84.2978338 -0.128460E-04  0.179E-02    0.08       1.0  T
   5    -84.2978622 -0.283805E-04  0.872E-03    0.08       1.8  T
   6    -84.2978707 -0.853171E-05  0.798E-04    0.08      19.3  T
   7    -84.2978708 -0.677082E-07  0.256E-04    0.08      60.2  T
   8    -84.2978708 -0.699806E-08  0.671E-05    0.08     230.1  T
   9    -84.2978708 -0.461725E-09  0.169E-05    0.08     915.3  T
     SCC iter.                  ...        0 min,  0.030 sec
     gradient                   ...        0 min,  0.074 sec
 * total energy  :   -83.5775617 Eh     change       -0.1687329E-03 Eh
   gradient norm :     0.0042816 Eh/α   predicted    -0.1049939E-03 ( -37.78%)
   displ. norm   :     0.3709737 α      lambda       -0.2303676E-03
   maximum displ.:     0.2382765 α      in ANC's #7, #4, #1, ...

........................................................................
.............................. CYCLE   47 ..............................
........................................................................
   1    -84.2959673 -0.842960E+02  0.381E-02    0.08       0.0  T
   2    -84.2236263  0.723410E-01  0.766E-01    0.01       1.0  T
   3    -84.2960762 -0.724499E-01  0.231E-02    0.08       1.0  T
   4    -84.2960611  0.150924E-04  0.246E-02    0.08       1.0  T
   5    -84.2961140 -0.528788E-04  0.120E-02    0.08       1.3  T
   6    -84.2961295 -0.155082E-04  0.249E-03    0.08       6.2  T
   7    -84.2961302 -0.713348E-06  0.472E-04    0.08      32.7  T
   8    -84.2961302 -0.260185E-07  0.305E-05    0.08     505.5  T
   9    -84.2961302 -0.602824E-10  0.709E-06    0.08    2177.5  T
     SCC iter.                  ...        0 min,  0.031 sec
     gradient                   ...        0 min,  0.076 sec
 * total energy  :   -83.5777246 Eh     change       -0.1629263E-03 Eh
   gradient norm :     0.0063504 Eh/α   predicted    -0.1310374E-03 ( -19.57%)
   displ. norm   :     0.2412242 α      lambda       -0.1386719E-03
   maximum displ.:     0.1547941 α      in ANC's #7, #1, #4, ...

........................................................................
.............................. CYCLE   48 ..............................
........................................................................
   1    -84.2958973 -0.842959E+02  0.119E-02    0.08       0.0  T
   2    -84.2939264  0.197095E-02  0.131E-01    0.10       1.0  T
   3    -84.2959090 -0.198261E-02  0.790E-03    0.08       2.0  T
   4    -84.2958805  0.284401E-04  0.173E-02    0.08       1.0  T
   5    -84.2959125 -0.319320E-04  0.161E-03    0.08       9.6  T
   6    -84.2959124  0.265289E-07  0.133E-03    0.08      11.6  T
   7    -84.2959126 -0.204687E-06  0.121E-04    0.08     127.6  T
   8    -84.2959126 -0.128890E-08  0.532E-05    0.08     290.3  T
     SCC iter.                  ...        0 min,  0.027 sec
     gradient                   ...        0 min,  0.076 sec
 * total energy  :   -83.5778222 Eh     change       -0.9755828E-04 Eh
   gradient norm :     0.0072865 Eh/α   predicted    -0.7337108E-04 ( -24.79%)
   displ. norm   :     0.1944112 α      lambda       -0.2181309E-03
   maximum displ.:     0.1061143 α      in ANC's #7, #1, #4, ...

........................................................................
.............................. CYCLE   49 ..............................
........................................................................
   1    -84.2978620 -0.842979E+02  0.837E-02    0.06       0.0  T
   2    -84.2797396  0.181224E-01  0.424E-01    0.28       1.0  T
   3    -84.2963304 -0.165908E-01  0.143E-01    0.10       1.0  T
   4    -84.2986805 -0.235011E-02  0.168E-02    0.07       1.0  T
   5    -84.2986900 -0.948860E-05  0.166E-02    0.08       1.0  T
   6    -84.2986468  0.431768E-04  0.241E-02    0.07       1.0  T
   7    -84.2987181 -0.712917E-04  0.215E-03    0.08       7.2  T
   8    -84.2987185 -0.410394E-06  0.105E-03    0.08      14.8  T
   9    -84.2987186 -0.129784E-06  0.114E-04    0.08     135.3  T
  10    -84.2987186 -0.144273E-08  0.356E-05    0.08     432.8  T
     SCC iter.                  ...        0 min,  0.034 sec
     gradient                   ...        0 min,  0.076 sec
 * total energy  :   -83.5779411 Eh     change       -0.1189780E-03 Eh
   gradient norm :     0.0039580 Eh/α   predicted    -0.1131898E-03 (  -4.86%)
   displ. norm   :     0.2216626 α      lambda       -0.8878954E-04
   maximum displ.:     0.1309895 α      in ANC's #7, #1, #4, ...

........................................................................
.............................. CYCLE   50 ..............................
........................................................................
   1    -84.2983033 -0.842983E+02  0.338E-02    0.07       0.0  T
   2    -84.2877311  0.105722E-01  0.307E-01    0.16       1.0  T
   3    -84.2983264 -0.105953E-01  0.329E-02    0.08       1.0  T
   4    -84.2984420 -0.115654E-03  0.510E-03    0.08       3.0  T
   5    -84.2984336  0.843085E-05  0.965E-03    0.08       1.6  T
   6    -84.2984414 -0.782647E-05  0.451E-03    0.08       3.4  T
   7    -84.2984439 -0.246841E-05  0.677E-04    0.08      22.8  T
   8    -84.2984440 -0.517882E-07  0.171E-04    0.08      90.4  T
   9    -84.2984440 -0.344285E-08  0.646E-06    0.08    2389.2  T
     SCC iter.                  ...        0 min,  0.031 sec
     gradient                   ...        0 min,  0.076 sec
 * total energy  :   -83.5780037 Eh     change       -0.6257624E-04 Eh
   gradient norm :     0.0047385 Eh/α   predicted    -0.4659639E-04 ( -25.54%)
   displ. norm   :     0.1891956 α      lambda       -0.8027413E-04
   maximum displ.:     0.0995617 α      in ANC's #1, #7, #4, ...

........................................................................
.............................. CYCLE   51 ..............................
........................................................................
   1    -84.2984811 -0.842985E+02  0.316E-02    0.07       0.0  T
   2    -84.2885564  0.992471E-02  0.296E-01    0.15       1.0  T
   3    -84.2985123 -0.995585E-02  0.290E-02    0.08       1.0  T
   4    -84.2986035 -0.912632E-04  0.371E-03    0.08       4.2  T
   5    -84.2985981  0.541532E-05  0.767E-03    0.08       2.0  T
   6    -84.2986039 -0.573994E-05  0.235E-03    0.08       6.6  T
   7    -84.2986045 -0.662154E-06  0.623E-04    0.08      24.8  T
   8    -84.2986046 -0.462618E-07  0.797E-05    0.08     193.6  T
   9    -84.2986046 -0.682050E-09  0.214E-05    0.08     721.6  T
     SCC iter.                  ...        0 min,  0.031 sec
     gradient                   ...        0 min,  0.076 sec
 * total energy  :   -83.5780650 Eh     change       -0.6123711E-04 Eh
   gradient norm :     0.0042211 Eh/α   predicted    -0.4157626E-04 ( -32.11%)
   displ. norm   :     0.2260103 α      lambda       -0.9173580E-04
   maximum displ.:     0.1303810 α      in ANC's #1, #4, #7, ...

........................................................................
.............................. CYCLE   52 ..............................
........................................................................
   1    -84.2989510 -0.842990E+02  0.524E-03    0.08       0.0  T
   2    -84.2986512  0.299762E-03  0.513E-02    0.09       1.0  T
   3    -84.2989527 -0.301477E-03  0.376E-03    0.08       4.1  T
   4    -84.2989391  0.135864E-04  0.114E-02    0.08       1.4  T
   5    -84.2989529 -0.138542E-04  0.218E-03    0.08       7.1  T
   6    -84.2989534 -0.474946E-06  0.218E-04    0.08      70.6  T
   7    -84.2989534 -0.441393E-08  0.112E-04    0.08     137.4  T
   8    -84.2989534 -0.138076E-08  0.223E-05    0.08     693.5  T
     SCC iter.                  ...        0 min,  0.027 sec
[...]
H26-C1-O2=111.35               H27-C1-O2=107.49               H27-C1-H26=109.24              H28-C1-O2=110.92               
H28-C1-H26=108.83              H28-C1-H27=108.96              C3-O2-C1=114.27                O4-C3-O2=113.64                
C6-C3-O2=122.19                C6-C3-O4=122.19                C5-O4-C3=115.69                H29-C5-O4=107.36               
H30-C5-O4=110.79               H30-C5-H29=109.18              H31-C5-O4=111.37               H31-C5-H29=109.00              
H31-C5-H30=109.09              N7-C6-C3=115.89                C24-C6-C3=126.27               C24-C6-N7=117.77               
C8-N7-C6=117.01                C9-C8-N7=114.55                N21-C8-N7=128.77               N21-C8-C9=116.68               
C10-C9-C8=109.12               C11-C9-C8=109.12               C11-C9-C10=110.22              N12-C9-C8=107.55               
N12-C9-C10=110.46              N12-C9-C11=110.31              H32-C10-C9=108.79              H33-C10-C9=110.09              
H33-C10-H32=108.78             H34-C10-C9=111.15              H34-C10-H32=109.05             H34-C10-H33=108.95             
 
 selected dihedral angles (degree)
 ---------------------------------
C3-O2-C1-H26=295.16           C3-O2-C1-H27=175.54           C3-O2-C1-H28= 56.52           O4-C3-O2-C1=297.20            
C6-C3-O2-C1=132.89            C5-O4-C3-O2=270.38            C5-O4-C3-C6= 74.69            H29-C5-O4-C3=175.26           
H30-C5-O4-C3=294.40           H31-C5-O4-C3= 56.02           N7-C6-C3-O2=168.51            N7-C6-C3-O4=  5.53            
C24-C6-C3-O2=345.31           C24-C6-C3-O4=182.33           C8-N7-C6-C3=177.65            C8-N7-C6-C24=  0.56           
C9-C8-N7-C6=179.43            N21-C8-N7-C6=359.34           C10-C9-C8-N7=302.54           C10-C9-C8-N21=122.62          
C11-C9-C8-N7= 63.03           C11-C9-C8-N21=243.10          N12-C9-C8-N7=182.70           N12-C9-C8-N21=  2.78          
H32-C10-C9-C8= 54.24          H32-C10-C9-C11=294.42         H32-C10-C9-N12=172.27         H33-C10-C9-C8=295.13          
H33-C10-C9-C11=175.31         H33-C10-C9-N12= 53.16         H34-C10-C9-C8=174.31          H34-C10-C9-C11= 54.50         
H34-C10-C9-N12=292.35         
           -------------------------------------------------
          |                Final Singlepoint                |
           -------------------------------------------------

          ...................................................
          :                      SETUP                      :
          :.................................................:
          :  # basis functions                 134          :
          :  # atomic orbitals                 134          :
          :  # shells                           84          :
          :  # electrons                       136          :
          :  # halogen bonds                     0          :
          :  max. iterations                   250          :
          :  Hamiltonian                  GFN1-xTB          :
          :  restarted?                      false          :
          :  GBSA solvation                   true          :
          :  PC potential                    false          :
          :  electronic temp.          300.0000000     K    :
          :  accuracy                    1.0000000          :
          :  -> integral cutoff          0.2500000E+02      :
          :  -> integral neglect         0.1000000E-07      :
          :  -> SCF convergence          0.1000000E-05 Eh   :
          :  -> wf. convergence          0.2000000E-04 e    :
          :  Broyden damping             0.4000000          :
          ...................................................

 iter      E             dE          RMSdq      gap      omega  full diag
   1    -84.3013344 -0.843013E+02  0.105E-06    0.08       0.0  T
   2    -84.3013344  0.378009E-11  0.565E-06    0.08    2731.6  T
   3    -84.3013344 -0.306954E-11  0.223E-06    0.08    6920.9  T

   *** convergence criteria satisfied after 3 iterations ***

         #    Occupation            Energy/Eh            Energy/eV
      -------------------------------------------------------------
         1        2.0000           -0.8208334             -22.3360
       ...           ...                  ...                  ...
        62        2.0000           -0.3950360             -10.7495
        63        2.0000           -0.3855726             -10.4920
        64        2.0000           -0.3789042             -10.3105
        65        2.0000           -0.3516466              -9.5688
        66        2.0000           -0.3278004              -8.9199
        67        2.0000           -0.3228483              -8.7851
        68        1.6595           -0.2743451              -7.4653 (HOMO)
        69        0.3405           -0.2713359              -7.3834 (LUMO)
        70                         -0.2241093              -6.0983
        71                         -0.1786111              -4.8603
        72                         -0.1612184              -4.3870
        73                         -0.1517749              -4.1300
       ...                                ...                  ...
       134                          0.7073250              19.2473
      -------------------------------------------------------------
                  HL-Gap            0.0030093 Eh            0.0819 eV
             Fermi-level           -0.2728405 Eh           -7.4244 eV

 SCC (total)                   0 d,  0 h,  0 min,  0.114 sec
 SCC setup                      ...        0 min,  0.002 sec (  1.549%)
 Dispersion                     ...        0 min,  0.000 sec (  0.289%)
 classical contributions        ...        0 min,  0.000 sec (  0.092%)
 integral evaluation            ...        0 min,  0.031 sec ( 27.143%)
 iterations                     ...        0 min,  0.010 sec (  8.748%)
 molecular gradient             ...        0 min,  0.070 sec ( 61.473%)
 printout                       ...        0 min,  0.001 sec (  0.666%)

         :::::::::::::::::::::::::::::::::::::::::::::::::::::
         ::                     SUMMARY                     ::
         :::::::::::::::::::::::::::::::::::::::::::::::::::::
         :: total energy             -83.579660923079 Eh    ::
         :: total w/o Gsasa/hb       -83.559156636380 Eh    ::
         :: gradient norm              0.000263670030 Eh/a0 ::
         :: HOMO-LUMO gap              0.081886343707 eV    ::
         ::.................................................::
         :: SCC energy               -84.301334413520 Eh    ::
         :: -> electrostatic           0.673924542143 Eh    ::
         :: -> Gsolv                  -0.277593610707 Eh    ::
         ::    -> Gelec               -0.257089324008 Eh    ::
         ::    -> Gsasa               -0.024943245819 Eh    ::
         ::    -> Ghb                 -0.003185319885 Eh    ::
         ::    -> Gshift               0.007624279005 Eh    ::
         :: repulsion energy           0.747080905676 Eh    ::
         :: dispersion energy         -0.025407415235 Eh    ::
         :: halogen bond corr.         0.000000000000 Eh    ::
         :: add. restraining           0.000000000000 Eh    ::
         :: total charge              -2.000000000000 e     ::
         :::::::::::::::::::::::::::::::::::::::::::::::::::::

           -------------------------------------------------
          |                Property Printout                |
           -------------------------------------------------

    * Orbital Energies and Occupations

         #    Occupation            Energy/Eh            Energy/eV
      -------------------------------------------------------------
         1        2.0000           -0.8208334             -22.3360
       ...           ...                  ...                  ...
        56        2.0000           -0.4270189             -11.6198
        57        2.0000           -0.4256048             -11.5813
        58        2.0000           -0.4213086             -11.4644
        59        2.0000           -0.4196589             -11.4195
        60        2.0000           -0.4158909             -11.3170
        61        2.0000           -0.4065706             -11.0633
        62        2.0000           -0.3950360             -10.7495
        63        2.0000           -0.3855726             -10.4920
        64        2.0000           -0.3789042             -10.3105
        65        2.0000           -0.3516466              -9.5688
        66        2.0000           -0.3278004              -8.9199
        67        2.0000           -0.3228483              -8.7851
        68        1.6595           -0.2743451              -7.4653 (HOMO)
        69        0.3405           -0.2713359              -7.3834 (LUMO)
        70                         -0.2241093              -6.0983
        71                         -0.1786111              -4.8603
        72                         -0.1612184              -4.3870
        73                         -0.1517749              -4.1300
        74                         -0.1304197              -3.5489
        75                         -0.1070489              -2.9129
        76                         -0.1057281              -2.8770
        77                         -0.0914359              -2.4881
        78                         -0.0882141              -2.4004
        79                         -0.0631455              -1.7183
       ...                                ...                  ...
       134                          0.7073250              19.2473
      -------------------------------------------------------------
                  HL-Gap            0.0030093 Eh            0.0819 eV
             Fermi-level           -0.2728405 Eh           -7.4244 eV

  Mulliken/CM5 charges         n(s)   n(p)   n(d)
     1C     0.17381  0.05413   0.970  2.856  0.000
     2O    -0.48951 -0.58440   1.702  4.787  0.000
     3C     0.27928  0.32531   0.943  2.777  0.000
     4O    -0.49093 -0.57265   1.695  4.796  0.000
     5C     0.17455  0.05571   0.971  2.854  0.000
     6C     0.06115  0.13188   1.049  2.890  0.000
     7N    -0.49720 -0.67969   1.551  3.946  0.000
     8C     0.27191  0.42948   1.010  2.718  0.000
     9C     0.15393  0.19711   1.060  2.786  0.000
    10C    -0.08818 -0.22657   1.012  3.076  0.000
    11C    -0.08820 -0.22657   1.012  3.077  0.000
    12N    -0.34437 -0.68745   1.430  3.914  0.000
    13C     0.42149  0.52857   0.970  2.609  0.000
    14O    -0.64672 -0.68882   1.738  4.908  0.000
    15C     0.29566  0.41577   1.009  2.695  0.000
    16N    -0.29897 -0.40446   1.576  3.723  0.000
    17N    -0.29584 -0.40397   1.569  3.727  0.000
    18C     0.36705  0.47608   0.997  2.636  0.000
    19C    -0.11045 -0.24783   1.009  3.101  0.000
    20O    -0.37800 -0.42784   1.701  4.677  0.000
    21N    -0.54390 -0.72156   1.553  3.991  0.000
    22C     0.39745  0.49833   0.984  2.618  0.000
    23O    -0.74495 -0.77612   1.756  4.989  0.000
    24C     0.08711  0.11736   1.022  2.891  0.000
    25O    -0.59010 -0.78010   1.707  4.883  0.000
    26H     0.00523  0.06399   0.995  0.000  0.000
    27H     0.01743  0.07726   0.983  0.000  0.000
    28H     0.01324  0.07501   0.987  0.000  0.000
    29H     0.01056  0.07015   0.989  0.000  0.000
    30H     0.00543  0.06761   0.995  0.000  0.000
    31H     0.00553  0.06512   0.994  0.000  0.000
    32H     0.02022  0.07854   0.980  0.000  0.000
    33H     0.01787  0.07459   0.982  0.000  0.000
    34H     0.02720  0.08605   0.973  0.000  0.000
    35H     0.02637  0.08474   0.974  0.000  0.000
    36H     0.02138  0.07882   0.979  0.000  0.000
    37H     0.01705  0.07355   0.983  0.000  0.000
    38H     0.21820  0.43196   0.782  0.000  0.000
    39H     0.05409  0.11001   0.946  0.000  0.000
    40H     0.06221  0.11657   0.938  0.000  0.000
    41H     0.06184  0.11629   0.938  0.000  0.000
    42H     0.34009  0.52807   0.660  0.000  0.000

Wiberg/Mayer (AO) data.
largest (>0.10) Wiberg bond orders for each atom

 ---------------------------------------------------------------------------
     #   Z sym  total        # sym  WBO       # sym  WBO       # sym  WBO
 ---------------------------------------------------------------------------
     1   6 C    3.917 --    27 H    0.986    28 H    0.982    26 H    0.982
                             2 O    0.943
     2   8 O    2.026 --     1 C    0.943     3 C    0.911
     3   6 C    3.469 --     6 C    1.394     4 O    0.938     2 O    0.911
     4   8 O    2.000 --     3 C    0.938     5 C    0.935
     5   6 C    3.914 --    29 H    0.986    31 H    0.983    30 H    0.979
                             4 O    0.935
     6   6 C    3.966 --     3 C    1.394    24 C    1.255     7 N    1.134
     7   7 N    2.945 --     8 C    1.444     6 C    1.134    21 N    0.123
     8   6 C    3.960 --     7 N    1.444    21 N    1.416     9 C    0.957
     9   6 C    3.930 --    10 C    0.986    11 C    0.985     8 C    0.957
                            12 N    0.932
    10   6 C    3.994 --    33 H    0.987     9 C    0.986    34 H    0.984
                            32 H    0.983
    11   6 C    3.994 --    37 H    0.987    36 H    0.986     9 C    0.985
                            35 H    0.985
    12   7 N    3.293 --    13 C    1.234     9 C    0.932    38 H    0.877
                            14 O    0.157
    13   6 C    3.839 --    14 O    1.480    12 N    1.234    15 C    1.055
    14   8 O    1.758 --    13 C    1.480    12 N    0.157
    15   6 C    3.734 --    16 N    1.494    13 C    1.055    20 O    1.008
    16   7 N    2.847 --    15 C    1.494    17 N    1.185
    17   7 N    2.980 --    18 C    1.626    16 N    1.185
    18   6 C    3.840 --    17 N    1.626    20 O    1.062    19 C    1.026
    19   6 C    3.992 --    18 C    1.026    39 H    0.985    41 H    0.970
                            40 H    0.968
    20   8 O    2.233 --    18 C    1.062    15 C    1.008
    21   7 N    2.947 --     8 C    1.416    22 C    1.122     7 N    0.123
    22   6 C    3.911 --    23 O    1.405    24 C    1.253    21 N    1.122
    23   8 O    1.662 --    22 C    1.405
    24   6 C    3.717 --     6 C    1.255    22 C    1.253    25 O    0.963
    25   8 O    1.917 --    24 C    0.963    42 H    0.853
    26   1 H    1.018 --     1 C    0.982
    27   1 H    1.020 --     1 C    0.986
    28   1 H    1.024 --     1 C    0.982
    29   1 H    1.021 --     5 C    0.986
    30   1 H    1.036 --     5 C    0.979
    31   1 H    1.016 --     5 C    0.983
    32   1 H    1.026 --    10 C    0.983
    33   1 H    1.009 --    10 C    0.987
    34   1 H    1.017 --    10 C    0.984
    35   1 H    1.016 --    11 C    0.985
    36   1 H    1.021 --    11 C    0.986
    37   1 H    1.010 --    11 C    0.987
    38   1 H    1.000 --    12 N    0.877
    39   1 H    1.003 --    19 C    0.985
    40   1 H    1.000 --    19 C    0.968
    41   1 H    1.000 --    19 C    0.970
    42   1 H    0.907 --    25 O    0.853
 ---------------------------------------------------------------------------

Topologies differ in total number of bonds
Writing topology from bond orders to xtbtopo.mol

 dipole moment from electron density (au)
     X       Y       Z   
   1.0693  -0.4420  -4.8207  total (Debye):   12.601

           -------------------------------------------------
          |                Geometry Summary                 |
           -------------------------------------------------

      molecular mass/u    :      351.3152409
   center of mass at/Å    :        0.2008122      -0.0241487       0.3262662
  moments of inertia/u·Å² :        0.9769133E+03   0.5303310E+04   0.6082191E+04
rotational constants/cm⁻¹ :        0.1725602E-01   0.3178700E-02   0.2771638E-02

 * 34 selected distances

     #   Z          #   Z                                           value/Å
     1   6 C        2   8 O                                       1.4192784
     4   8 O        5   6 C                                       1.4252338
     3   6 C        6   6 C                                       1.3900588
     7   7 N        8   6 C                                       1.3178944
     9   6 C       10   6 C                                       1.5362421
     9   6 C       11   6 C                                       1.5366809 (max)
     9   6 C       12   7 N                                       1.4561026
    12   7 N       13   6 C                                       1.3513590
    13   6 C       14   8 O                                       1.2415936
    15   6 C       16   7 N                                       1.3189750
    17   7 N       18   6 C                                       1.2932663
    18   6 C       19   6 C                                       1.4823825
    15   6 C       20   8 O                                       1.3684714
    18   6 C       20   8 O                                       1.3494670
     8   6 C       21   7 N                                       1.3197896
     6   6 C       24   6 C                                       1.4164969
    22   6 C       24   6 C                                       1.4218893
     1   6 C       26   1 H                                       1.0984242
     1   6 C       27   1 H                                       1.0910062
     1   6 C       28   1 H                                       1.0965029
     5   6 C       29   1 H                                       1.0921971
     5   6 C       30   1 H                                       1.0990158
     5   6 C       31   1 H                                       1.0974314
    10   6 C       32   1 H                                       1.0901627
    10   6 C       33   1 H                                       1.0902967
    10   6 C       34   1 H                                       1.0893255
    11   6 C       35   1 H                                       1.0896598
    11   6 C       36   1 H                                       1.0901612
    11   6 C       37   1 H                                       1.0905061
    12   7 N       38   1 H                                       1.0231046
    19   6 C       39   1 H                                       1.0870952
    19   6 C       40   1 H                                       1.0899682
    19   6 C       41   1 H                                       1.0896075
    25   8 O       42   1 H                                       0.9694780 (min)

 * 6 distinct bonds (by element types)

   Z      Z             #   av. dist./Å        max./Å        min./Å
   1 H    6 C          15     1.0920907     1.0990158     1.0870952
   6 C    6 C           6     1.4639584     1.5366809     1.3900588
   1 H    7 N           1     1.0231046     1.0231046     1.0231046
   6 C    7 N           6     1.3428978     1.4561026     1.2932663
   1 H    8 O           1     0.9694780     0.9694780     0.9694780
   6 C    8 O           5     1.3608088     1.4252338     1.2415936


optimized geometry written to: xtbopt.xyz


           -------------------------------------------------
          | TOTAL ENERGY              -83.579660923079 Eh   |
          | GRADIENT NORM               0.000263670030 Eh/α |
          | HOMO-LUMO GAP               0.081886343707 eV   |
           -------------------------------------------------

------------------------------------------------------------------------
 * finished run on 2023/06/20 at 17:35:16.206     
------------------------------------------------------------------------
 total:
 * wall-time:     0 d,  0 h,  0 min, 14.308 sec
 *  cpu-time:     0 d,  0 h,  0 min, 14.026 sec
 * ratio c/w:     0.980 speedup
 SCF:
 * wall-time:     0 d,  0 h,  0 min,  0.331 sec
 *  cpu-time:     0 d,  0 h,  0 min,  0.205 sec
 * ratio c/w:     0.619 speedup
 ANC optimizer:
 * wall-time:     0 d,  0 h,  0 min, 13.896 sec
 *  cpu-time:     0 d,  0 h,  0 min, 13.788 sec
 * ratio c/w:     0.992 speedup

