42
 energy: -82.974707426226 gnorm: 0.000519850729 xtb: 6.5.1 (579679a)
C           -5.32082794347978        2.61466683285241        0.32930295353058
O           -4.18281990906389        1.82712424196039       -0.03799616649269
C           -4.42846091608897        0.57192925706806       -0.39808259261379
O           -5.53047937116476        0.07524320573255       -0.42167185503207
C           -3.17835288877269       -0.15068923091176       -0.75703723243391
C           -3.24309149196440       -1.38924603130003       -1.20324613912768
O           -3.35868737072641       -2.46854991583495       -1.60321048180912
C           -0.69310468242020       -2.23379310776730        0.09935583062959
C           -1.46265052494201       -1.84254343356214        1.32962022334629
O           -0.19283010300018       -3.32957027147813       -0.04206293092013
N           -0.57232055311465       -1.30296908845458       -0.91922466141163
C           -0.83073977766863        0.07526053615935       -0.80767104475725
C            0.35654583714057        1.00987471373408       -0.97133977275677
C            0.15458567278982        2.27506389679292       -0.13035718180343
C            0.48596077496080        1.36743170543835       -2.45660861373619
N            1.58396439301132        0.32385875981536       -0.57496211287609
C            1.76987680822921       -0.16743756112754        0.66811703877881
O            0.92562224934731       -0.16818211374960        1.55020559637373
C            3.12135633219047       -0.74423858301210        0.86219795712636
N            3.59344185600730       -1.32870791951373        1.91890327541139
N            4.87354024514034       -1.69285004702718        1.62817270521554
C            5.10543163486172       -1.30711333347248        0.41208135498234
C            6.35131228995214       -1.46311952706877       -0.36886084957881
O            4.03663214239212       -0.70093740303158       -0.13048744477744
N           -1.98460687139682        0.59617545802799       -0.70258390751339
H           -4.94218754849389        3.60116358627334        0.58763238666763
H           -6.01622662460592        2.68214575623103       -0.51035641039804
H           -5.82757294166657        2.16459431710861        1.18598982397568
H           -1.52682624151258       -0.76563443600469        1.44868492442278
H           -0.96498066698683       -2.27944773220805        2.19333435032957
H           -2.46556386085220       -2.26296110917674        1.26579558393566
H            0.17146457896104       -1.53783293914681       -1.56218489144842
H           -0.74378579670813        2.78879929004237       -0.46864084906666
H            1.01233896743961        2.93384741935707       -0.24780792953801
H            0.03926284938589        2.01756086354935        0.92140192740090
H           -0.43380810770011        1.83761244191533       -2.80072164552948
H            1.31360387600081        2.05953607124846       -2.59973627855082
H            0.66848362612953        0.47141396625916       -3.04637342288664
H            2.35811920482373        0.33833375333344       -1.21637529145261
H            6.16073274616112       -2.06626683142885       -1.25640908675213
H            7.11153246256474       -1.94279240514477        0.24313952311262
H            6.70611364483588       -0.48675405247448       -0.69749366197701
