16
 energy: -33.392126493646 gnorm: 0.000558479236 xtb: 6.5.1 (579679a)
C           -2.65367420407207       -0.03464133328245        0.79187458060254
C           -1.26657518918219       -0.31784811153502        0.46186837542741
N           -0.73686648769403       -1.57327999845852        0.26014929036348
N            0.49035886108266       -1.43950393745890        0.01389484554237
C            0.83876110370557       -0.06649686339782        0.01723334476500
C            1.36770089699969        0.26420445324251       -1.45240563337363
C            1.95007985423868        0.30478103995720        1.00146283052301
O            2.38104466391980       -0.23810006837712       -1.79849936981149
Cl           0.41861379371673        1.32160084094236       -2.34119610545796
O           -0.36852098212422        0.58628894919653        0.32142216165099
H           -3.30221931117812       -0.45270071419039        0.01719888048376
H           -2.90972189799972       -0.55772960630542        1.71787444360315
H           -2.82202044455191        1.03452853013509        0.89781519887368
H            2.86151560065578       -0.21284523677826        0.70798522887584
H            1.64756792290302        0.00053191511195        2.00094295715041
H            2.10395581958053        1.38120914119797        0.97425797078155
