      -----------------------------------------------------------      
     |                   =====================                   |     
     |                           x T B                           |     
     |                   =====================                   |     
     |                         S. Grimme                         |     
     |          Mulliken Center for Theoretical Chemistry        |     
     |                    University of Bonn                     |     
      -----------------------------------------------------------      

   * xtb version 6.5.1 (579679a) compiled by 'ehlert@majestix' on 2022-07-11

   xtb is free software: you can redistribute it and/or modify it under
   the terms of the GNU Lesser General Public License as published by
   the Free Software Foundation, either version 3 of the License, or
   (at your option) any later version.
   
   xtb is distributed in the hope that it will be useful,
   but WITHOUT ANY WARRANTY; without even the implied warranty of
   MERCHANTABILITY or FITNESS FOR A PARTICULAR PURPOSE.  See the
   GNU Lesser General Public License for more details.
   
   Cite this work as:
   * C. Bannwarth, E. Caldeweyher, S. Ehlert, A. Hansen, P. Pracht,
     J. Seibert, S. Spicher, S. Grimme, WIREs Comput. Mol. Sci., 2020, 11,
     e01493. DOI: 10.1002/wcms.1493
   
   for GFN2-xTB:
   * C. Bannwarth, S. Ehlert and S. Grimme., J. Chem. Theory Comput., 2019,
     15, 1652-1671. DOI: 10.1021/acs.jctc.8b01176
   for GFN1-xTB:
   * S. Grimme, C. Bannwarth, P. Shushkov, J. Chem. Theory Comput., 2017,
     13, 1989-2009. DOI: 10.1021/acs.jctc.7b00118
   for GFN0-xTB:
   * P. Pracht, E. Caldeweyher, S. Ehlert, S. Grimme, ChemRxiv, 2019, preprint.
     DOI: 10.26434/chemrxiv.8326202.v1
   for GFN-FF:
   * S. Spicher and S. Grimme, Angew. Chem. Int. Ed., 2020, 59, 15665-15673.
     DOI: 10.1002/anie.202004239
   
   for ALPB and GBSA implicit solvation:
   * S. Ehlert, M. Stahn, S. Spicher, S. Grimme, J. Chem. Theory Comput.,
     2021, 17, 4250-4261. DOI: 10.1021/acs.jctc.1c00471
   
   for DFT-D4:
   * E. Caldeweyher, C. Bannwarth and S. Grimme, J. Chem. Phys., 2017,
     147, 034112. DOI: 10.1063/1.4993215
   * E. Caldeweyher, S. Ehlert, A. Hansen, H. Neugebauer, S. Spicher,
     C. Bannwarth and S. Grimme, J. Chem. Phys., 2019, 150, 154122.
     DOI: 10.1063/1.5090222
   * E. Caldeweyher, J.-M. Mewes, S. Ehlert and S. Grimme, Phys. Chem. Chem. Phys.
     2020, 22, 8499-8512. DOI: 10.1039/D0CP00502A
   
   for sTDA-xTB:
   * S. Grimme and C. Bannwarth, J. Chem. Phys., 2016, 145, 054103.
     DOI: 10.1063/1.4959605
   
   in the mass-spec context:
   * V. Asgeirsson, C. Bauer and S. Grimme, Chem. Sci., 2017, 8, 4879.
     DOI: 10.1039/c7sc00601b
   * J. Koopman and S. Grimme, ACS Omega 2019, 4, 12, 15120-15133.
     DOI: 10.1021/acsomega.9b02011
   
   for metadynamics refer to:
   * S. Grimme, J. Chem. Theory Comput., 2019, 155, 2847-2862
     DOI: 10.1021/acs.jctc.9b00143
   
   for SPH calculations refer to:
   * S. Spicher and S. Grimme, J. Chem. Theory Comput., 2021, 17, 1701-1714
     DOI: 10.1021/acs.jctc.0c01306
   
   with help from (in alphabetical order)
   P. Atkinson, C. Bannwarth, F. Bohle, G. Brandenburg, E. Caldeweyher
   M. Checinski, S. Dohm, S. Ehlert, S. Ehrlich, I. Gerasimov, C. Hölzer
   A. Katbashev, J. Koopman, C. Lavigne, S. Lehtola, F. März, M. Müller,
   F. Musil, H. Neugebauer, J. Pisarek, C. Plett, P. Pracht, F. Pultar,
   J. Seibert, P. Shushkov, S. Spicher, M. Stahn, M. Steiner, T. Strunk,
   J. Stückrath, T. Rose, and J. Unsleber
   
 * started run on 2023/06/21 at 17:16:12.455     

           -------------------------------------------------
          |                Calculation Setup                |
           -------------------------------------------------

          program call               : /lustre/hpc/kemi/ree/PhD/git/ReactivityQM/dep/xtb-6.5.1/bin/xtb --gfn 1 /lustre/hpc/kemi/ree/PhD/git/ReactivityQM/calculations/R02oxygendeprot/reac01prodE14/conf13/R02oxygendeprot_reac01prodE14_conf13_gfn1.xyz --opt --vfukui --chrg -2 --uhf 0 --alpb DMSO
          hostname                   : node070
          coordinate file            : /lustre/hpc/kemi/ree/PhD/git/ReactivityQM/calculations/R02oxygendeprot/reac01prodE14/conf13/R02oxygendeprot_reac01prodE14_conf13_gfn1.xyz
          omp threads                :                     1

   ID    Z sym.   atoms
    1    6 C      1, 3, 5, 7-10, 12, 14, 17, 18, 21, 23, 24
    2    8 O      2, 4, 13, 19, 22, 25
    3    7 N      6, 11, 15, 16, 20
    4    1 H      26-42

           -------------------------------------------------
          |                 G F N 1 - x T B                 |
           -------------------------------------------------

        Reference                      10.1021/acs.jctc.7b00118
      * Hamiltonian:
        H0-scaling (s, p, d)           1.850000    2.250000    2.000000
        zeta-weighting                 0.000000
      * Dispersion:
        s8                             2.400000
        a1                             0.630000
        a2                             5.000000
        s9                             0.000000
      * Repulsion:
        kExp                           1.500000
        rExp                           1.000000
      * Coulomb:
        alpha                          2.000000
        third order                    atomic
        anisotropic                    false
      * Halogen bond correction:
        rad-scale                      1.300000
        damping                        0.440000

      * Solvation model:               ALPB
        Solvent                        DMSO
        Parameter file                 internal GFN1-xTB/ALPB
        Dielectric constant                4.6680E+01
        Reference state                gsolv [1 M gas/solution]
        Free energy shift                  7.6243E-03 Eh       4.7843E+00 kcal/mol
        Temperature                        2.9815E+02 K
        Density                            1.1000E+00 kg/L
        Solvent mass                       7.8130E+01 g/mol
        Interaction kernel             P16
        Born radius scaling (c1)           1.7672E+00
        Born radii integrator          GBOBC
        Born offset                        0.0000E+00 a0       0.0000E+00 AA
        H-bond correction              true
        Ion screening                  false
        Surface tension                    1.0000E-05 Eh       1.5569E+01 dyn/cm
        Grid points                               230 per atom

          ...................................................
          :                      SETUP                      :
          :.................................................:
          :  # basis functions                 134          :
          :  # atomic orbitals                 134          :
          :  # shells                           84          :
          :  # electrons                       136          :
          :  # halogen bonds                     0          :
          :  max. iterations                   250          :
          :  Hamiltonian                  GFN1-xTB          :
          :  restarted?                      false          :
          :  GBSA solvation                   true          :
          :  PC potential                    false          :
          :  electronic temp.          300.0000000     K    :
          :  accuracy                    1.0000000          :
          :  -> integral cutoff          0.2500000E+02      :
          :  -> integral neglect         0.1000000E-07      :
          :  -> SCF convergence          0.1000000E-05 Eh   :
          :  -> wf. convergence          0.2000000E-04 e    :
          :  Broyden damping             0.4000000          :
          ...................................................

 iter      E             dE          RMSdq      gap      omega  full diag
   1    -83.9718181 -0.839718E+02  0.871E+00    1.76       0.0  T
   2    -84.2771717 -0.305354E+00  0.520E+00    0.29       1.0  T
   3    -83.6695687  0.607603E+00  0.312E+00    0.11       1.0  T
   4    -84.2376957 -0.568127E+00  0.134E+00    1.75       1.0  T
   5    -84.2925928 -0.548971E-01  0.630E-01    0.72       1.0  T
   6    -84.2994285 -0.683570E-02  0.442E-01    0.35       1.0  T
   7    -84.1038519  0.195577E+00  0.133E+00    0.08       1.0  T
   8    -84.1181800 -0.143281E-01  0.129E+00    0.08       1.0  T
   9    -84.1029745  0.152055E-01  0.129E+00    0.09       1.0  T
  10    -84.3109786 -0.208004E+00  0.167E-01    0.13       1.0  T
  11    -84.3121953 -0.121671E-02  0.106E-01    0.12       1.0  T
  12    -84.3124230 -0.227643E-03  0.724E-02    0.12       1.0  T
  13    -84.3128541 -0.431149E-03  0.341E-02    0.09       1.0  T
  14    -84.3129599 -0.105734E-03  0.182E-02    0.10       1.0  T
  15    -84.3129584  0.144833E-05  0.171E-02    0.10       1.0  T
  16    -84.3129932 -0.347842E-04  0.459E-03    0.10       3.4  T
  17    -84.3129936 -0.400879E-06  0.364E-03    0.10       4.2  T
  18    -84.3129948 -0.118541E-05  0.188E-03    0.10       8.2  T
  19    -84.3129951 -0.312246E-06  0.845E-04    0.10      18.3  T
  20    -84.3129952 -0.720694E-07  0.215E-04    0.10      71.6  T
  21    -84.3129952 -0.393651E-08  0.795E-05    0.10     194.1  T
  22    -84.3129952 -0.766619E-09  0.165E-05    0.10     934.5  T

   *** convergence criteria satisfied after 22 iterations ***

         #    Occupation            Energy/Eh            Energy/eV
      -------------------------------------------------------------
         1        2.0000           -0.8314845             -22.6258
       ...           ...                  ...                  ...
        62        2.0000           -0.4058227             -11.0430
        63        2.0000           -0.3974750             -10.8158
        64        2.0000           -0.3823579             -10.4045
        65        2.0000           -0.3733605             -10.1597
        66        2.0000           -0.3017630              -8.2114
        67        2.0000           -0.2997997              -8.1580
        68        1.7481           -0.2905417              -7.9060 (HOMO)
        69        0.2520           -0.2868612              -7.8059 (LUMO)
        70                         -0.2358358              -6.4174
        71                         -0.2175231              -5.9191
        72                         -0.1734670              -4.7203
        73                         -0.1698364              -4.6215
       ...                                ...                  ...
       134                          0.7463325              20.3087
      -------------------------------------------------------------
                  HL-Gap            0.0036805 Eh            0.1002 eV
             Fermi-level           -0.2887014 Eh           -7.8560 eV

 SCC (total)                   0 d,  0 h,  0 min,  0.222 sec
 SCC setup                      ...        0 min,  0.002 sec (  0.889%)
 Dispersion                     ...        0 min,  0.000 sec (  0.134%)
 classical contributions        ...        0 min,  0.000 sec (  0.046%)
 integral evaluation            ...        0 min,  0.027 sec ( 11.982%)
 iterations                     ...        0 min,  0.128 sec ( 57.828%)
 molecular gradient             ...        0 min,  0.063 sec ( 28.472%)
 printout                       ...        0 min,  0.001 sec (  0.628%)

         :::::::::::::::::::::::::::::::::::::::::::::::::::::
         ::                     SUMMARY                     ::
         :::::::::::::::::::::::::::::::::::::::::::::::::::::
         :: total energy             -83.586810221806 Eh    ::
         :: total w/o Gsasa/hb       -83.567089933878 Eh    ::
         :: gradient norm              0.145703140672 Eh/a0 ::
         :: HOMO-LUMO gap              0.100151508957 eV    ::
         ::.................................................::
         :: SCC energy               -84.312995170995 Eh    ::
         :: -> electrostatic           0.727614606741 Eh    ::
         :: -> Gsolv                  -0.285238557649 Eh    ::
         ::    -> Gelec               -0.265518269721 Eh    ::
         ::    -> Gsasa               -0.024381820382 Eh    ::
         ::    -> Ghb                 -0.002962746551 Eh    ::
         ::    -> Gshift               0.007624279005 Eh    ::
         :: repulsion energy           0.751692837987 Eh    ::
         :: dispersion energy         -0.025507888798 Eh    ::
         :: halogen bond corr.         0.000000000000 Eh    ::
         :: add. restraining           0.000000000000 Eh    ::
         :: total charge              -2.000000000000 e     ::
         :::::::::::::::::::::::::::::::::::::::::::::::::::::

      ----------------------------------------------------------- 
     |                   =====================                   |
     |                        A N C O P T                        |
     |                   =====================                   |
     |               Approximate Normal Coordinate               |
     |                Rational Function Optimizer                |
      ----------------------------------------------------------- 

          ...................................................
          :                      SETUP                      :
          :.................................................:
          :   optimization level            normal          :
          :   max. optcycles                   200          :
          :   ANC micro-cycles                  20          :
          :   degrees of freedom               120          :
          :.................................................:
          :   RF solver                   davidson          :
          :   write xtbopt.log                true          :
          :   linear?                        false          :
          :   energy convergence         0.5000000E-05 Eh   :
          :   grad. convergence          0.1000000E-02 Eh/α :
          :   maximium RF displ.         1.0000000          :
          :   Hlow (freq-cutoff)         0.1000000E-01      :
          :   Hmax (freq-cutoff)         5.0000000          :
          :   S6 in model hess.         20.0000000          :
          ...................................................

generating ANC from model Hessian ...
Using Lindh-Hessian (1995)
 Shifting diagonal of input Hessian by   9.835565345221722E-003
 Lowest  eigenvalues of input Hessian
    0.000000    0.000000    0.000000    0.000000    0.000000    0.000000
    0.010000    0.010166    0.010622    0.010975    0.011707    0.011993
    0.012624    0.013795    0.014580    0.015595    0.016066    0.016783
 Highest eigenvalues
    1.914832    2.084829    2.092677    2.238879    2.289093    2.349207
 

........................................................................
.............................. CYCLE    1 ..............................
........................................................................
   1    -84.3129952 -0.843130E+02  0.315E-06    0.10       0.0  T
   2    -84.3129952  0.883915E-10  0.265E-05    0.10     583.2  T
   3    -84.3129952 -0.890452E-10  0.167E-06    0.10    9218.2  T
     SCC iter.                  ...        0 min,  0.018 sec
     gradient                   ...        0 min,  0.061 sec
 * total energy  :   -83.5868102 Eh     change       -0.2431477E-10 Eh
   gradient norm :     0.1457041 Eh/α   predicted     0.0000000E+00 (-100.00%)
   displ. norm   :     0.2917071 α      lambda       -0.1985412E-01
   maximum displ.:     0.0894216 α      in ANC's #11, #62, #7, ...

........................................................................
.............................. CYCLE    2 ..............................
........................................................................
   1    -84.3150833 -0.843151E+02  0.259E-01    0.31       0.0  T
   2    -83.9485886  0.366495E+00  0.174E+00    0.20       1.0  T
   3    -84.3179103 -0.369322E+00  0.195E-01    0.21       1.0  T
   4    -84.3198583 -0.194802E-02  0.134E-01    0.17       1.0  T
   5    -84.3214677 -0.160943E-02  0.705E-02    0.14       1.0  T
   6    -84.3219512 -0.483464E-03  0.288E-02    0.12       1.0  T
   7    -84.3217285  0.222646E-03  0.518E-02    0.10       1.0  T
   8    -84.3220115 -0.282989E-03  0.189E-02    0.12       1.0  T
   9    -84.3220553 -0.437372E-04  0.365E-03    0.11       4.2  T
  10    -84.3220562 -0.944610E-06  0.190E-03    0.11       8.1  T
  11    -84.3220566 -0.430652E-06  0.359E-04    0.11      42.9  T
  12    -84.3220566 -0.125389E-07  0.110E-04    0.11     139.7  T
  13    -84.3220566 -0.630607E-09  0.785E-05    0.11     196.6  T
     SCC iter.                  ...        0 min,  0.077 sec
     gradient                   ...        0 min,  0.063 sec
 * total energy  :   -83.6007990 Eh     change       -0.1398873E-01 Eh
   gradient norm :     0.0748942 Eh/α   predicted    -0.1079439E-01 ( -22.84%)
   displ. norm   :     0.2914879 α      lambda       -0.8605820E-02
   maximum displ.:     0.1175542 α      in ANC's #7, #11, #5, ...

........................................................................
.............................. CYCLE    3 ..............................
........................................................................
   1    -84.3288083 -0.843288E+02  0.217E-01    0.31       0.0  T
   2    -83.9168111  0.411997E+00  0.186E+00    0.16       1.0  T
   3    -84.3308700 -0.414059E+00  0.163E-01    0.22       1.0  T
   4    -84.3315612 -0.691169E-03  0.131E-01    0.20       1.0  T
   5    -84.3322423 -0.681111E-03  0.105E-01    0.18       1.0  T
   6    -84.3328377 -0.595429E-03  0.727E-02    0.16       1.0  T
   7    -84.3334106 -0.572814E-03  0.145E-02    0.13       1.1  T
   8    -84.3334280 -0.174754E-04  0.536E-03    0.13       2.9  T
   9    -84.3334314 -0.332938E-05  0.261E-03    0.13       5.9  T
  10    -84.3334311  0.307507E-06  0.230E-03    0.13       6.7  T
  11    -84.3334314 -0.396227E-06  0.133E-03    0.13      11.6  T
  12    -84.3334316 -0.178247E-06  0.359E-04    0.13      43.0  T
  13    -84.3334316 -0.127503E-07  0.770E-05    0.13     200.5  T
  14    -84.3334316 -0.683798E-09  0.101E-05    0.13    1535.0  T
     SCC iter.                  ...        0 min,  0.080 sec
     gradient                   ...        0 min,  0.064 sec
 * total energy  :   -83.6058666 Eh     change       -0.5067603E-02 Eh
   gradient norm :     0.0234905 Eh/α   predicted    -0.4668510E-02 (  -7.88%)
   displ. norm   :     0.2628904 α      lambda       -0.1469384E-02
   maximum displ.:     0.1553047 α      in ANC's #7, #11, #5, ...

........................................................................
.............................. CYCLE    4 ..............................
........................................................................
   1    -84.3353773 -0.843354E+02  0.112E-01    0.20       0.0  T
   2    -84.0360729  0.299304E+00  0.156E+00    0.09       1.0  T
   3    -84.3363268 -0.300254E+00  0.726E-02    0.17       1.0  T
   4    -84.3363893 -0.625323E-04  0.641E-02    0.16       1.0  T
   5    -84.3366176 -0.228286E-03  0.465E-02    0.15       1.0  T
   6    -84.3368058 -0.188125E-03  0.221E-02    0.14       1.0  T
   7    -84.3368580 -0.522952E-04  0.574E-03    0.14       2.7  T
   8    -84.3368612 -0.310267E-05  0.251E-03    0.14       6.2  T
   9    -84.3368617 -0.528812E-06  0.126E-03    0.13      12.2  T
  10    -84.3368619 -0.172853E-06  0.219E-04    0.13      70.4  T
  11    -84.3368619  0.496470E-09  0.230E-04    0.13      67.0  T
  12    -84.3368619 -0.582394E-08  0.516E-05    0.13     298.9  T
  13    -84.3368619 -0.308262E-09  0.729E-06    0.13    2116.9  T
     SCC iter.                  ...        0 min,  0.078 sec
     gradient                   ...        0 min,  0.064 sec
 * total energy  :   -83.6070014 Eh     change       -0.1134885E-02 Eh
   gradient norm :     0.0148370 Eh/α   predicted    -0.7855387E-03 ( -30.78%)
   displ. norm   :     0.4238973 α      lambda       -0.1477488E-02
   maximum displ.:     0.2666330 α      in ANC's #7, #5, #12, ...

........................................................................
.............................. CYCLE    5 ..............................
........................................................................
   1    -84.3378667 -0.843379E+02  0.104E-01    0.21       0.0  T
   2    -84.0966390  0.241228E+00  0.140E+00    0.05       1.0  T
   3    -84.3385676 -0.241929E+00  0.739E-02    0.18       1.0  T
   4    -84.3386393 -0.716801E-04  0.656E-02    0.18       1.0  T
   5    -84.3388500 -0.210728E-03  0.494E-02    0.17       1.0  T
   6    -84.3390471 -0.197099E-03  0.256E-02    0.15       1.0  T
   7    -84.3391061 -0.589944E-04  0.116E-02    0.15       1.3  T
   8    -84.3391184 -0.123240E-04  0.532E-03    0.14       2.9  T
   9    -84.3391215 -0.300179E-05  0.134E-03    0.14      11.5  T
  10    -84.3391216 -0.169436E-06  0.536E-04    0.14      28.8  T
  11    -84.3391216 -0.200945E-07  0.340E-04    0.14      45.4  T
  12    -84.3391217 -0.130851E-07  0.472E-05    0.14     327.2  T
  13    -84.3391217 -0.251035E-09  0.896E-06    0.14    1722.3  T
     SCC iter.                  ...        0 min,  0.076 sec
     gradient                   ...        0 min,  0.063 sec
 * total energy  :   -83.6080546 Eh     change       -0.1053126E-02 Eh
   gradient norm :     0.0106515 Eh/α   predicted    -0.8715173E-03 ( -17.24%)
   displ. norm   :     0.3934105 α      lambda       -0.7941976E-03
   maximum displ.:     0.2625507 α      in ANC's #7, #12, #5, ...

........................................................................
.............................. CYCLE    6 ..............................
........................................................................
   1    -84.3394590 -0.843395E+02  0.637E-02    0.19       0.0  T
   2    -84.2745207  0.649383E-01  0.726E-01    0.02       1.0  T
   3    -84.3397805 -0.652598E-01  0.391E-02    0.17       1.0  T
   4    -84.3398317 -0.512243E-04  0.311E-02    0.16       1.0  T
   5    -84.3399152 -0.835374E-04  0.159E-02    0.16       1.0  T
   6    -84.3399429 -0.276818E-04  0.264E-03    0.15       5.8  T
   7    -84.3399437 -0.768038E-06  0.437E-04    0.15      35.3  T
   8    -84.3399437 -0.526742E-08  0.325E-04    0.15      47.5  T
   9    -84.3399437 -0.761712E-08  0.148E-04    0.15     104.0  T
  10    -84.3399437 -0.136158E-08  0.956E-05    0.15     161.3  T
     SCC iter.                  ...        0 min,  0.058 sec
     gradient                   ...        0 min,  0.063 sec
 * total energy  :   -83.6086466 Eh     change       -0.5920158E-03 Eh
   gradient norm :     0.0110775 Eh/α   predicted    -0.4585593E-03 ( -22.54%)
   displ. norm   :     0.3718123 α      lambda       -0.5895920E-03
   maximum displ.:     0.2348781 α      in ANC's #7, #12, #10, ...

........................................................................
.............................. CYCLE    7 ..............................
........................................................................
   1    -84.3408263 -0.843408E+02  0.350E-02    0.17       0.0  T
   2    -84.3328367  0.798966E-02  0.257E-01    0.08       1.0  T
   3    -84.3409386 -0.810193E-02  0.160E-02    0.16       1.0  T
   4    -84.3409604 -0.217996E-04  0.767E-03    0.15       2.0  T
   5    -84.3409670 -0.658830E-05  0.123E-03    0.15      12.6  T
   6    -84.3409665  0.495267E-06  0.223E-03    0.15       6.9  T
   7    -84.3409670 -0.484877E-06  0.960E-04    0.15      16.1  T
   8    -84.3409671 -0.103966E-06  0.169E-04    0.15      91.5  T
   9    -84.3409671 -0.309852E-08  0.393E-05    0.15     392.8  T
     SCC iter.                  ...        0 min,  0.052 sec
     gradient                   ...        0 min,  0.064 sec
 * total energy  :   -83.6091006 Eh     change       -0.4540006E-03 Eh
   gradient norm :     0.0102113 Eh/α   predicted    -0.3355522E-03 ( -26.09%)
   displ. norm   :     0.3857369 α      lambda       -0.5041913E-03
   maximum displ.:     0.2323681 α      in ANC's #7, #12, #4, ...

........................................................................
.............................. CYCLE    8 ..............................
........................................................................
   1    -84.3419783 -0.843420E+02  0.149E-02    0.15       0.0  T
   2    -84.3419880 -0.964428E-05  0.103E-02    0.15       1.5  T
   3    -84.3419860  0.193994E-05  0.894E-03    0.15       1.7  T
   4    -84.3419921 -0.602571E-05  0.453E-03    0.15       3.4  T
   5    -84.3419939 -0.186233E-05  0.193E-03    0.15       8.0  T
   6    -84.3419941 -0.129521E-06  0.587E-04    0.15      26.3  T
   7    -84.3419941 -0.302773E-07  0.944E-05    0.15     163.5  T
   8    -84.3419941 -0.494197E-09  0.345E-05    0.15     447.5  T
     SCC iter.                  ...        0 min,  0.046 sec
     gradient                   ...        0 min,  0.062 sec
 * total energy  :   -83.6094576 Eh     change       -0.3570646E-03 Eh
   gradient norm :     0.0089354 Eh/α   predicted    -0.2896066E-03 ( -18.89%)
   displ. norm   :     0.2730044 α      lambda       -0.2729723E-03
   maximum displ.:     0.1399022 α      in ANC's #7, #2, #4, ...

........................................................................
.............................. CYCLE    9 ..............................
........................................................................
   1    -84.3434125 -0.843434E+02  0.222E-02    0.14       0.0  T
   2    -84.3429993  0.413154E-03  0.637E-02    0.19       1.0  T
   3    -84.3434660 -0.466692E-03  0.698E-03    0.15       2.2  T
   4    -84.3434676 -0.155229E-05  0.297E-03    0.15       5.2  T
   5    -84.3434677 -0.131266E-06  0.241E-03    0.15       6.4  T
   6    -84.3434680 -0.339407E-06  0.904E-04    0.15      17.1  T
   7    -84.3434681 -0.922758E-07  0.734E-05    0.15     210.2  T
   8    -84.3434681 -0.216318E-09  0.288E-05    0.15     536.6  T
     SCC iter.                  ...        0 min,  0.045 sec
     gradient                   ...        0 min,  0.064 sec
 * total energy  :   -83.6096508 Eh     change       -0.1931057E-03 Eh
   gradient norm :     0.0070908 Eh/α   predicted    -0.1466616E-03 ( -24.05%)
   displ. norm   :     0.2152522 α      lambda       -0.1701942E-03
   maximum displ.:     0.1059902 α      in ANC's #2, #4, #7, ...

........................................................................
.............................. CYCLE   10 ..............................
........................................................................
   1    -84.3442178 -0.843442E+02  0.196E-02    0.14       0.0  T
   2    -84.3438350  0.382781E-03  0.603E-02    0.19       1.0  T
   3    -84.3442591 -0.424078E-03  0.426E-03    0.15       3.6  T
   4    -84.3442597 -0.658546E-06  0.182E-03    0.15       8.5  T
   5    -84.3442596  0.136519E-06  0.174E-03    0.15       8.9  T
   6    -84.3442598 -0.170289E-06  0.361E-04    0.15      42.7  T
   7    -84.3442598 -0.120622E-07  0.610E-05    0.15     253.1  T
   8    -84.3442598 -0.178403E-09  0.258E-05    0.15     598.0  T
     SCC iter.                  ...        0 min,  0.047 sec
     gradient                   ...        0 min,  0.062 sec
 * total energy  :   -83.6097764 Eh     change       -0.1256453E-03 Eh
   gradient norm :     0.0051806 Eh/α   predicted    -0.8904062E-04 ( -29.13%)
   displ. norm   :     0.2263059 α      lambda       -0.1520272E-03
   maximum displ.:     0.1198736 α      in ANC's #2, #4, #3, ...

........................................................................
.............................. CYCLE   11 ..............................
........................................................................
   1    -84.3446275 -0.843446E+02  0.107E-02    0.15       0.0  T
   2    -84.3445484  0.791080E-04  0.270E-02    0.16       1.0  T
   3    -84.3446309 -0.825614E-04  0.801E-03    0.15       1.9  T
   4    -84.3446367 -0.572536E-05  0.193E-03    0.15       8.0  T
   5    -84.3446366  0.181634E-07  0.150E-03    0.15      10.3  T
   6    -84.3446368 -0.119760E-06  0.407E-04    0.15      37.9  T
   7    -84.3446368 -0.133806E-07  0.504E-05    0.15     305.9  T
   8    -84.3446368 -0.704148E-10  0.234E-05    0.15     658.3  T
     SCC iter.                  ...        0 min,  0.046 sec
     gradient                   ...        0 min,  0.063 sec
 * total energy  :   -83.6098933 Eh     change       -0.1168872E-03 Eh
   gradient norm :     0.0050148 Eh/α   predicted    -0.7991702E-04 ( -31.63%)
   displ. norm   :     0.2885767 α      lambda       -0.1690153E-03
   maximum displ.:     0.1521169 α      in ANC's #2, #5, #4, ...

........................................................................
.............................. CYCLE   12 ..............................
........................................................................
   1    -84.3442666 -0.843443E+02  0.837E-03    0.15       0.0  T
   2    -84.3442484  0.181936E-04  0.143E-02    0.14       1.1  T
   3    -84.3442584 -0.997849E-05  0.997E-03    0.15       1.5  T
   4    -84.3442701 -0.117153E-04  0.241E-03    0.15       6.4  T
   5    -84.3442703 -0.179377E-06  0.134E-03    0.15      11.6  T
   6    -84.3442704 -0.137600E-06  0.350E-04    0.15      44.1  T
   7    -84.3442704 -0.900106E-08  0.574E-05    0.15     268.7  T
   8    -84.3442704 -0.992344E-10  0.215E-05    0.15     717.4  T
     SCC iter.                  ...        0 min,  0.042 sec
     gradient                   ...        0 min,  0.064 sec
 * total energy  :   -83.6100266 Eh     change       -0.1333314E-03 Eh
   gradient norm :     0.0069492 Eh/α   predicted    -0.9154538E-04 ( -31.34%)
   displ. norm   :     0.3171956 α      lambda       -0.1789156E-03
   maximum displ.:     0.1676704 α      in ANC's #2, #5, #4, ...

........................................................................
.............................. CYCLE   13 ..............................
........................................................................
   1    -84.3439525 -0.843440E+02  0.134E-02    0.16       0.0  T
   2    -84.3434612  0.491308E-03  0.650E-02    0.13       1.0  T
   3    -84.3439699 -0.508705E-03  0.445E-03    0.15       3.5  T
   4    -84.3439715 -0.155872E-05  0.157E-03    0.15       9.8  T
   5    -84.3439715 -0.229845E-07  0.103E-03    0.15      14.9  T
   6    -84.3439716 -0.719838E-07  0.420E-04    0.15      36.7  T
   7    -84.3439716 -0.166573E-07  0.106E-04    0.15     145.1  T
   8    -84.3439716 -0.966097E-09  0.247E-05    0.15     623.9  T
     SCC iter.                  ...        0 min,  0.039 sec
     gradient                   ...        0 min,  0.055 sec
 * total energy  :   -83.6101693 Eh     change       -0.1426325E-03 Eh
   gradient norm :     0.0082750 Eh/α   predicted    -0.9846200E-04 ( -30.97%)
   displ. norm   :     0.3345629 α      lambda       -0.1965624E-03
   maximum displ.:     0.1765129 α      in ANC's #2, #5, #4, ...

........................................................................
.............................. CYCLE   14 ..............................
........................................................................
   1    -84.3433213 -0.843433E+02  0.236E-02    0.17       0.0  T
   2    -84.3408941  0.242720E-02  0.143E-01    0.11       1.0  T
   3    -84.3433806 -0.248654E-02  0.859E-03    0.16       1.8  T
   4    -84.3433844 -0.376787E-05  0.523E-03    0.16       3.0  T
   5    -84.3433873 -0.290940E-05  0.786E-04    0.15      19.6  T
   6    -84.3433873  0.505370E-07  0.705E-04    0.15      21.9  T
   7    -84.3433873 -0.526246E-07  0.227E-04    0.15      67.9  T
   8    -84.3433873 -0.586601E-08  0.385E-05    0.15     401.3  T
   9    -84.3433873 -0.482459E-10  0.287E-05    0.15     537.2  T
     SCC iter.                  ...        0 min,  0.045 sec
     gradient                   ...        0 min,  0.054 sec
 * total energy  :   -83.6103340 Eh     change       -0.1647874E-03 Eh
   gradient norm :     0.0077305 Eh/α   predicted    -0.1092834E-03 ( -33.68%)
   displ. norm   :     0.4230977 α      lambda       -0.2535585E-03
   maximum displ.:     0.2318405 α      in ANC's #5, #2, #4, ...

........................................................................
.............................. CYCLE   15 ..............................
........................................................................
   1    -84.3433014 -0.843433E+02  0.294E-02    0.17       0.0  T
   2    -84.3393499  0.395156E-02  0.181E-01    0.10       1.0  T
   3    -84.3433868 -0.403696E-02  0.130E-02    0.16       1.2  T
   4    -84.3433940 -0.719832E-05  0.878E-03    0.16       1.8  T
   5    -84.3434019 -0.784368E-05  0.245E-03    0.16       6.3  T
   6    -84.3434023 -0.453617E-06  0.730E-04    0.16      21.1  T
   7    -84.3434024 -0.351478E-07  0.468E-04    0.16      33.0  T
   8    -84.3434024 -0.246835E-07  0.111E-04    0.16     138.5  T
   9    -84.3434024 -0.140481E-08  0.276E-05    0.16     558.1  T
     SCC iter.                  ...        0 min,  0.046 sec
     gradient                   ...        0 min,  0.055 sec
 * total energy  :   -83.6105370 Eh     change       -0.2029818E-03 Eh
   gradient norm :     0.0065316 Eh/α   predicted    -0.1494885E-03 ( -26.35%)
   displ. norm   :     0.4597835 α      lambda       -0.2469766E-03
   maximum displ.:     0.2540087 α      in ANC's #2, #5, #4, ...

........................................................................
.............................. CYCLE   16 ..............................
........................................................................
   1    -84.3418897 -0.843419E+02  0.320E-02    0.18       0.0  T
   2    -84.3377804  0.410929E-02  0.185E-01    0.10       1.0  T
   3    -84.3419816 -0.420119E-02  0.152E-02    0.17       1.0  T
   4    -84.3419949 -0.133071E-04  0.912E-03    0.17       1.7  T
   5    -84.3420038 -0.882812E-05  0.234E-03    0.16       6.6  T
   6    -84.3420040 -0.266405E-06  0.116E-03    0.16      13.3  T
   7    -84.3420041 -0.797698E-07  0.767E-04    0.16      20.1  T
   8    -84.3420042 -0.633104E-07  0.246E-04    0.16      62.7  T
   9    -84.3420042 -0.699114E-08  0.164E-05    0.16     938.4  T
  10    -84.3420042  0.453042E-10  0.215E-05    0.16     718.4  T
     SCC iter.                  ...        0 min,  0.050 sec
     gradient                   ...        0 min,  0.057 sec
 * total energy  :   -83.6107150 Eh     change       -0.1779591E-03 Eh
   gradient norm :     0.0064306 Eh/α   predicted    -0.1495961E-03 ( -15.94%)
   displ. norm   :     0.3941773 α      lambda       -0.2570819E-03
   maximum displ.:     0.2381770 α      in ANC's #5, #2, #4, ...

........................................................................
.............................. CYCLE   17 ..............................
........................................................................
   1    -84.3469769 -0.843470E+02  0.175E-02    0.17       0.0  T
   2    -84.3466962  0.280633E-03  0.498E-02    0.14       1.0  T
   3    -84.3469875 -0.291246E-03  0.129E-02    0.17       1.2  T
   4    -84.3469986 -0.111624E-04  0.551E-03    0.17       2.8  T
   5    -84.3470007 -0.205520E-05  0.186E-03    0.17       8.3  T
   6    -84.3470007 -0.444309E-07  0.668E-04    0.16      23.1  T
   7    -84.3470008 -0.371241E-07  0.200E-04    0.17      77.1  T
   8    -84.3470008 -0.343819E-08  0.470E-05    0.17     328.5  T
   9    -84.3470008 -0.686384E-11  0.271E-05    0.17     569.4  T
     SCC iter.                  ...        0 min,  0.043 sec
     gradient                   ...        0 min,  0.055 sec
 * total energy  :   -83.6108254 Eh     change       -0.1103849E-03 Eh
   gradient norm :     0.0097714 Eh/α   predicted    -0.1485199E-03 (  34.55%)
   displ. norm   :     0.4250872 α      lambda       -0.2427282E-03
   maximum displ.:     0.2495575 α      in ANC's #2, #5, #4, ...

........................................................................
.............................. CYCLE   18 ..............................
........................................................................
   1    -84.3421507 -0.843422E+02  0.224E-02    0.17       0.0  T
   2    -84.3413227  0.828040E-03  0.871E-02    0.14       1.0  T
   3    -84.3421921 -0.869446E-03  0.940E-03    0.17       1.6  T
   4    -84.3421975 -0.532340E-05  0.510E-03    0.17       3.0  T
   5    -84.3421980 -0.519743E-06  0.398E-03    0.17       3.9  T
   6    -84.3421981 -0.140161E-06  0.285E-03    0.17       5.4  T
   7    -84.3421989 -0.788834E-06  0.981E-04    0.17      15.7  T
   8    -84.3421990 -0.981825E-07  0.796E-05    0.17     193.8  T
   9    -84.3421990 -0.306926E-09  0.340E-05    0.17     454.3  T
     SCC iter.                  ...        0 min,  0.044 sec
     gradient                   ...        0 min,  0.054 sec
 * total energy  :   -83.6109525 Eh     change       -0.1271469E-03 Eh
   gradient norm :     0.0095032 Eh/α   predicted    -0.1432972E-03 (  12.70%)
   displ. norm   :     0.1319938 α      lambda       -0.1982673E-03
   maximum displ.:     0.0676947 α      in ANC's #2, #7, #19, ...

........................................................................
.............................. CYCLE   19 ..............................
........................................................................
   1    -84.3438312 -0.843438E+02  0.134E-02    0.17       0.0  T
   2    -84.3437993  0.318962E-04  0.207E-02    0.16       1.0  T
   3    -84.3438242 -0.249116E-04  0.129E-02    0.18       1.2  T
   4    -84.3438430 -0.187913E-04  0.349E-03    0.17       4.4  T
   5    -84.3438434 -0.383712E-06  0.181E-03    0.17       8.5  T
   6    -84.3438435 -0.593349E-07  0.558E-04    0.17      27.7  T
   7    -84.3438435 -0.271562E-07  0.110E-04    0.17     140.4  T
   8    -84.3438435 -0.293255E-09  0.523E-05    0.17     294.8  T
     SCC iter.                  ...        0 min,  0.040 sec
     gradient                   ...        0 min,  0.055 sec
 * total energy  :   -83.6110510 Eh     change       -0.9850099E-04 Eh
   gradient norm :     0.0083372 Eh/α   predicted    -0.1008609E-03 (   2.40%)
   displ. norm   :     0.2463331 α      lambda       -0.1549847E-03
   maximum displ.:     0.1620930 α      in ANC's #2, #4, #5, ...

........................................................................
.............................. CYCLE   20 ..............................
........................................................................
   1    -84.3442458 -0.843442E+02  0.244E-02    0.15       0.0  T
   2    -84.3438036  0.442197E-03  0.680E-02    0.22       1.0  T
   3    -84.3443077 -0.504046E-03  0.121E-02    0.17       1.3  T
   4    -84.3443233 -0.156655E-04  0.196E-03    0.16       7.9  T
   5    -84.3443233  0.187226E-07  0.174E-03    0.17       8.8  T
   6    -84.3443235 -0.195630E-06  0.613E-04    0.17      25.2  T
   7    -84.3443236 -0.339134E-07  0.878E-05    0.17     175.7  T
   8    -84.3443236 -0.432351E-09  0.234E-05    0.17     659.9  T
     SCC iter.                  ...        0 min,  0.040 sec
     gradient                   ...        0 min,  0.053 sec
 * total energy  :   -83.6111681 Eh     change       -0.1170544E-03 Eh
   gradient norm :     0.0053317 Eh/α   predicted    -0.8219512E-04 ( -29.78%)
   displ. norm   :     0.3734323 α      lambda       -0.1800737E-03
   maximum displ.:     0.2527701 α      in ANC's #2, #4, #1, ...
 * RMSD in coord.:     0.7391668 α      energy gain  -0.2435784E-01 Eh

generating ANC from model Hessian ...
Using Lindh-Hessian (1995)
 Shifting diagonal of input Hessian by   9.823283984574860E-003
 Lowest  eigenvalues of input Hessian
    0.000000    0.000000    0.000000    0.000000    0.000000    0.000000
    0.010000    0.010176    0.010597    0.011053    0.011699    0.012224
    0.012567    0.013416    0.014251    0.015507    0.016343    0.016882
 Highest eigenvalues
    2.008787    2.102460    2.161319    2.207835    2.243672    2.376926
 

........................................................................
.............................. CYCLE   21 ..............................
........................................................................
   1    -84.3455943 -0.843456E+02  0.163E-02    0.15       0.0  T
   2    -84.3454330  0.161357E-03  0.397E-02    0.18       1.0  T
   3    -84.3456169 -0.183953E-03  0.563E-03    0.16       2.7  T
   4    -84.3456191 -0.212915E-05  0.240E-03    0.16       6.4  T
   5    -84.3456191 -0.454642E-07  0.170E-03    0.16       9.1  T
   6    -84.3456193 -0.182072E-06  0.545E-04    0.16      28.3  T
   7    -84.3456193 -0.226064E-07  0.109E-04    0.16     141.1  T
   8    -84.3456193 -0.945363E-09  0.279E-05    0.16     554.0  T
     SCC iter.                  ...        0 min,  0.039 sec
     gradient                   ...        0 min,  0.053 sec
 * total energy  :   -83.6112815 Eh     change       -0.1134495E-03 Eh
   gradient norm :     0.0063876 Eh/α   predicted     0.0000000E+00 (-100.00%)
   displ. norm   :     0.0418970 α      lambda       -0.5951094E-04
   maximum displ.:     0.0189422 α      in ANC's #12, #2, #1, ...

........................................................................
.............................. CYCLE   22 ..............................
........................................................................
   1    -84.3458024 -0.843458E+02  0.652E-03    0.16       0.0  T
   2    -84.3457947  0.763534E-05  0.988E-03    0.17       1.6  T
   3    -84.3457996 -0.484597E-05  0.672E-03    0.16       2.3  T
   4    -84.3458048 -0.525972E-05  0.194E-03    0.16       7.9  T
   5    -84.3458051 -0.272096E-06  0.758E-04    0.16      20.4  T
   6    -84.3458051 -0.144788E-07  0.141E-04    0.16     109.7  T
   7    -84.3458051 -0.720988E-09  0.426E-05    0.16     361.8  T
     SCC iter.                  ...        0 min,  0.034 sec
     gradient                   ...        0 min,  0.053 sec
 * total energy  :   -83.6113342 Eh     change       -0.5265892E-04 Eh
   gradient norm :     0.0025204 Eh/α   predicted    -0.3545096E-04 ( -32.68%)
   displ. norm   :     0.0855808 α      lambda       -0.6269597E-04
   maximum displ.:     0.0425567 α      in ANC's #2, #12, #1, ...

........................................................................
.............................. CYCLE   23 ..............................
........................................................................
   1    -84.3459719 -0.843460E+02  0.867E-03    0.16       0.0  T
   2    -84.3459458  0.260658E-04  0.168E-02    0.17       1.0  T
   3    -84.3459722 -0.263633E-04  0.655E-03    0.16       2.4  T
   4    -84.3459770 -0.481091E-05  0.236E-03    0.16       6.5  T
   5    -84.3459774 -0.459391E-06  0.864E-04    0.16      17.9  T
   6    -84.3459775 -0.216410E-07  0.173E-04    0.16      89.1  T
   7    -84.3459775 -0.206548E-08  0.411E-05    0.16     375.0  T
     SCC iter.                  ...        0 min,  0.035 sec
     gradient                   ...        0 min,  0.053 sec
 * total energy  :   -83.6113771 Eh     change       -0.4290830E-04 Eh
   gradient norm :     0.0022209 Eh/α   predicted    -0.3157849E-04 ( -26.40%)
   displ. norm   :     0.0991844 α      lambda       -0.4017701E-04
   maximum displ.:     0.0511045 α      in ANC's #2, #1, #12, ...

........................................................................
.............................. CYCLE   24 ..............................
........................................................................
   1    -84.3459794 -0.843460E+02  0.652E-03    0.16       0.0  T
   2    -84.3459408  0.386372E-04  0.192E-02    0.17       1.0  T
   3    -84.3459837 -0.429029E-04  0.178E-03    0.16       8.7  T
   4    -84.3459836  0.747765E-07  0.172E-03    0.16       9.0  T
   5    -84.3459839 -0.251359E-06  0.592E-04    0.16      26.1  T
   6    -84.3459839 -0.180416E-07  0.860E-05    0.16     179.5  T
   7    -84.3459839  0.423199E-10  0.450E-05    0.16     342.8  T
     SCC iter.                  ...        0 min,  0.036 sec
     gradient                   ...        0 min,  0.055 sec
 * total energy  :   -83.6114101 Eh     change       -0.3298453E-04 Eh
   gradient norm :     0.0035189 Eh/α   predicted    -0.2042015E-04 ( -38.09%)
   displ. norm   :     0.1978613 α      lambda       -0.7293476E-04
   maximum displ.:     0.1012071 α      in ANC's #2, #1, #12, ...

........................................................................
.............................. CYCLE   25 ..............................
........................................................................
   1    -84.3456850 -0.843457E+02  0.107E-02    0.15       0.0  T
   2    -84.3455598  0.125229E-03  0.344E-02    0.18       1.0  T
   3    -84.3456984 -0.138555E-03  0.332E-03    0.16       4.6  T
   4    -84.3456986 -0.247359E-06  0.235E-03    0.16       6.6  T
   5    -84.3456991 -0.468400E-06  0.433E-04    0.16      35.6  T
   6    -84.3456991 -0.131415E-07  0.127E-04    0.16     121.2  T
   7    -84.3456991  0.585359E-09  0.111E-04    0.16     138.7  T
     SCC iter.                  ...        0 min,  0.035 sec
     gradient                   ...        0 min,  0.053 sec
 * total energy  :   -83.6114688 Eh     change       -0.5873149E-04 Eh
   gradient norm :     0.0042251 Eh/α   predicted    -0.3789544E-04 ( -35.48%)
   displ. norm   :     0.2883694 α      lambda       -0.9403002E-04
   maximum displ.:     0.1487021 α      in ANC's #2, #1, #12, ...

........................................................................
.............................. CYCLE   26 ..............................
........................................................................
   1    -84.3448834 -0.843449E+02  0.144E-02    0.15       0.0  T
   2    -84.3446652  0.218266E-03  0.455E-02    0.19       1.0  T
   3    -84.3449070 -0.241868E-03  0.520E-03    0.16       3.0  T
   4    -84.3449093 -0.226357E-05  0.166E-03    0.16       9.3  T
   5    -84.3449092  0.109938E-06  0.136E-03    0.16      11.4  T
   6    -84.3449094 -0.231069E-06  0.271E-04    0.16      57.0  T
   7    -84.3449094 -0.549819E-08  0.132E-04    0.16     117.3  T
   8    -84.3449094 -0.183915E-08  0.295E-05    0.16     523.8  T
     SCC iter.                  ...        0 min,  0.040 sec
     gradient                   ...        0 min,  0.054 sec
 * total energy  :   -83.6115355 Eh     change       -0.6666948E-04 Eh
   gradient norm :     0.0045382 Eh/α   predicted    -0.5092627E-04 ( -23.61%)
   displ. norm   :     0.1776430 α      lambda       -0.6387827E-04
   maximum displ.:     0.0963039 α      in ANC's #2, #1, #12, ...

........................................................................
.............................. CYCLE   27 ..............................
........................................................................
   1    -84.3452257 -0.843452E+02  0.566E-03    0.16       0.0  T
   2    -84.3452061  0.196377E-04  0.135E-02    0.17       1.1  T
   3    -84.3452270 -0.209421E-04  0.366E-03    0.16       4.2  T
   4    -84.3452284 -0.137810E-05  0.684E-04    0.16      22.6  T
   5    -84.3452284  0.651070E-09  0.450E-04    0.16      34.3  T
   6    -84.3452284 -0.351687E-08  0.162E-04    0.16      95.2  T
   7    -84.3452284 -0.257238E-08  0.286E-05    0.16     539.3  T
     SCC iter.                  ...        0 min,  0.038 sec
     gradient                   ...        0 min,  0.049 sec
 * total energy  :   -83.6115843 Eh     change       -0.4883400E-04 Eh
   gradient norm :     0.0037415 Eh/α   predicted    -0.3295873E-04 ( -32.51%)
   displ. norm   :     0.1618607 α      lambda       -0.8490814E-04
   maximum displ.:     0.0908432 α      in ANC's #2, #1, #25, ...

........................................................................
.............................. CYCLE   28 ..............................
........................................................................
   1    -84.3467906 -0.843468E+02  0.979E-03    0.16       0.0  T
   2    -84.3466753  0.115266E-03  0.324E-02    0.15       1.0  T
   3    -84.3467987 -0.123392E-03  0.359E-03    0.16       4.3  T
   4    -84.3467992 -0.485916E-06  0.298E-03    0.16       5.2  T
   5    -84.3467997 -0.492153E-06  0.167E-03    0.16       9.3  T
   6    -84.3467999 -0.189569E-06  0.539E-04    0.16      28.7  T
   7    -84.3467999 -0.288354E-07  0.988E-05    0.16     156.1  T
   8    -84.3467999 -0.103572E-08  0.120E-05    0.16    1282.4  T
     SCC iter.                  ...        0 min,  0.040 sec
     gradient                   ...        0 min,  0.056 sec
 * total energy  :   -83.6116418 Eh     change       -0.5751466E-04 Eh
   gradient norm :     0.0029644 Eh/α   predicted    -0.4356650E-04 ( -24.25%)
   displ. norm   :     0.1968104 α      lambda       -0.5018072E-04
   maximum displ.:     0.1099504 α      in ANC's #2, #1, #12, ...

........................................................................
.............................. CYCLE   29 ..............................
........................................................................
   1    -84.3464205 -0.843464E+02  0.482E-03    0.16       0.0  T
   2    -84.3464021  0.183989E-04  0.134E-02    0.15       1.2  T
   3    -84.3464220 -0.198871E-04  0.248E-03    0.16       6.2  T
   4    -84.3464223 -0.355469E-06  0.179E-03    0.16       8.6  T
   5    -84.3464226 -0.248192E-06  0.624E-04    0.16      24.7  T
   6    -84.3464226 -0.249108E-07  0.150E-04    0.16     103.1  T
   7    -84.3464226 -0.185811E-08  0.195E-05    0.16     793.1  T
     SCC iter.                  ...        0 min,  0.035 sec
     gradient                   ...        0 min,  0.056 sec
 * total energy  :   -83.6116797 Eh     change       -0.3786772E-04 Eh
   gradient norm :     0.0035288 Eh/α   predicted    -0.2607338E-04 ( -31.15%)
   displ. norm   :     0.1858920 α      lambda       -0.5357900E-04
   maximum displ.:     0.1101497 α      in ANC's #1, #2, #25, ...

........................................................................
.............................. CYCLE   30 ..............................
........................................................................
   1    -84.3465590 -0.843466E+02  0.745E-03    0.16       0.0  T
   2    -84.3464477  0.111278E-03  0.311E-02    0.15       1.0  T
   3    -84.3465657 -0.118000E-03  0.126E-03    0.16      12.3  T
   4    -84.3465656  0.129358E-06  0.148E-03    0.16      10.4  T
   5    -84.3465657 -0.127719E-06  0.733E-04    0.16      21.1  T
   6    -84.3465658 -0.392892E-07  0.162E-04    0.16      95.0  T
   7    -84.3465658 -0.273305E-08  0.232E-05    0.16     666.4  T
     SCC iter.                  ...        0 min,  0.034 sec
     gradient                   ...        0 min,  0.054 sec
 * total energy  :   -83.6117204 Eh     change       -0.4068154E-04 Eh
   gradient norm :     0.0034351 Eh/α   predicted    -0.2772419E-04 ( -31.85%)
   displ. norm   :     0.2298305 α      lambda       -0.5563935E-04
   maximum displ.:     0.1394951 α      in ANC's #1, #2, #25, ...

........................................................................
.............................. CYCLE   31 ..............................
........................................................................
   1    -84.3460344 -0.843460E+02  0.597E-03    0.16       0.0  T
   2    -84.3459966  0.377601E-04  0.180E-02    0.15       1.0  T
   3    -84.3460364 -0.397734E-04  0.313E-03    0.16       4.9  T
   4    -84.3460373 -0.924411E-06  0.919E-04    0.16      16.8  T
   5    -84.3460374 -0.510617E-07  0.402E-04    0.16      38.4  T
   6    -84.3460374 -0.429728E-08  0.724E-05    0.16     213.1  T
   7    -84.3460374 -0.167631E-09  0.279E-05    0.16     552.1  T
     SCC iter.                  ...        0 min,  0.035 sec
     gradient                   ...        0 min,  0.054 sec
 * total energy  :   -83.6117632 Eh     change       -0.4286616E-04 Eh
   gradient norm :     0.0032910 Eh/α   predicted    -0.2928967E-04 ( -31.67%)
   displ. norm   :     0.2311879 α      lambda       -0.6065139E-04
   maximum displ.:     0.1474797 α      in ANC's #1, #2, #25, ...

........................................................................
.............................. CYCLE   32 ..............................
........................................................................
   1    -84.3464480 -0.843464E+02  0.930E-03    0.17       0.0  T
   2    -84.3463395  0.108437E-03  0.302E-02    0.15       1.0  T
   3    -84.3464527 -0.113133E-03  0.557E-03    0.16       2.8  T
   4    -84.3464553 -0.263741E-05  0.208E-03    0.16       7.4  T
   5    -84.3464557 -0.384234E-06  0.693E-04    0.16      22.3  T
   6    -84.3464557 -0.173181E-07  0.137E-04    0.16     112.9  T
   7    -84.3464557 -0.199653E-08  0.207E-05    0.16     746.4  T
     SCC iter.                  ...        0 min,  0.035 sec
     gradient                   ...        0 min,  0.056 sec
 * total energy  :   -83.6118029 Eh     change       -0.3971772E-04 Eh
   gradient norm :     0.0026196 Eh/α   predicted    -0.3194951E-04 ( -19.56%)
   displ. norm   :     0.1755038 α      lambda       -0.3128183E-04
   maximum displ.:     0.1128015 α      in ANC's #1, #2, #12, ...

........................................................................
.............................. CYCLE   33 ..............................
........................................................................
   1    -84.3459055 -0.843459E+02  0.366E-03    0.16       0.0  T
   2    -84.3459056 -0.137293E-06  0.275E-03    0.16       5.6  T
   3    -84.3459053  0.299635E-06  0.226E-03    0.16       6.8  T
   4    -84.3459051  0.195131E-06  0.289E-03    0.16       5.3  T
   5    -84.3459060 -0.846199E-06  0.330E-04    0.16      46.8  T
   6    -84.3459060 -0.350032E-08  0.599E-05    0.16     257.5  T
   7    -84.3459060  0.878089E-10  0.427E-05    0.16     361.7  T
     SCC iter.                  ...        0 min,  0.034 sec
     gradient                   ...        0 min,  0.056 sec
 * total energy  :   -83.6118241 Eh     change       -0.2118525E-04 Eh
   gradient norm :     0.0029195 Eh/α   predicted    -0.1614448E-04 ( -23.79%)
   displ. norm   :     0.1397043 α      lambda       -0.4992089E-04
   maximum displ.:     0.0916333 α      in ANC's #1, #2, #5, ...

........................................................................
.............................. CYCLE   34 ..............................
........................................................................
   1    -84.3475942 -0.843476E+02  0.777E-03    0.16       0.0  T
   2    -84.3475691  0.250907E-04  0.149E-02    0.15       1.0  T
   3    -84.3475898 -0.206807E-04  0.838E-03    0.17       1.8  T
   4    -84.3475971 -0.728926E-05  0.217E-03    0.16       7.1  T
   5    -84.3475974 -0.361128E-06  0.536E-04    0.16      28.8  T
   6    -84.3475975 -0.333490E-08  0.193E-04    0.16      80.0  T
   7    -84.3475975 -0.373042E-08  0.446E-05    0.16     345.7  T
     SCC iter.                  ...        0 min,  0.036 sec
     gradient                   ...        0 min,  0.056 sec
 * total energy  :   -83.6118501 Eh     change       -0.2600973E-04 Eh
   gradient norm :     0.0035264 Eh/α   predicted    -0.2545011E-04 (  -2.15%)
   displ. norm   :     0.1402700 α      lambda       -0.2964879E-04
   maximum displ.:     0.0943757 α      in ANC's #1, #2, #11, ...

........................................................................
.............................. CYCLE   35 ..............................
........................................................................
   1    -84.3470021 -0.843470E+02  0.425E-03    0.16       0.0  T
   2    -84.3469979  0.425829E-05  0.682E-03    0.16       2.3  T
   3    -84.3470012 -0.330936E-05  0.395E-03    0.16       3.9  T
   4    -84.3470030 -0.183644E-05  0.113E-03    0.16      13.7  T
   5    -84.3470031 -0.829798E-07  0.292E-04    0.16      52.8  T
   6    -84.3470031 -0.185068E-09  0.730E-05    0.16     211.5  T
   7    -84.3470031 -0.462592E-09  0.193E-05    0.16     797.7  T
     SCC iter.                  ...        0 min,  0.034 sec
     gradient                   ...        0 min,  0.054 sec
 * total energy  :   -83.6118740 Eh     change       -0.2387899E-04 Eh
   gradient norm :     0.0031671 Eh/α   predicted    -0.1511958E-04 ( -36.68%)
   displ. norm   :     0.1751690 α      lambda       -0.4427128E-04
   maximum displ.:     0.1202657 α      in ANC's #1, #2, #11, ...

........................................................................
.............................. CYCLE   36 ..............................
........................................................................
   1    -84.3465447 -0.843465E+02  0.674E-03    0.16       0.0  T
   2    -84.3465462 -0.156856E-05  0.329E-03    0.16       4.7  T
   3    -84.3465465 -0.278785E-06  0.188E-03    0.16       8.2  T
   4    -84.3465462  0.285636E-06  0.212E-03    0.16       7.3  T
   5    -84.3465467 -0.509180E-06  0.820E-04    0.16      18.8  T
   6    -84.3465468 -0.433436E-07  0.193E-04    0.16      80.0  T
   7    -84.3465468 -0.339378E-08  0.536E-05    0.16     287.6  T
     SCC iter.                  ...        0 min,  0.035 sec
     gradient                   ...        0 min,  0.056 sec
 * total energy  :   -83.6119075 Eh     change       -0.3347034E-04 Eh
   gradient norm :     0.0028663 Eh/α   predicted    -0.2281812E-04 ( -31.83%)
   displ. norm   :     0.2067316 α      lambda       -0.3877048E-04
   maximum displ.:     0.1465535 α      in ANC's #1, #2, #11, ...

........................................................................
.............................. CYCLE   37 ..............................
........................................................................
   1    -84.3459675 -0.843460E+02  0.738E-03    0.16       0.0  T
   2    -84.3459492  0.182789E-04  0.135E-02    0.17       1.1  T
   3    -84.3459644 -0.151631E-04  0.770E-03    0.16       2.0  T
   4    -84.3459711 -0.671241E-05  0.901E-04    0.16      17.1  T
   5    -84.3459711  0.557318E-08  0.609E-04    0.16      25.4  T
   6    -84.3459711 -0.988757E-08  0.283E-04    0.16      54.5  T
   7    -84.3459711 -0.847160E-08  0.467E-05    0.16     330.2  T
   8    -84.3459711 -0.966338E-10  0.107E-05    0.16    1446.9  T
     SCC iter.                  ...        0 min,  0.034 sec
     gradient                   ...        0 min,  0.054 sec
 * total energy  :   -83.6119358 Eh     change       -0.2835483E-04 Eh
   gradient norm :     0.0032272 Eh/α   predicted    -0.2021466E-04 ( -28.71%)
   displ. norm   :     0.1763117 α      lambda       -0.3158070E-04
   maximum displ.:     0.1295056 α      in ANC's #1, #2, #6, ...

........................................................................
.............................. CYCLE   38 ..............................
........................................................................
   1    -84.3460190 -0.843460E+02  0.456E-03    0.16       0.0  T
   2    -84.3460116  0.734627E-05  0.839E-03    0.16       1.8  T
   3    -84.3460176 -0.594933E-05  0.506E-03    0.16       3.0  T
   4    -84.3460203 -0.273065E-05  0.938E-04    0.16      16.4  T
   5    -84.3460203 -0.262599E-07  0.494E-04    0.16      31.2  T
   6    -84.3460203 -0.116139E-07  0.216E-04    0.16      71.4  T
   7    -84.3460204 -0.455258E-08  0.274E-05    0.16     564.2  T
   8    -84.3460204 -0.337366E-10  0.880E-06    0.16    1752.7  T
     SCC iter.                  ...        0 min,  0.046 sec
     gradient                   ...        0 min,  0.063 sec
 * total energy  :   -83.6119618 Eh     change       -0.2599044E-04 Eh
   gradient norm :     0.0030878 Eh/α   predicted    -0.1628297E-04 ( -37.35%)
   displ. norm   :     0.2477834 α      lambda       -0.4911975E-04
   maximum displ.:     0.1869107 α      in ANC's #1, #2, #6, ...

........................................................................
.............................. CYCLE   39 ..............................
........................................................................
   1    -84.3460853 -0.843461E+02  0.105E-02    0.15       0.0  T
   2    -84.3459623  0.122984E-03  0.333E-02    0.18       1.0  T
   3    -84.3460979 -0.135589E-03  0.209E-03    0.16       7.4  T
   4    -84.3460981 -0.172519E-06  0.880E-04    0.16      17.5  T
   5    -84.3460981 -0.891959E-08  0.534E-04    0.16      28.9  T
   6    -84.3460981 -0.179165E-07  0.109E-04    0.16     141.5  T
   7    -84.3460981 -0.298741E-09  0.475E-05    0.16     325.1  T
     SCC iter.                  ...        0 min,  0.041 sec
     gradient                   ...        0 min,  0.064 sec
 * total energy  :   -83.6119991 Eh     change       -0.3724312E-04 Eh
   gradient norm :     0.0026997 Eh/α   predicted    -0.2606919E-04 ( -30.00%)
   displ. norm   :     0.2014337 α      lambda       -0.3707992E-04
   maximum displ.:     0.1557705 α      in ANC's #1, #2, #7, ...

........................................................................
.............................. CYCLE   40 ..............................
........................................................................
   1    -84.3464765 -0.843465E+02  0.481E-03    0.16       0.0  T
   2    -84.3464604  0.160664E-04  0.119E-02    0.16       1.3  T
   3    -84.3464776 -0.171918E-04  0.245E-03    0.16       6.3  T
   4    -84.3464782 -0.569106E-06  0.791E-04    0.16      19.5  T
   5    -84.3464782 -0.119806E-07  0.340E-04    0.16      45.4  T
   6    -84.3464782 -0.305548E-09  0.116E-04    0.16     133.1  T
   7    -84.3464782 -0.128315E-08  0.205E-05    0.16     751.3  T
     SCC iter.                  ...        0 min,  0.041 sec
     gradient                   ...        0 min,  0.064 sec
 * total energy  :   -83.6120274 Eh     change       -0.2828001E-04 Eh
   gradient norm :     0.0024820 Eh/α   predicted    -0.1929272E-04 ( -31.78%)
   displ. norm   :     0.1510632 α      lambda       -0.3719602E-04
   maximum displ.:     0.1183567 α      in ANC's #1, #7, #2, ...

........................................................................
.............................. CYCLE   41 ..............................
........................................................................
   1    -84.3475863 -0.843476E+02  0.102E-02    0.15       0.0  T
   2    -84.3474424  0.143915E-03  0.362E-02    0.18       1.0  T
   3    -84.3475979 -0.155527E-03  0.446E-03    0.16       3.5  T
   4    -84.3475998 -0.185160E-05  0.948E-04    0.16      16.3  T
   5    -84.3475998 -0.304259E-08  0.283E-04    0.16      54.6  T
   6    -84.3475998 -0.527606E-09  0.216E-04    0.16      71.4  T
   7    -84.3475998 -0.401994E-08  0.620E-05    0.16     249.0  T
   8    -84.3475998 -0.309129E-09  0.256E-05    0.16     602.6  T
     SCC iter.                  ...        0 min,  0.046 sec
     gradient                   ...        0 min,  0.064 sec
 * total energy  :   -83.6120481 Eh     change       -0.2070308E-04 Eh
   gradient norm :     0.0028627 Eh/α   predicted    -0.1902523E-04 (  -8.10%)
   displ. norm   :     0.1832610 α      lambda       -0.3227507E-04
   maximum displ.:     0.1410487 α      in ANC's #1, #2, #7, ...

........................................................................
.............................. CYCLE   42 ..............................
........................................................................
   1    -84.3469849 -0.843470E+02  0.400E-03    0.15       0.0  T
   2    -84.3469743  0.105836E-04  0.993E-03    0.16       1.6  T
   3    -84.3469858 -0.114930E-04  0.156E-03    0.16       9.9  T
   4    -84.3469858 -0.321073E-07  0.101E-03    0.16      15.3  T
   5    -84.3469859 -0.481966E-07  0.204E-04    0.16      75.6  T
   6    -84.3469859 -0.205274E-08  0.574E-05    0.16     268.6  T
   7    -84.3469859  0.486438E-10  0.426E-05    0.16     362.1  T
     SCC iter.                  ...        0 min,  0.040 sec
     gradient                   ...        0 min,  0.064 sec
 * total energy  :   -83.6120692 Eh     change       -0.2117331E-04 Eh
   gradient norm :     0.0020768 Eh/α   predicted    -0.1668075E-04 ( -21.22%)
   displ. norm   :     0.0804119 α      lambda       -0.1356187E-04
   maximum displ.:     0.0641367 α      in ANC's #1, #7, #2, ...
 * RMSD in coord.:     0.5175882 α      energy gain  -0.9011731E-03 Eh

generating ANC from model Hessian ...
Using Lindh-Hessian (1995)
 Shifting diagonal of input Hessian by   9.820178126726770E-003
 Lowest  eigenvalues of input Hessian
    0.000000    0.000000    0.000000    0.000000    0.000000    0.000000
    0.010000    0.010158    0.010579    0.011112    0.011662    0.012242
    0.012597    0.013408    0.014124    0.015483    0.016368    0.016936
 Highest eigenvalues
    2.016220    2.101160    2.166530    2.208216    2.242987    2.378532
 

........................................................................
.............................. CYCLE   43 ..............................
........................................................................
   1    -84.3471094 -0.843471E+02  0.269E-03    0.16       0.0  T
   2    -84.3471037  0.576520E-05  0.709E-03    0.15       2.2  T
   3    -84.3471096 -0.596670E-05  0.180E-03    0.16       8.6  T
   4    -84.3471100 -0.368589E-06  0.312E-04    0.16      49.5  T
   5    -84.3471100 -0.255359E-08  0.143E-04    0.16     107.8  T
   6    -84.3471100 -0.114412E-09  0.411E-05    0.16     375.4  T
     SCC iter.                  ...        0 min,  0.035 sec
     gradient                   ...        0 min,  0.064 sec
 * total energy  :   -83.6120807 Eh     change       -0.1142768E-04 Eh
   gradient norm :     0.0015388 Eh/α   predicted     0.0000000E+00 (-100.00%)
   displ. norm   :     0.0250488 α      lambda       -0.5854885E-05
   maximum displ.:     0.0174836 α      in ANC's #1, #5, #10, ...

........................................................................
.............................. CYCLE   44 ..............................
........................................................................
   1    -84.3471213 -0.843471E+02  0.180E-03    0.16       0.0  T
   2    -84.3471212  0.531651E-07  0.123E-03    0.16      12.5  T
   3    -84.3471206  0.618919E-06  0.255E-03    0.16       6.1  T
   4    -84.3471214 -0.763156E-06  0.393E-04    0.16      39.3  T
   5    -84.3471214 -0.891347E-09  0.109E-04    0.16     141.2  T
   6    -84.3471214 -0.246104E-09  0.262E-05    0.16     589.2  T
     SCC iter.                  ...        0 min,  0.035 sec
     gradient                   ...        0 min,  0.063 sec
 * total energy  :   -83.6120883 Eh     change       -0.7599539E-05 Eh
   gradient norm :     0.0005845 Eh/α   predicted    -0.3243462E-05 ( -57.32%)
   displ. norm   :     0.0604637 α      lambda       -0.9267091E-05
   maximum displ.:     0.0412222 α      in ANC's #1, #14, #5, ...

........................................................................
.............................. CYCLE   45 ..............................
........................................................................
   1    -84.3470803 -0.843471E+02  0.248E-03    0.16       0.0  T
   2    -84.3470796  0.722846E-06  0.282E-03    0.15       5.5  T
   3    -84.3470790  0.606939E-06  0.360E-03    0.16       4.3  T
   4    -84.3470806 -0.157235E-05  0.422E-04    0.16      36.5  T
   5    -84.3470806 -0.182580E-08  0.157E-04    0.16      98.1  T
   6    -84.3470806 -0.380439E-09  0.472E-05    0.16     326.9  T
     SCC iter.                  ...        0 min,  0.035 sec
     gradient                   ...        0 min,  0.063 sec
 * total energy  :   -83.6120979 Eh     change       -0.9660344E-05 Eh
   gradient norm :     0.0010019 Eh/α   predicted    -0.4641217E-05 ( -51.96%)
   displ. norm   :     0.0562894 α      lambda       -0.5378920E-05
   maximum displ.:     0.0408786 α      in ANC's #1, #14, #2, ...

........................................................................
.............................. CYCLE   46 ..............................
........................................................................
   1    -84.3470475 -0.843470E+02  0.181E-03    0.16       0.0  T
   2    -84.3470422  0.523356E-05  0.671E-03    0.15       2.3  T
   3    -84.3470478 -0.559549E-05  0.342E-04    0.16      45.1  T
   4    -84.3470478 -0.198280E-08  0.234E-04    0.16      65.9  T
   5    -84.3470478 -0.156257E-08  0.118E-04    0.16     131.0  T
   6    -84.3470478 -0.872575E-09  0.260E-05    0.16     593.1  T
     SCC iter.                  ...        0 min,  0.035 sec
     gradient                   ...        0 min,  0.063 sec
 * total energy  :   -83.6121041 Eh     change       -0.6124673E-05 Eh
   gradient norm :     0.0011588 Eh/α   predicted    -0.2693453E-05 ( -56.02%)
   displ. norm   :     0.0544829 α      lambda       -0.4897699E-05
   maximum displ.:     0.0411245 α      in ANC's #1, #2, #14, ...

........................................................................
.............................. CYCLE   47 ..............................
........................................................................
   1    -84.3470259 -0.843470E+02  0.109E-03    0.16       0.0  T
   2    -84.3470257  0.240380E-06  0.161E-03    0.16       9.6  T
   3    -84.3470258 -0.580842E-07  0.143E-03    0.16      10.8  T
   4    -84.3470260 -0.245030E-06  0.203E-04    0.16      76.0  T
   5    -84.3470260 -0.421892E-09  0.706E-05    0.16     218.5  T
   6    -84.3470260 -0.111484E-09  0.165E-05    0.16     933.6  T
     SCC iter.                  ...        0 min,  0.035 sec
     gradient                   ...        0 min,  0.063 sec
 * total energy  :   -83.6121098 Eh     change       -0.5711816E-05 Eh
   gradient norm :     0.0008184 Eh/α   predicted    -0.2452484E-05 ( -57.06%)
   displ. norm   :     0.0517365 α      lambda       -0.4415531E-05
   maximum displ.:     0.0416202 α      in ANC's #1, #2, #14, ...

........................................................................
.............................. CYCLE   48 ..............................
........................................................................
   1    -84.3470320 -0.843470E+02  0.125E-03    0.16       0.0  T
   2    -84.3470320 -0.306336E-08  0.849E-04    0.16      18.2  T
   3    -84.3470318  0.205668E-06  0.149E-03    0.16      10.4  T
   4    -84.3470320 -0.266026E-06  0.283E-04    0.16      54.5  T
   5    -84.3470320 -0.347455E-08  0.963E-05    0.16     160.3  T
   6    -84.3470320 -0.715517E-10  0.155E-05    0.16     992.9  T
     SCC iter.                  ...        0 min,  0.034 sec
     gradient                   ...        0 min,  0.063 sec
 * total energy  :   -83.6121149 Eh     change       -0.5181020E-05 Eh
   gradient norm :     0.0003813 Eh/α   predicted    -0.2210989E-05 ( -57.33%)
   displ. norm   :     0.0427330 α      lambda       -0.3129579E-05
   maximum displ.:     0.0352262 α      in ANC's #1, #2, #4, ...

........................................................................
.............................. CYCLE   49 ..............................
........................................................................
   1    -84.3470269 -0.843470E+02  0.102E-03    0.16       0.0  T
   2    -84.3470267  0.211841E-06  0.146E-03    0.16      10.5  T
   3    -84.3470267 -0.447863E-07  0.135E-03    0.16      11.5  T
   4    -84.3470269 -0.217056E-06  0.155E-04    0.16      99.8  T
   5    -84.3470269 -0.231921E-09  0.665E-05    0.16     232.1  T
     SCC iter.                  ...        0 min,  0.029 sec
     gradient                   ...        0 min,  0.063 sec
 * total energy  :   -83.6121190 Eh     change       -0.4076815E-05 Eh
   gradient norm :     0.0004950 Eh/α   predicted    -0.1568042E-05 ( -61.54%)
   displ. norm   :     0.0426351 α      lambda       -0.3162736E-05
   maximum displ.:     0.0344193 α      in ANC's #1, #2, #5, ...

   *** GEOMETRY OPTIMIZATION CONVERGED AFTER 49 ITERATIONS ***

------------------------------------------------------------------------
 total energy gain   :        -0.0253088 Eh      -15.8815 kcal/mol
 total RMSD          :         1.1169557 a0        0.5911 Å
 total power (kW/mol):        -1.3560866 (step)  -10.2770 (real)
------------------------------------------------------------------------

 ANCopt (total)                0 d,  0 h,  0 min,  6.466 sec
 optimizer setup                ...        0 min,  0.001 sec (  0.012%)
 model hessian                  ...        0 min,  0.060 sec (  0.933%)
 ANC generation                 ...        0 min,  0.008 sec (  0.128%)
 coordinate transformation      ...        0 min,  0.001 sec (  0.018%)
 single point calculation       ...        0 min,  6.376 sec ( 98.617%)
 optimization log               ...        0 min,  0.010 sec (  0.150%)
 hessian update                 ...        0 min,  0.001 sec (  0.017%)
 rational function              ...        0 min,  0.005 sec (  0.080%)

================
 final structure:
================
42
 xtb: 6.5.1 (579679a)
C           -5.20180950601616        1.27728580804487        1.98792556104755
O           -3.94993930113994        0.84039912873168        1.51085854646395
C           -3.90788872483395        0.56699050336169        0.11703097188268
O           -4.96677334729832        0.72100790362143       -0.52620065707905
C           -2.65820003216664        0.12310848177139       -0.32473338358183
N           -1.65404067399868        0.05925280303240        0.61538049027614
C           -0.52172849463319       -0.48306999792119        0.35523171154531
C            0.58256790694489       -0.52233277734801        1.39150131038347
C            0.73817561492709       -1.94327292299873        1.96147346415878
C            0.25810499524165        0.47188747244743        2.51221646261544
N            1.83872165824312       -0.13585479223875        0.72078117891916
C            3.01621770237664       -0.00258214088596        1.35389542140216
O            3.20126104702105       -0.15400860808964        2.56021650261126
C            4.12854333223754        0.37935475092555        0.45353031270915
N            5.36790328575299        0.61228921695561        0.78744228795593
N            6.03014234622751        0.93811515481979       -0.36127671768731
C            5.16216689181374        0.88540995083935       -1.32212088577378
C            5.39377449661876        1.15141894890282       -2.75980835562889
O            3.93973773897722        0.54029689290890       -0.87991349644183
N           -0.26818767820317       -1.15777588203307       -0.85969938870510
C           -1.25589984114077       -1.27363953344995       -1.80533999568372
O           -1.19668858954800       -2.19292949846270       -2.62929846254255
C           -2.28207718173975       -0.09178810770552       -1.82449230368268
C           -3.51851459168519       -0.59880921429593       -2.63628629932389
O           -1.67093742645632        0.95871301952625       -2.39679989503215
H           -5.52087704190419        2.20794150367557        1.49888608010137
H           -5.98212772951162        0.52126512970302        1.82660866742209
H           -5.10019424413129        1.45746705927220        3.06019714444927
H            1.01231954821567       -2.63861347411944        1.16975625265219
H            1.50946129146241       -1.96710898229306        2.72962383617062
H           -0.20668826289631       -2.26219780211149        2.39965683826323
H            0.27150251748924        1.49049559845364        2.12437971219339
H            0.97277319380492        0.39078296689166        3.32841338996096
H           -0.74102923422724        0.25817726375218        2.89224452614461
H            1.82571833249092       -0.05142782579411       -0.28615801082718
H            4.73843812794897        1.95065675022393       -3.10622496159082
H            5.17797027378093        0.25781152249648       -3.34546451185587
H            6.43046126208631        1.44053652487625       -2.91167908655624
H            0.42859052217091       -1.88318904475905       -0.85431410414400
H           -4.20917601725279        0.22615825152943       -2.80335800088298
H           -4.03636570700180       -1.40642796641623       -2.11740709525587
H           -3.17541246002110       -0.96179403583990       -3.60667505703057
 
 Bond Distances (Angstroems)
 ---------------------------
C1-O2=1.4091         C1-H26=1.0987        C1-H27=1.0984        C1-H28=1.0920        O2-C1=1.4091         O2-C3=1.4210         
C3-O2=1.4210         C3-O4=1.2485         C3-C5=1.3978         O4-C3=1.2485         C5-C3=1.3978         C5-N6=1.3770         
C5-C23=1.5611        N6-C5=1.3770         N6-C7=1.2822         C7-N6=1.2822         C7-C8=1.5149         C7-N20=1.4126        
C8-C7=1.5149         C8-C9=1.5389         C8-C10=1.5329        C8-N11=1.4755        C9-C8=1.5389         C9-H29=1.0888        
C9-H30=1.0888        C9-H31=1.0893        C10-C8=1.5329        C10-H32=1.0900       C10-H33=1.0879       C10-H34=1.0901       
N11-C8=1.4755        N11-C12=1.3435       N11-H35=1.0106       C12-N11=1.3435       C12-O13=1.2298       C12-C14=1.4811       
O13-C12=1.2298       C14-C12=1.4811       C14-N15=1.3045       C14-O19=1.3563       N15-C14=1.3045       N15-N16=1.3654       
N16-N15=1.3654       N16-C17=1.2959       C17-N16=1.2959       C17-C18=1.4803       C17-O19=1.3450       C18-C17=1.4803       
C18-H36=1.0901       C18-H37=1.0900       C18-H38=1.0869       O19-C14=1.3563       O19-C17=1.3450       N20-C7=1.4126        
N20-C21=1.3723       N20-H39=1.0059       C21-N20=1.3723       C21-O22=1.2359       C21-C23=1.5653       O22-C21=1.2359       
C23-C5=1.5611        C23-C21=1.5653       C23-C24=1.5636       C23-O25=1.3433       C24-C23=1.5636       C24-H40=1.0888       
C24-H41=1.0907       C24-H42=1.0914       O25-C23=1.3433       H26-C1=1.0987        H27-C1=1.0984        H28-C1=1.0920        
H29-C9=1.0888        H30-C9=1.0888        H31-C9=1.0893        H32-C10=1.0900       H33-C10=1.0879       H34-C10=1.0901       
H35-N11=1.0106       H36-C18=1.0901       H37-C18=1.0900       H38-C18=1.0869       H39-N20=1.0059       H40-C24=1.0888       
H41-C24=1.0907       H42-C24=1.0914       
 C  H  Rav=1.0908 sigma=0.0033  Rmin=1.0869  Rmax=1.0987    15
 C  C  Rav=1.5151 sigma=0.0516  Rmin=1.3978  Rmax=1.5653     9
 N  H  Rav=1.0082 sigma=0.0023  Rmin=1.0059  Rmax=1.0106     2
 N  C  Rav=1.3580 sigma=0.0613  Rmin=1.2822  Rmax=1.4755     8
 N  N  Rav=1.3654 sigma=0.0000  Rmin=1.3654  Rmax=1.3654     1
 O  C  Rav=1.3236 sigma=0.0715  Rmin=1.2298  Rmax=1.4210     8
 
 selected bond angles (degree)
 --------------------
H26-C1-O2=111.71               H27-C1-O2=111.59               H27-C1-H26=108.14              H28-C1-O2=107.51               
H28-C1-H26=108.92              H28-C1-H27=108.90              C3-O2-C1=114.71                O4-C3-O2=117.16                
C5-C3-O2=113.42                C5-C3-O4=129.39                N6-C5-C3=116.80                C23-C5-C3=124.25               
C23-C5-N6=118.28               C7-N6-C5=121.67                C8-C7-N6=121.06                N20-C7-N6=122.35               
N20-C7-C8=116.43               C9-C8-C7=110.55                C10-C8-C7=109.21               C10-C8-C9=110.46               
N11-C8-C7=107.63               N11-C8-C9=108.91               N11-C8-C10=110.04              H29-C9-C8=110.23               
H30-C9-C8=110.68               H30-C9-H29=108.70              H31-C9-C8=109.37               H31-C9-H29=108.90              
H31-C9-H30=108.92              H32-C10-C8=110.08              H33-C10-C8=111.17              H33-C10-H32=109.18             
H34-C10-C8=108.77              H34-C10-H32=108.57             H34-C10-H33=109.02             
 
 selected dihedral angles (degree)
 ---------------------------------
C3-O2-C1-H26=299.82           C3-O2-C1-H27= 61.02           C3-O2-C1-H28=180.37           O4-C3-O2-C1=359.07            
C5-C3-O2-C1=180.60            N6-C5-C3-O2=357.79            N6-C5-C3-O4=179.55            C23-C5-C3-O2=187.36           
C23-C5-C3-O4=  9.12           C7-N6-C5-C3=171.47            C7-N6-C5-C23=342.49           C8-C7-N6-C5=178.83            
N20-C7-N6-C5=354.01           C9-C8-C7-N6=106.19            C9-C8-C7-N20=290.73           C10-C8-C7-N6=344.46           
C10-C8-C7-N20=169.01          N11-C8-C7-N6=225.03           N11-C8-C7-N20= 49.57          H29-C9-C8-C7= 61.54           
H29-C9-C8-C10=182.53          H29-C9-C8-N11=303.48          H30-C9-C8-C7=181.83           H30-C9-C8-C10=302.82          
H30-C9-C8-N11= 63.78          H31-C9-C8-C7=301.84           H31-C9-C8-C10= 62.82          H31-C9-C8-N11=183.78          
H32-C10-C8-C7=294.77          H32-C10-C8-C9=172.99          H32-C10-C8-N11= 52.71         H33-C10-C8-C7=173.66          
H33-C10-C8-C9= 51.88          H33-C10-C8-N11=291.60         H34-C10-C8-C7= 53.61          H34-C10-C8-C9=291.83          
H34-C10-C8-N11=171.55         
           -------------------------------------------------
          |                Final Singlepoint                |
           -------------------------------------------------

          ...................................................
          :                      SETUP                      :
          :.................................................:
          :  # basis functions                 134          :
          :  # atomic orbitals                 134          :
          :  # shells                           84          :
          :  # electrons                       136          :
          :  # halogen bonds                     0          :
          :  max. iterations                   250          :
          :  Hamiltonian                  GFN1-xTB          :
          :  restarted?                      false          :
          :  GBSA solvation                   true          :
          :  PC potential                    false          :
          :  electronic temp.          300.0000000     K    :
          :  accuracy                    1.0000000          :
          :  -> integral cutoff          0.2500000E+02      :
          :  -> integral neglect         0.1000000E-07      :
          :  -> SCF convergence          0.1000000E-05 Eh   :
          :  -> wf. convergence          0.2000000E-04 e    :
          :  Broyden damping             0.4000000          :
          ...................................................

 iter      E             dE          RMSdq      gap      omega  full diag
   1    -84.3470269 -0.843470E+02  0.171E-05    0.16       0.0  T
   2    -84.3470269  0.806182E-10  0.273E-05    0.16     564.6  T
   3    -84.3470269 -0.526654E-10  0.186E-05    0.16     828.6  T

   *** convergence criteria satisfied after 3 iterations ***

         #    Occupation            Energy/Eh            Energy/eV
      -------------------------------------------------------------
         1        2.0000           -0.8473864             -23.0586
       ...           ...                  ...                  ...
        62        2.0000           -0.4015804             -10.9276
        63        2.0000           -0.3925725             -10.6824
        64        2.0000           -0.3823328             -10.4038
        65        2.0000           -0.3705047             -10.0819
        66        2.0000           -0.3073456              -8.3633
        67        1.9974           -0.3003664              -8.1734
        68        1.9075           -0.2969442              -8.0803 (HOMO)
        69        0.0951           -0.2912212              -7.9245 (LUMO)
        70                         -0.2427341              -6.6051
        71                         -0.2128733              -5.7926
        72                         -0.1776708              -4.8347
        73                         -0.1730137              -4.7079
       ...                                ...                  ...
       134                          0.7249913              19.7280
      -------------------------------------------------------------
                  HL-Gap            0.0057229 Eh            0.1557 eV
             Fermi-level           -0.2940687 Eh           -8.0020 eV

 SCC (total)                   0 d,  0 h,  0 min,  0.111 sec
 SCC setup                      ...        0 min,  0.002 sec (  1.535%)
 Dispersion                     ...        0 min,  0.000 sec (  0.251%)
 classical contributions        ...        0 min,  0.000 sec (  0.087%)
 integral evaluation            ...        0 min,  0.028 sec ( 24.874%)
 iterations                     ...        0 min,  0.018 sec ( 15.890%)
 molecular gradient             ...        0 min,  0.062 sec ( 56.249%)
 printout                       ...        0 min,  0.001 sec (  1.080%)

         :::::::::::::::::::::::::::::::::::::::::::::::::::::
         ::                     SUMMARY                     ::
         :::::::::::::::::::::::::::::::::::::::::::::::::::::
         :: total energy             -83.612119020779 Eh    ::
         :: total w/o Gsasa/hb       -83.592510255812 Eh    ::
         :: gradient norm              0.000495036846 Eh/a0 ::
         :: HOMO-LUMO gap              0.155728831784 eV    ::
         ::.................................................::
         :: SCC energy               -84.347026937718 Eh    ::
         :: -> electrostatic           0.749678618727 Eh    ::
         :: -> Gsolv                  -0.292297460203 Eh    ::
         ::    -> Gelec               -0.272688695236 Eh    ::
         ::    -> Gsasa               -0.024434126484 Eh    ::
         ::    -> Ghb                 -0.002798917487 Eh    ::
         ::    -> Gshift               0.007624279005 Eh    ::
         :: repulsion energy           0.760552086306 Eh    ::
         :: dispersion energy         -0.025644169366 Eh    ::
         :: halogen bond corr.         0.000000000000 Eh    ::
         :: add. restraining           0.000000000000 Eh    ::
         :: total charge              -2.000000000000 e     ::
         :::::::::::::::::::::::::::::::::::::::::::::::::::::

           -------------------------------------------------
          |                Property Printout                |
           -------------------------------------------------

    * Orbital Energies and Occupations

         #    Occupation            Energy/Eh            Energy/eV
      -------------------------------------------------------------
         1        2.0000           -0.8473864             -23.0586
       ...           ...                  ...                  ...
        56        2.0000           -0.4417600             -12.0209
        57        2.0000           -0.4407495             -11.9934
        58        2.0000           -0.4309865             -11.7277
        59        2.0000           -0.4244149             -11.5489
        60        2.0000           -0.4212385             -11.4625
        61        2.0000           -0.4144892             -11.2788
        62        2.0000           -0.4015804             -10.9276
        63        2.0000           -0.3925725             -10.6824
        64        2.0000           -0.3823328             -10.4038
        65        2.0000           -0.3705047             -10.0819
        66        2.0000           -0.3073456              -8.3633
        67        1.9974           -0.3003664              -8.1734
        68        1.9075           -0.2969442              -8.0803 (HOMO)
        69        0.0951           -0.2912212              -7.9245 (LUMO)
        70                         -0.2427341              -6.6051
        71                         -0.2128733              -5.7926
        72                         -0.1776708              -4.8347
        73                         -0.1730137              -4.7079
        74                         -0.1360953              -3.7033
        75                         -0.1124106              -3.0588
        76                         -0.1057056              -2.8764
        77                         -0.1037715              -2.8238
        78                         -0.0976229              -2.6565
        79                         -0.0800486              -2.1782
       ...                                ...                  ...
       134                          0.7249913              19.7280
      -------------------------------------------------------------
                  HL-Gap            0.0057229 Eh            0.1557 eV
             Fermi-level           -0.2940687 Eh           -8.0020 eV

  Mulliken/CM5 charges         n(s)   n(p)   n(d)
     1C     0.18606  0.06859   0.961  2.853  0.000
     2O    -0.49197 -0.56981   1.704  4.788  0.000
     3C     0.47922  0.53728   0.982  2.539  0.000
     4O    -0.69281 -0.74240   1.747  4.946  0.000
     5C    -0.06410  0.01058   1.051  3.013  0.000
     6N    -0.38846 -0.57504   1.536  3.852  0.000
     7C     0.19537  0.34054   0.992  2.813  0.000
     8C     0.15160  0.19041   1.066  2.783  0.000
     9C    -0.10198 -0.24175   1.017  3.085  0.000
    10C    -0.08522 -0.22301   1.010  3.075  0.000
    11N    -0.33571 -0.68645   1.433  3.903  0.000
    12C     0.45017  0.55889   0.973  2.577  0.000
    13O    -0.60960 -0.65362   1.732  4.878  0.000
    14C     0.32028  0.44394   1.012  2.668  0.000
    15N    -0.25005 -0.35225   1.571  3.680  0.000
    16N    -0.28272 -0.39048   1.567  3.716  0.000
    17C     0.38386  0.49255   1.003  2.613  0.000
    18C    -0.10982 -0.24720   1.010  3.099  0.000
    19O    -0.36479 -0.42082   1.698  4.666  0.000
    20N    -0.34934 -0.69184   1.438  3.911  0.000
    21C     0.42979  0.53080   1.039  2.531  0.000
    22O    -0.65054 -0.69265   1.747  4.903  0.000
    23C     0.25872  0.28582   1.027  2.714  0.000
    24C    -0.10282 -0.24261   1.013  3.089  0.000
    25O    -0.85723 -0.89373   1.777  5.080  0.000
    26H     0.01075  0.07199   0.989  0.000  0.000
    27H     0.01071  0.07203   0.989  0.000  0.000
    28H     0.00710  0.06706   0.993  0.000  0.000
    29H     0.03073  0.08863   0.969  0.000  0.000
    30H     0.04129  0.10060   0.959  0.000  0.000
    31H     0.03113  0.08575   0.969  0.000  0.000
    32H     0.02597  0.08398   0.974  0.000  0.000
    33H     0.03270  0.09254   0.967  0.000  0.000
    34H     0.02793  0.08705   0.972  0.000  0.000
    35H     0.24671  0.45543   0.753  0.000  0.000
    36H     0.07275  0.12717   0.927  0.000  0.000
    37H     0.07367  0.12807   0.926  0.000  0.000
    38H     0.06221  0.11816   0.938  0.000  0.000
    39H     0.21981  0.42406   0.780  0.000  0.000
    40H     0.00536  0.06443   0.995  0.000  0.000
    41H    -0.01371  0.04248   1.014  0.000  0.000
    42H    -0.00303  0.05484   1.003  0.000  0.000

Wiberg/Mayer (AO) data.
largest (>0.10) Wiberg bond orders for each atom

 ---------------------------------------------------------------------------
     #   Z sym  total        # sym  WBO       # sym  WBO       # sym  WBO
 ---------------------------------------------------------------------------
     1   6 C    3.925 --    28 H    0.986    27 H    0.980    26 H    0.980
                             2 O    0.958
     2   8 O    2.052 --     1 C    0.958     3 C    0.916
     3   6 C    3.849 --     4 O    1.445     5 C    1.348     2 O    0.916
     4   8 O    1.775 --     3 C    1.445     5 C    0.110
     5   6 C    3.829 --     3 C    1.348     6 N    1.185    23 C    0.914
                             4 O    0.110
     6   7 N    3.052 --     7 C    1.623     5 C    1.185
     7   6 C    3.898 --     6 N    1.623    20 N    1.004     8 C    0.978
     8   6 C    3.924 --    10 C    0.996     9 C    0.981     7 C    0.978
                            11 N    0.905
     9   6 C    3.989 --    31 H    0.986    29 H    0.984    30 H    0.983
                             8 C    0.981
    10   6 C    3.994 --     8 C    0.996    32 H    0.986    33 H    0.984
                            34 H    0.983
    11   7 N    3.346 --    12 C    1.275     8 C    0.905    35 H    0.899
                            13 O    0.175
    12   6 C    3.891 --    13 O    1.535    11 N    1.275    14 C    1.005
    13   8 O    1.842 --    12 C    1.535    11 N    0.175
    14   6 C    3.825 --    15 N    1.587    19 O    1.035    12 C    1.005
    15   7 N    2.942 --    14 C    1.587    16 N    1.191
    16   7 N    2.980 --    17 C    1.619    15 N    1.191
    17   6 C    3.860 --    16 N    1.619    19 O    1.068    18 C    1.029
    18   6 C    3.989 --    17 C    1.029    38 H    0.984    36 H    0.966
                            37 H    0.965
    19   8 O    2.291 --    17 C    1.068    14 C    1.035
    20   7 N    3.342 --    21 C    1.165     7 C    1.004    39 H    0.913
                            22 O    0.115
    21   6 C    3.807 --    22 O    1.565    20 N    1.165    23 C    0.877
    22   8 O    1.833 --    21 C    1.565    20 N    0.115
    23   6 C    3.960 --    25 O    1.122    24 C    0.951     5 C    0.914
                            21 C    0.877
    24   6 C    3.990 --    41 H    0.990    42 H    0.987    40 H    0.986
                            23 C    0.951
    25   8 O    1.399 --    23 C    1.122
    26   1 H    1.022 --     1 C    0.980
    27   1 H    1.023 --     1 C    0.980
    28   1 H    1.021 --     1 C    0.986
    29   1 H    1.006 --     9 C    0.984
    30   1 H    1.012 --     9 C    0.983
    31   1 H    1.007 --     9 C    0.986
    32   1 H    1.012 --    10 C    0.986
    33   1 H    1.016 --    10 C    0.984
    34   1 H    1.025 --    10 C    0.983
    35   1 H    0.954 --    11 N    0.899
    36   1 H    0.998 --    18 C    0.966
    37   1 H    0.998 --    18 C    0.965
    38   1 H    1.000 --    18 C    0.984
    39   1 H    0.965 --    20 N    0.913
    40   1 H    1.036 --    24 C    0.986
    41   1 H    1.016 --    24 C    0.990
    42   1 H    1.026 --    24 C    0.987
 ---------------------------------------------------------------------------

Topologies differ in total number of bonds
Writing topology from bond orders to xtbtopo.mol

 dipole moment from electron density (au)
     X       Y       Z   
   6.2435  -1.2005   2.1562  total (Debye):   17.064

           -------------------------------------------------
          |                Geometry Summary                 |
           -------------------------------------------------

      molecular mass/u    :      351.3152409
   center of mass at/Å    :        0.2184139       0.0402586      -0.0842694
  moments of inertia/u·Å² :        0.1311793E+04   0.4481882E+04   0.5170801E+04
rotational constants/cm⁻¹ :        0.1285083E-01   0.3761284E-02   0.3260159E-02

 * 33 selected distances

     #   Z          #   Z                                           value/Å
     1   6 C        2   8 O                                       1.4091282
     3   6 C        5   6 C                                       1.3978230
     6   7 N        7   6 C                                       1.2821554
     8   6 C        9   6 C                                       1.5388806 (max)
     8   6 C       10   6 C                                       1.5328904
     8   6 C       11   7 N                                       1.4755180
    11   7 N       12   6 C                                       1.3435373
    12   6 C       13   8 O                                       1.2297894
    14   6 C       15   7 N                                       1.3045187
    16   7 N       17   6 C                                       1.2959094
    17   6 C       18   6 C                                       1.4803204
    14   6 C       19   8 O                                       1.3563269
    17   6 C       19   8 O                                       1.3449847
     7   6 C       20   7 N                                       1.4126461
    20   7 N       21   6 C                                       1.3723105
    21   6 C       22   8 O                                       1.2359239
     1   6 C       26   1 H                                       1.0986737
     1   6 C       27   1 H                                       1.0984021
     1   6 C       28   1 H                                       1.0920428
     9   6 C       29   1 H                                       1.0887928
     9   6 C       30   1 H                                       1.0888090
     9   6 C       31   1 H                                       1.0892593
    10   6 C       32   1 H                                       1.0900273
    10   6 C       33   1 H                                       1.0878907
    10   6 C       34   1 H                                       1.0901205
    11   7 N       35   1 H                                       1.0105561
    18   6 C       36   1 H                                       1.0900695
    18   6 C       37   1 H                                       1.0899996
    18   6 C       38   1 H                                       1.0869100
    20   7 N       39   1 H                                       1.0058595 (min)
    24   6 C       40   1 H                                       1.0888056
    24   6 C       41   1 H                                       1.0907125
    24   6 C       42   1 H                                       1.0913898

 * 5 distinct bonds (by element types)

   Z      Z             #   av. dist./Å        max./Å        min./Å
   1 H    6 C          15     1.0907937     1.0986737     1.0869100
   6 C    6 C           4     1.4874786     1.5388806     1.3978230
   1 H    7 N           2     1.0082078     1.0105561     1.0058595
   6 C    7 N           7     1.3552279     1.4755180     1.2821554
   6 C    8 O           5     1.3152306     1.4091282     1.2297894


optimized geometry written to: xtbopt.xyz


           -------------------------------------------------
          | TOTAL ENERGY              -83.612119020779 Eh   |
          | GRADIENT NORM               0.000495036846 Eh/α |
          | HOMO-LUMO GAP               0.155728831784 eV   |
           -------------------------------------------------

------------------------------------------------------------------------
 * finished run on 2023/06/21 at 17:16:19.371     
------------------------------------------------------------------------
 total:
 * wall-time:     0 d,  0 h,  0 min,  6.916 sec
 *  cpu-time:     0 d,  0 h,  0 min,  6.839 sec
 * ratio c/w:     0.989 speedup
 SCF:
 * wall-time:     0 d,  0 h,  0 min,  0.223 sec
 *  cpu-time:     0 d,  0 h,  0 min,  0.222 sec
 * ratio c/w:     0.998 speedup
 ANC optimizer:
 * wall-time:     0 d,  0 h,  0 min,  6.582 sec
 *  cpu-time:     0 d,  0 h,  0 min,  6.575 sec
 * ratio c/w:     0.999 speedup

