42
 energy: -83.612119020779 gnorm: 0.000495036846 xtb: 6.5.1 (579679a)
C           -5.20180950601616        1.27728580804487        1.98792556104755
O           -3.94993930113994        0.84039912873168        1.51085854646395
C           -3.90788872483395        0.56699050336169        0.11703097188268
O           -4.96677334729832        0.72100790362143       -0.52620065707905
C           -2.65820003216664        0.12310848177139       -0.32473338358183
N           -1.65404067399868        0.05925280303240        0.61538049027614
C           -0.52172849463319       -0.48306999792119        0.35523171154531
C            0.58256790694489       -0.52233277734801        1.39150131038347
C            0.73817561492709       -1.94327292299873        1.96147346415878
C            0.25810499524165        0.47188747244743        2.51221646261544
N            1.83872165824312       -0.13585479223875        0.72078117891916
C            3.01621770237664       -0.00258214088596        1.35389542140216
O            3.20126104702105       -0.15400860808964        2.56021650261126
C            4.12854333223754        0.37935475092555        0.45353031270915
N            5.36790328575299        0.61228921695561        0.78744228795593
N            6.03014234622751        0.93811515481979       -0.36127671768731
C            5.16216689181374        0.88540995083935       -1.32212088577378
C            5.39377449661876        1.15141894890282       -2.75980835562889
O            3.93973773897722        0.54029689290890       -0.87991349644183
N           -0.26818767820317       -1.15777588203307       -0.85969938870510
C           -1.25589984114077       -1.27363953344995       -1.80533999568372
O           -1.19668858954800       -2.19292949846270       -2.62929846254255
C           -2.28207718173975       -0.09178810770552       -1.82449230368268
C           -3.51851459168519       -0.59880921429593       -2.63628629932389
O           -1.67093742645632        0.95871301952625       -2.39679989503215
H           -5.52087704190419        2.20794150367557        1.49888608010137
H           -5.98212772951162        0.52126512970302        1.82660866742209
H           -5.10019424413129        1.45746705927220        3.06019714444927
H            1.01231954821567       -2.63861347411944        1.16975625265219
H            1.50946129146241       -1.96710898229306        2.72962383617062
H           -0.20668826289631       -2.26219780211149        2.39965683826323
H            0.27150251748924        1.49049559845364        2.12437971219339
H            0.97277319380492        0.39078296689166        3.32841338996096
H           -0.74102923422724        0.25817726375218        2.89224452614461
H            1.82571833249092       -0.05142782579411       -0.28615801082718
H            4.73843812794897        1.95065675022393       -3.10622496159082
H            5.17797027378093        0.25781152249648       -3.34546451185587
H            6.43046126208631        1.44053652487625       -2.91167908655624
H            0.42859052217091       -1.88318904475905       -0.85431410414400
H           -4.20917601725279        0.22615825152943       -2.80335800088298
H           -4.03636570700180       -1.40642796641623       -2.11740709525587
H           -3.17541246002110       -0.96179403583990       -3.60667505703057
