      -----------------------------------------------------------      
     |                   =====================                   |     
     |                           x T B                           |     
     |                   =====================                   |     
     |                         S. Grimme                         |     
     |          Mulliken Center for Theoretical Chemistry        |     
     |                    University of Bonn                     |     
      -----------------------------------------------------------      

   * xtb version 6.5.1 (579679a) compiled by 'ehlert@majestix' on 2022-07-11

   xtb is free software: you can redistribute it and/or modify it under
   the terms of the GNU Lesser General Public License as published by
   the Free Software Foundation, either version 3 of the License, or
   (at your option) any later version.
   
   xtb is distributed in the hope that it will be useful,
   but WITHOUT ANY WARRANTY; without even the implied warranty of
   MERCHANTABILITY or FITNESS FOR A PARTICULAR PURPOSE.  See the
   GNU Lesser General Public License for more details.
   
   Cite this work as:
   * C. Bannwarth, E. Caldeweyher, S. Ehlert, A. Hansen, P. Pracht,
     J. Seibert, S. Spicher, S. Grimme, WIREs Comput. Mol. Sci., 2020, 11,
     e01493. DOI: 10.1002/wcms.1493
   
   for GFN2-xTB:
   * C. Bannwarth, S. Ehlert and S. Grimme., J. Chem. Theory Comput., 2019,
     15, 1652-1671. DOI: 10.1021/acs.jctc.8b01176
   for GFN1-xTB:
   * S. Grimme, C. Bannwarth, P. Shushkov, J. Chem. Theory Comput., 2017,
     13, 1989-2009. DOI: 10.1021/acs.jctc.7b00118
   for GFN0-xTB:
   * P. Pracht, E. Caldeweyher, S. Ehlert, S. Grimme, ChemRxiv, 2019, preprint.
     DOI: 10.26434/chemrxiv.8326202.v1
   for GFN-FF:
   * S. Spicher and S. Grimme, Angew. Chem. Int. Ed., 2020, 59, 15665-15673.
     DOI: 10.1002/anie.202004239
   
   for ALPB and GBSA implicit solvation:
   * S. Ehlert, M. Stahn, S. Spicher, S. Grimme, J. Chem. Theory Comput.,
     2021, 17, 4250-4261. DOI: 10.1021/acs.jctc.1c00471
   
   for DFT-D4:
   * E. Caldeweyher, C. Bannwarth and S. Grimme, J. Chem. Phys., 2017,
     147, 034112. DOI: 10.1063/1.4993215
   * E. Caldeweyher, S. Ehlert, A. Hansen, H. Neugebauer, S. Spicher,
     C. Bannwarth and S. Grimme, J. Chem. Phys., 2019, 150, 154122.
     DOI: 10.1063/1.5090222
   * E. Caldeweyher, J.-M. Mewes, S. Ehlert and S. Grimme, Phys. Chem. Chem. Phys.
     2020, 22, 8499-8512. DOI: 10.1039/D0CP00502A
   
   for sTDA-xTB:
   * S. Grimme and C. Bannwarth, J. Chem. Phys., 2016, 145, 054103.
     DOI: 10.1063/1.4959605
   
   in the mass-spec context:
   * V. Asgeirsson, C. Bauer and S. Grimme, Chem. Sci., 2017, 8, 4879.
     DOI: 10.1039/c7sc00601b
   * J. Koopman and S. Grimme, ACS Omega 2019, 4, 12, 15120-15133.
     DOI: 10.1021/acsomega.9b02011
   
   for metadynamics refer to:
   * S. Grimme, J. Chem. Theory Comput., 2019, 155, 2847-2862
     DOI: 10.1021/acs.jctc.9b00143
   
   for SPH calculations refer to:
   * S. Spicher and S. Grimme, J. Chem. Theory Comput., 2021, 17, 1701-1714
     DOI: 10.1021/acs.jctc.0c01306
   
   with help from (in alphabetical order)
   P. Atkinson, C. Bannwarth, F. Bohle, G. Brandenburg, E. Caldeweyher
   M. Checinski, S. Dohm, S. Ehlert, S. Ehrlich, I. Gerasimov, C. Hölzer
   A. Katbashev, J. Koopman, C. Lavigne, S. Lehtola, F. März, M. Müller,
   F. Musil, H. Neugebauer, J. Pisarek, C. Plett, P. Pracht, F. Pultar,
   J. Seibert, P. Shushkov, S. Spicher, M. Stahn, M. Steiner, T. Strunk,
   J. Stückrath, T. Rose, and J. Unsleber
   
 * started run on 2023/06/21 at 17:12:04.832     

           -------------------------------------------------
          |                Calculation Setup                |
           -------------------------------------------------

          program call               : /lustre/hpc/kemi/ree/PhD/git/ReactivityQM/dep/xtb-6.5.1/bin/xtb --gfn 1 /lustre/hpc/kemi/ree/PhD/git/ReactivityQM/calculations/R02methylcation/reac01prodE05/conf19/R02methylcation_reac01prodE05_conf19_gfn1.xyz --opt --vfukui --chrg -2 --uhf 0 --alpb DMSO
          hostname                   : node317
          coordinate file            : /lustre/hpc/kemi/ree/PhD/git/ReactivityQM/calculations/R02methylcation/reac01prodE05/conf19/R02methylcation_reac01prodE05_conf19_gfn1.xyz
          omp threads                :                     1

   ID    Z sym.   atoms
    1    6 C      1, 3, 5, 6, 8, 11-14, 16, 18, 21, 22, 25
    2    8 O      2, 4, 7, 9, 17, 23
    3    7 N      10, 15, 19, 20, 24
    4    1 H      26-42

           -------------------------------------------------
          |                 G F N 1 - x T B                 |
           -------------------------------------------------

        Reference                      10.1021/acs.jctc.7b00118
      * Hamiltonian:
        H0-scaling (s, p, d)           1.850000    2.250000    2.000000
        zeta-weighting                 0.000000
      * Dispersion:
        s8                             2.400000
        a1                             0.630000
        a2                             5.000000
        s9                             0.000000
      * Repulsion:
        kExp                           1.500000
        rExp                           1.000000
      * Coulomb:
        alpha                          2.000000
        third order                    atomic
        anisotropic                    false
      * Halogen bond correction:
        rad-scale                      1.300000
        damping                        0.440000

      * Solvation model:               ALPB
        Solvent                        DMSO
        Parameter file                 internal GFN1-xTB/ALPB
        Dielectric constant                4.6680E+01
        Reference state                gsolv [1 M gas/solution]
        Free energy shift                  7.6243E-03 Eh       4.7843E+00 kcal/mol
        Temperature                        2.9815E+02 K
        Density                            1.1000E+00 kg/L
        Solvent mass                       7.8130E+01 g/mol
        Interaction kernel             P16
        Born radius scaling (c1)           1.7672E+00
        Born radii integrator          GBOBC
        Born offset                        0.0000E+00 a0       0.0000E+00 AA
        H-bond correction              true
        Ion screening                  false
        Surface tension                    1.0000E-05 Eh       1.5569E+01 dyn/cm
        Grid points                               230 per atom

          ...................................................
          :                      SETUP                      :
          :.................................................:
          :  # basis functions                 134          :
          :  # atomic orbitals                 134          :
          :  # shells                           84          :
          :  # electrons                       136          :
          :  # halogen bonds                     0          :
          :  max. iterations                   250          :
          :  Hamiltonian                  GFN1-xTB          :
          :  restarted?                      false          :
          :  GBSA solvation                   true          :
          :  PC potential                    false          :
          :  electronic temp.          300.0000000     K    :
          :  accuracy                    1.0000000          :
          :  -> integral cutoff          0.2500000E+02      :
          :  -> integral neglect         0.1000000E-07      :
          :  -> SCF convergence          0.1000000E-05 Eh   :
          :  -> wf. convergence          0.2000000E-04 e    :
          :  Broyden damping             0.4000000          :
          ...................................................

 iter      E             dE          RMSdq      gap      omega  full diag
   1    -83.8375534 -0.838376E+02  0.879E+00    0.60       0.0  T
   2    -84.0161477 -0.178594E+00  0.545E+00    0.67       1.0  T
   3    -83.9106821  0.105466E+00  0.302E+00    0.98       1.0  T
   4    -84.1497447 -0.239063E+00  0.131E+00    0.63       1.0  T
   5    -84.1353697  0.143750E-01  0.114E+00    0.27       1.0  T
   6    -84.0994383  0.359314E-01  0.115E+00    0.56       1.0  T
   7    -84.2050897 -0.105651E+00  0.780E-01    0.48       1.0  T
   8    -84.2705869 -0.654972E-01  0.194E-01    0.05       1.0  T
   9    -84.2148920  0.556949E-01  0.626E-01    0.07       1.0  T
  10    -84.2162029 -0.131095E-02  0.650E-01    0.26       1.0  T
  11    -84.2456457 -0.294427E-01  0.447E-01    0.11       1.0  T
  12    -84.2717859 -0.261403E-01  0.105E-01    0.04       1.0  T
  13    -84.2731920 -0.140605E-02  0.372E-02    0.05       1.0  T
  14    -84.2714354  0.175657E-02  0.116E-01    0.04       1.0  T
  15    -84.2732629 -0.182751E-02  0.301E-02    0.05       1.0  T
  16    -84.2733757 -0.112806E-03  0.105E-02    0.04       1.5  T
  17    -84.2733881 -0.123427E-04  0.492E-03    0.04       3.1  T
  18    -84.2733910 -0.295012E-05  0.195E-03    0.04       7.9  T
  19    -84.2733916 -0.543945E-06  0.192E-04    0.04      80.3  T
  20    -84.2733916 -0.493023E-08  0.118E-05    0.04    1310.5  T

   *** convergence criteria satisfied after 20 iterations ***

         #    Occupation            Energy/Eh            Energy/eV
      -------------------------------------------------------------
         1        2.0000           -0.7942449             -21.6125
       ...           ...                  ...                  ...
        62        2.0000           -0.3977288             -10.8228
        63        2.0000           -0.3952289             -10.7547
        64        2.0000           -0.3848084             -10.4712
        65        2.0000           -0.3818722             -10.3913
        66        2.0000           -0.3510021              -9.5513
        67        2.0000           -0.3339946              -9.0885
        68        1.4044           -0.2545360              -6.9263 (HOMO)
        69        0.5956           -0.2529063              -6.8819 (LUMO)
        70                         -0.2344764              -6.3804
        71                         -0.2042035              -5.5567
        72                         -0.1614687              -4.3938
        73                         -0.1370128              -3.7283
       ...                                ...                  ...
       134                          0.7594834              20.6666
      -------------------------------------------------------------
                  HL-Gap            0.0016297 Eh            0.0443 eV
             Fermi-level           -0.2537211 Eh           -6.9041 eV

 SCC (total)                   0 d,  0 h,  0 min,  0.214 sec
 SCC setup                      ...        0 min,  0.002 sec (  0.916%)
 Dispersion                     ...        0 min,  0.000 sec (  0.151%)
 classical contributions        ...        0 min,  0.000 sec (  0.053%)
 integral evaluation            ...        0 min,  0.021 sec (  9.869%)
 iterations                     ...        0 min,  0.107 sec ( 49.897%)
 molecular gradient             ...        0 min,  0.083 sec ( 38.614%)
 printout                       ...        0 min,  0.001 sec (  0.472%)

         :::::::::::::::::::::::::::::::::::::::::::::::::::::
         ::                     SUMMARY                     ::
         :::::::::::::::::::::::::::::::::::::::::::::::::::::
         :: total energy             -83.551191624120 Eh    ::
         :: total w/o Gsasa/hb       -83.532359556228 Eh    ::
         :: gradient norm              0.128765015375 Eh/a0 ::
         :: HOMO-LUMO gap              0.044345343326 eV    ::
         ::.................................................::
         :: SCC energy               -84.273391579121 Eh    ::
         :: -> electrostatic           0.685602362733 Eh    ::
         :: -> Gsolv                  -0.271500709532 Eh    ::
         ::    -> Gelec               -0.252668641640 Eh    ::
         ::    -> Gsasa               -0.023871038587 Eh    ::
         ::    -> Ghb                 -0.002585308310 Eh    ::
         ::    -> Gshift               0.007624279005 Eh    ::
         :: repulsion energy           0.748686983380 Eh    ::
         :: dispersion energy         -0.026487028378 Eh    ::
         :: halogen bond corr.         0.000000000000 Eh    ::
         :: add. restraining           0.000000000000 Eh    ::
         :: total charge              -2.000000000000 e     ::
         :::::::::::::::::::::::::::::::::::::::::::::::::::::

      ----------------------------------------------------------- 
     |                   =====================                   |
     |                        A N C O P T                        |
     |                   =====================                   |
     |               Approximate Normal Coordinate               |
     |                Rational Function Optimizer                |
      ----------------------------------------------------------- 

          ...................................................
          :                      SETUP                      :
          :.................................................:
          :   optimization level            normal          :
          :   max. optcycles                   200          :
          :   ANC micro-cycles                  20          :
          :   degrees of freedom               120          :
          :.................................................:
          :   RF solver                   davidson          :
          :   write xtbopt.log                true          :
          :   linear?                        false          :
          :   energy convergence         0.5000000E-05 Eh   :
          :   grad. convergence          0.1000000E-02 Eh/α :
          :   maximium RF displ.         1.0000000          :
          :   Hlow (freq-cutoff)         0.1000000E-01      :
          :   Hmax (freq-cutoff)         5.0000000          :
          :   S6 in model hess.         20.0000000          :
          ...................................................

generating ANC from model Hessian ...
Using Lindh-Hessian (1995)
 Shifting diagonal of input Hessian by   1.008147031963591E-002
 Lowest  eigenvalues of input Hessian
    0.010000    0.000000    0.000000    0.000000    0.000000    0.000000
    0.000000    0.010283    0.010795    0.011032    0.011916    0.012008
    0.012802    0.014320    0.014734    0.015076    0.015567    0.017408
 Highest eigenvalues
    1.969909    2.043644    2.107886    2.213924    2.295104    2.311442
 

........................................................................
.............................. CYCLE    1 ..............................
........................................................................
   1    -84.2733916 -0.842734E+02  0.834E-05    0.04       0.0  T
   2    -84.2733912  0.347516E-06  0.156E-03    0.04       9.9  T
   3    -84.2733916 -0.348505E-06  0.121E-05    0.04    1275.1  T
   4    -84.2733916 -0.204636E-10  0.248E-06    0.04    6211.5  T
     SCC iter.                  ...        0 min,  0.016 sec
     gradient                   ...        0 min,  0.082 sec
 * total energy  :   -83.5511916 Eh     change       -0.6906475E-11 Eh
   gradient norm :     0.1287649 Eh/α   predicted     0.0000000E+00 (-100.00%)
   displ. norm   :     0.3399797 α      lambda       -0.1774787E-01
   maximum displ.:     0.1450385 α      in ANC's #26, #4, #20, ...

........................................................................
.............................. CYCLE    2 ..............................
........................................................................
   1    -84.1970713 -0.841971E+02  0.750E-01    0.09       0.0  T
   2    -84.1396174  0.574539E-01  0.126E+00    0.74       1.0  T
   3    -84.1993938 -0.597764E-01  0.820E-01    0.67       1.0  T
   4    -84.2060353 -0.664152E-02  0.770E-01    0.51       1.0  T
   5    -84.2205003 -0.144649E-01  0.645E-01    0.20       1.0  T
   6    -84.1316989  0.888014E-01  0.102E+00    0.20       1.0  T
   7    -84.2730331 -0.141334E+00  0.168E-01    0.06       1.0  T
   8    -84.2698779  0.315515E-02  0.221E-01    0.03       1.0  T
   9    -84.2709722 -0.109431E-02  0.205E-01    0.06       1.0  T
  10    -84.2762136 -0.524140E-02  0.679E-02    0.04       1.0  T
  11    -84.2768313 -0.617652E-03  0.155E-02    0.04       1.0  T
  12    -84.2768637 -0.324447E-04  0.340E-03    0.04       4.5  T
  13    -84.2768644 -0.663157E-06  0.259E-03    0.04       6.0  T
  14    -84.2768653 -0.925039E-06  0.384E-04    0.04      40.2  T
  15    -84.2768653  0.896918E-09  0.391E-04    0.04      39.5  T
  16    -84.2768653 -0.191276E-07  0.128E-04    0.04     120.7  T
  17    -84.2768653 -0.207962E-08  0.386E-05    0.04     399.7  T
     SCC iter.                  ...        0 min,  0.064 sec
     gradient                   ...        0 min,  0.082 sec
 * total energy  :   -83.5642119 Eh     change       -0.1302023E-01 Eh
   gradient norm :     0.0640349 Eh/α   predicted    -0.9915184E-02 ( -23.85%)
   displ. norm   :     0.3891229 α      lambda       -0.9424025E-02
   maximum displ.:     0.1551349 α      in ANC's #4, #26, #20, ...

........................................................................
.............................. CYCLE    3 ..............................
........................................................................
   1    -84.1837443 -0.841837E+02  0.846E-01    0.12       0.0  T
   2    -84.1280512  0.556930E-01  0.136E+00    0.82       1.0  T
   3    -84.1966574 -0.686061E-01  0.884E-01    0.73       1.0  T
   4    -84.2030973 -0.643993E-02  0.831E-01    0.56       1.0  T
   5    -84.2166053 -0.135080E-01  0.710E-01    0.22       1.0  T
   6    -84.1711155  0.454898E-01  0.900E-01    0.14       1.0  T
   7    -84.2698905 -0.987750E-01  0.309E-01    0.07       1.0  T
   8    -84.2751006 -0.521010E-02  0.235E-01    0.04       1.0  T
   9    -84.2798339 -0.473332E-02  0.147E-01    0.05       1.0  T
  10    -84.2813911 -0.155721E-02  0.101E-01    0.03       1.0  T
  11    -84.2827385 -0.134737E-02  0.192E-02    0.04       1.0  T
  12    -84.2827741 -0.355929E-04  0.105E-02    0.04       1.5  T
  13    -84.2827878 -0.137469E-04  0.313E-03    0.04       4.9  T
  14    -84.2827891 -0.127869E-05  0.685E-04    0.04      22.5  T
  15    -84.2827892 -0.607284E-07  0.180E-04    0.04      85.7  T
  16    -84.2827892 -0.398262E-08  0.618E-05    0.04     249.6  T
     SCC iter.                  ...        0 min,  0.071 sec
     gradient                   ...        0 min,  0.083 sec
 * total energy  :   -83.5700860 Eh     change       -0.5874150E-02 Eh
   gradient norm :     0.0241577 Eh/α   predicted    -0.5425491E-02 (  -7.64%)
   displ. norm   :     0.3289669 α      lambda       -0.2328432E-02
   maximum displ.:     0.1789012 α      in ANC's #4, #20, #15, ...

........................................................................
.............................. CYCLE    4 ..............................
........................................................................
   1    -84.2725421 -0.842725E+02  0.310E-01    0.04       0.0  T
   2    -84.1912594  0.812827E-01  0.938E-01    0.75       1.0  T
   3    -84.2207455 -0.294861E-01  0.697E-01    0.20       1.0  T
   4    -84.2644028 -0.436573E-01  0.401E-01    0.08       1.0  T
   5    -84.2785053 -0.141025E-01  0.231E-01    0.04       1.0  T
   6    -84.2813250 -0.281963E-02  0.183E-01    0.05       1.0  T
   7    -84.2853103 -0.398529E-02  0.628E-02    0.04       1.0  T
   8    -84.2858214 -0.511147E-03  0.139E-02    0.04       1.1  T
   9    -84.2858054  0.160382E-04  0.178E-02    0.04       1.0  T
  10    -84.2858464 -0.409719E-04  0.354E-03    0.04       4.4  T
  11    -84.2858480 -0.162390E-05  0.504E-04    0.04      30.6  T
  12    -84.2858480  0.961165E-09  0.499E-04    0.04      30.9  T
  13    -84.2858480 -0.314101E-07  0.114E-04    0.04     135.0  T
  14    -84.2858480 -0.586240E-09  0.908E-05    0.04     169.9  T
     SCC iter.                  ...        0 min,  0.060 sec
     gradient                   ...        0 min,  0.083 sec
 * total energy  :   -83.5717956 Eh     change       -0.1709626E-02 Eh
   gradient norm :     0.0200300 Eh/α   predicted    -0.1290375E-02 ( -24.52%)
   displ. norm   :     0.3982049 α      lambda       -0.1751612E-02
   maximum displ.:     0.2654594 α      in ANC's #4, #15, #20, ...

........................................................................
.............................. CYCLE    5 ..............................
........................................................................
   1    -84.2884644 -0.842885E+02  0.542E-02    0.04       0.0  T
   2    -84.2881945  0.269853E-03  0.846E-02    0.04       1.0  T
   3    -84.2887305 -0.535975E-03  0.139E-02    0.04       1.1  T
   4    -84.2877881  0.942338E-03  0.836E-02    0.04       1.0  T
   5    -84.2887331 -0.944995E-03  0.995E-03    0.04       1.6  T
   6    -84.2887354 -0.226921E-05  0.286E-03    0.04       5.4  T
   7    -84.2887340  0.140326E-05  0.399E-03    0.04       3.9  T
   8    -84.2887361 -0.208492E-05  0.261E-04    0.04      59.2  T
   9    -84.2887361 -0.447106E-08  0.435E-05    0.04     354.4  T
  10    -84.2887361  0.137021E-09  0.449E-05    0.04     344.0  T
     SCC iter.                  ...        0 min,  0.038 sec
     gradient                   ...        0 min,  0.083 sec
 * total energy  :   -83.5730297 Eh     change       -0.1234034E-02 Eh
   gradient norm :     0.0148307 Eh/α   predicted    -0.1014683E-02 ( -17.78%)
   displ. norm   :     0.3359370 α      lambda       -0.9419824E-03
   maximum displ.:     0.2533824 α      in ANC's #4, #5, #8, ...

........................................................................
.............................. CYCLE    6 ..............................
........................................................................
   1    -84.2752952 -0.842753E+02  0.344E-01    0.08       0.0  T
   2    -84.1131032  0.162192E+00  0.125E+00    0.79       1.0  T
   3    -84.1862822 -0.731790E-01  0.888E-01    0.12       1.0  T
   4    -84.2885729 -0.102291E+00  0.150E-01    0.03       1.0  T
   5    -84.2910479 -0.247497E-02  0.166E-02    0.04       1.0  T
   6    -84.2909874  0.605183E-04  0.224E-02    0.04       1.0  T
   7    -84.2909870  0.336672E-06  0.241E-02    0.04       1.0  T
   8    -84.2910370 -0.500092E-04  0.137E-02    0.04       1.1  T
   9    -84.2910623 -0.253070E-04  0.497E-04    0.04      31.0  T
  10    -84.2910623  0.321379E-07  0.663E-04    0.04      23.3  T
  11    -84.2910624 -0.553632E-07  0.142E-04    0.04     108.8  T
  12    -84.2910624 -0.209663E-08  0.556E-05    0.04     277.7  T
     SCC iter.                  ...        0 min,  0.054 sec
     gradient                   ...        0 min,  0.083 sec
 * total energy  :   -83.5737404 Eh     change       -0.7107104E-03 Eh
   gradient norm :     0.0122254 Eh/α   predicted    -0.5241453E-03 ( -26.25%)
   displ. norm   :     0.3583390 α      lambda       -0.7810441E-03
   maximum displ.:     0.2817208 α      in ANC's #4, #5, #9, ...

........................................................................
.............................. CYCLE    7 ..............................
........................................................................
   1    -84.2623016 -0.842623E+02  0.477E-01    0.10       0.0  T
   2    -84.0918349  0.170467E+00  0.137E+00    1.09       1.0  T
   3    -84.1429539 -0.511190E-01  0.107E+00    0.22       1.0  T
   4    -84.2300229 -0.870691E-01  0.689E-01    0.08       1.0  T
   5    -84.2861931 -0.561702E-01  0.208E-01    0.06       1.0  T
   6    -84.2722559  0.139372E-01  0.388E-01    0.04       1.0  T
   7    -84.2923049 -0.200490E-01  0.107E-02    0.04       1.4  T
   8    -84.2922818  0.231469E-04  0.170E-02    0.04       1.0  T
   9    -84.2923144 -0.326408E-04  0.328E-03    0.04       4.7  T
  10    -84.2923152 -0.807959E-06  0.232E-03    0.04       6.7  T
  11    -84.2923159 -0.715856E-06  0.152E-04    0.04     101.7  T
  12    -84.2923159  0.447002E-07  0.602E-04    0.04      25.6  T
  13    -84.2923159 -0.381415E-07  0.268E-04    0.04      57.6  T
  14    -84.2923159 -0.894165E-08  0.722E-05    0.04     213.8  T
     SCC iter.                  ...        0 min,  0.061 sec
     gradient                   ...        0 min,  0.083 sec
 * total energy  :   -83.5743649 Eh     change       -0.6244784E-03 Eh
   gradient norm :     0.0119272 Eh/α   predicted    -0.4406691E-03 ( -29.43%)
   displ. norm   :     0.4124214 α      lambda       -0.7888412E-03
   maximum displ.:     0.3192871 α      in ANC's #4, #5, #1, ...

........................................................................
.............................. CYCLE    8 ..............................
........................................................................
   1    -84.2525664 -0.842526E+02  0.558E-01    0.13       0.0  T
   2    -84.0712482  0.181318E+00  0.146E+00    1.24       1.0  T
   3    -84.1283496 -0.571014E-01  0.113E+00    0.27       1.0  T
   4    -84.1953868 -0.670373E-01  0.862E-01    0.10       1.0  T
   5    -84.2638410 -0.684542E-01  0.460E-01    0.11       1.0  T
   6    -84.2713377 -0.749664E-02  0.405E-01    0.04       1.0  T
   7    -84.2925573 -0.212197E-01  0.508E-02    0.04       1.0  T
   8    -84.2928746 -0.317247E-03  0.279E-03    0.04       5.5  T
   9    -84.2928538  0.207557E-04  0.123E-02    0.05       1.3  T
  10    -84.2928742 -0.204088E-04  0.193E-03    0.04       8.0  T
  11    -84.2928747 -0.495208E-06  0.279E-04    0.04      55.3  T
  12    -84.2928746  0.107020E-06  0.943E-04    0.04      16.4  T
  13    -84.2928747 -0.111345E-06  0.212E-04    0.04      72.9  T
  14    -84.2928747  0.196081E-09  0.216E-04    0.04      71.5  T
  15    -84.2928747 -0.613903E-08  0.287E-05    0.04     536.8  T
  16    -84.2928747 -0.106098E-09  0.965E-07    0.04   15996.6  T
     SCC iter.                  ...        0 min,  0.060 sec
     gradient                   ...        0 min,  0.082 sec
 * total energy  :   -83.5750086 Eh     change       -0.6437253E-03 Eh
   gradient norm :     0.0110006 Eh/α   predicted    -0.4615180E-03 ( -28.31%)
   displ. norm   :     0.5016655 α      lambda       -0.8190298E-03
   maximum displ.:     0.3784991 α      in ANC's #4, #1, #11, ...

........................................................................
.............................. CYCLE    9 ..............................
........................................................................
   1    -84.2475937 -0.842476E+02  0.588E-01    0.15       0.0  T
   2    -84.0514554  0.196138E+00  0.152E+00    1.27       1.0  T
   3    -84.1165659 -0.651105E-01  0.117E+00    0.27       1.0  T
   4    -84.1806153 -0.640494E-01  0.922E-01    0.11       1.0  T
   5    -84.2596625 -0.790472E-01  0.481E-01    0.13       1.0  T
   6    -84.2648808 -0.521827E-02  0.449E-01    0.05       1.0  T
   7    -84.2898870 -0.250063E-01  0.103E-01    0.04       1.0  T
   8    -84.2911603 -0.127332E-02  0.255E-02    0.05       1.0  T
   9    -84.2911395  0.208946E-04  0.271E-02    0.05       1.0  T
  10    -84.2912381 -0.986761E-04  0.260E-03    0.05       5.9  T
  11    -84.2912388 -0.686763E-06  0.105E-03    0.05      14.6  T
  12    -84.2912387  0.161503E-06  0.155E-03    0.05      10.0  T
  13    -84.2912390 -0.313070E-06  0.700E-05    0.05     220.3  T
  14    -84.2912390  0.902929E-08  0.269E-04    0.05      57.3  T
  15    -84.2912390 -0.966213E-08  0.490E-06    0.05    3151.3  T
     SCC iter.                  ...        0 min,  0.060 sec
     gradient                   ...        0 min,  0.082 sec
 * total energy  :   -83.5756756 Eh     change       -0.6670549E-03 Eh
   gradient norm :     0.0099539 Eh/α   predicted    -0.5125771E-03 ( -23.16%)
   displ. norm   :     0.5529058 α      lambda       -0.8716855E-03
   maximum displ.:     0.4078407 α      in ANC's #4, #1, #5, ...

........................................................................
.............................. CYCLE   10 ..............................
........................................................................
   1    -84.2468241 -0.842468E+02  0.602E-01    0.17       0.0  T
   2    -84.0334325  0.213392E+00  0.158E+00    1.28       1.0  T
   3    -84.1068988 -0.734663E-01  0.120E+00    0.25       1.0  T
   4    -84.1735831 -0.666843E-01  0.955E-01    0.11       1.0  T
   5    -84.2659884 -0.924053E-01  0.436E-01    0.13       1.0  T
   6    -84.2768709 -0.108825E-01  0.341E-01    0.04       1.0  T
   7    -84.2911907 -0.143199E-01  0.691E-02    0.05       1.0  T
   8    -84.2916835 -0.492820E-03  0.253E-02    0.06       1.0  T
   9    -84.2917132 -0.296595E-04  0.215E-02    0.06       1.0  T
  10    -84.2917727 -0.594548E-04  0.435E-03    0.05       3.6  T
  11    -84.2917748 -0.209893E-05  0.171E-03    0.06       9.0  T
  12    -84.2917750 -0.199141E-06  0.116E-03    0.05      13.3  T
  13    -84.2917751 -0.164367E-06  0.307E-04    0.05      50.3  T
  14    -84.2917751 -0.121476E-07  0.433E-05    0.05     356.3  T
  15    -84.2917751 -0.975717E-10  0.348E-05    0.05     443.1  T
     SCC iter.                  ...        0 min,  0.051 sec
     gradient                   ...        0 min,  0.082 sec
 * total energy  :   -83.5763444 Eh     change       -0.6687910E-03 Eh
   gradient norm :     0.0146415 Eh/α   predicted    -0.5690850E-03 ( -14.91%)
   displ. norm   :     0.5693484 α      lambda       -0.8253471E-03
   maximum displ.:     0.4107970 α      in ANC's #4, #1, #5, ...

........................................................................
.............................. CYCLE   11 ..............................
........................................................................
   1    -84.2528016 -0.842528E+02  0.549E-01    0.16       0.0  T
   2    -84.0238893  0.228912E+00  0.158E+00    1.17       1.0  T
   3    -84.1062331 -0.823439E-01  0.119E+00    0.20       1.0  T
   4    -84.1936027 -0.873696E-01  0.865E-01    0.09       1.0  T
   5    -84.2858195 -0.922168E-01  0.173E-01    0.08       1.0  T
   6    -84.2747003  0.111192E-01  0.344E-01    0.05       1.0  T
   7    -84.2894887 -0.147884E-01  0.633E-02    0.06       1.0  T
   8    -84.2899308 -0.442125E-03  0.208E-02    0.06       1.0  T
   9    -84.2898990  0.317874E-04  0.253E-02    0.06       1.0  T
  10    -84.2899824 -0.833571E-04  0.247E-03    0.06       6.3  T
  11    -84.2899826 -0.204708E-06  0.215E-03    0.06       7.2  T
  12    -84.2899831 -0.561646E-06  0.609E-04    0.06      25.3  T
  13    -84.2899832 -0.236421E-07  0.422E-04    0.06      36.6  T
  14    -84.2899832 -0.229964E-07  0.623E-06    0.06    2477.4  T
  15    -84.2899832  0.807603E-10  0.254E-05    0.06     608.5  T
     SCC iter.                  ...        0 min,  0.051 sec
     gradient                   ...        0 min,  0.082 sec
 * total energy  :   -83.5769932 Eh     change       -0.6487405E-03 Eh
   gradient norm :     0.0133868 Eh/α   predicted    -0.5464481E-03 ( -15.77%)
   displ. norm   :     0.5702204 α      lambda       -0.8625559E-03
   maximum displ.:     0.3960869 α      in ANC's #4, #1, #5, ...

........................................................................
.............................. CYCLE   12 ..............................
........................................................................
   1    -84.2620670 -0.842621E+02  0.496E-01    0.15       0.0  T
   2    -84.0206322  0.241435E+00  0.158E+00    1.07       1.0  T
   3    -84.1191652 -0.985331E-01  0.116E+00    0.16       1.0  T
   4    -84.2311305 -0.111965E+00  0.692E-01    0.07       1.0  T
   5    -84.2923747 -0.612441E-01  0.266E-02    0.07       1.0  T
   6    -84.2920008  0.373893E-03  0.593E-02    0.06       1.0  T
   7    -84.2923984 -0.397611E-03  0.124E-02    0.07       1.2  T
   8    -84.2924058 -0.744022E-05  0.102E-02    0.07       1.5  T
   9    -84.2924187 -0.128931E-04  0.276E-03    0.07       5.6  T
  10    -84.2924197 -0.926407E-06  0.624E-04    0.07      24.7  T
  11    -84.2924197 -0.478808E-07  0.167E-04    0.07      92.5  T
  12    -84.2924197  0.690056E-08  0.283E-04    0.07      54.6  T
  13    -84.2924197 -0.100973E-07  0.185E-05    0.07     836.2  T
     SCC iter.                  ...        0 min,  0.044 sec
     gradient                   ...        0 min,  0.083 sec
 * total energy  :   -83.5776852 Eh     change       -0.6920065E-03 Eh
   gradient norm :     0.0120153 Eh/α   predicted    -0.5715118E-03 ( -17.41%)
   displ. norm   :     0.6127824 α      lambda       -0.8269061E-03
   maximum displ.:     0.4178041 α      in ANC's #4, #5, #1, ...

........................................................................
.............................. CYCLE   13 ..............................
........................................................................
   1    -84.2687690 -0.842688E+02  0.434E-01    0.14       0.0  T
   2    -84.0176192  0.251150E+00  0.157E+00    0.94       1.0  T
   3    -84.1471240 -0.129505E+00  0.106E+00    0.12       1.0  T
   4    -84.2753882 -0.128264E+00  0.369E-01    0.05       1.0  T
   5    -84.2913237 -0.159354E-01  0.842E-02    0.06       1.0  T
   6    -84.2919541 -0.630424E-03  0.366E-02    0.07       1.0  T
   7    -84.2921404 -0.186273E-03  0.558E-03    0.07       2.8  T
   8    -84.2921373  0.310461E-05  0.666E-03    0.07       2.3  T
   9    -84.2921431 -0.583142E-05  0.307E-04    0.07      50.3  T
  10    -84.2921431  0.384850E-08  0.306E-04    0.07      50.4  T
  11    -84.2921431 -0.118488E-07  0.452E-05    0.07     341.3  T
  12    -84.2921431  0.316291E-09  0.635E-05    0.07     243.0  T
     SCC iter.                  ...        0 min,  0.044 sec
     gradient                   ...        0 min,  0.083 sec
 * total energy  :   -83.5783669 Eh     change       -0.6817388E-03 Eh
   gradient norm :     0.0106546 Eh/α   predicted    -0.5687081E-03 ( -16.58%)
   displ. norm   :     0.5878575 α      lambda       -0.9479552E-03
   maximum displ.:     0.3335044 α      in ANC's #4, #5, #1, ...

........................................................................
.............................. CYCLE   14 ..............................
........................................................................
   1    -84.2881852 -0.842882E+02  0.305E-01    0.12       0.0  T
   2    -84.0394686  0.248717E+00  0.149E+00    0.67       1.0  T
   3    -84.2495616 -0.210093E+00  0.622E-01    0.06       1.0  T
   4    -84.2896508 -0.400891E-01  0.281E-01    0.11       1.0  T
   5    -84.2991729 -0.952211E-02  0.723E-02    0.08       1.0  T
   6    -84.2997956 -0.622747E-03  0.199E-02    0.07       1.0  T
   7    -84.2998211 -0.255244E-04  0.126E-02    0.07       1.2  T
   8    -84.2998413 -0.201747E-04  0.102E-03    0.07      15.1  T
   9    -84.2998414 -0.123459E-06  0.596E-05    0.07     259.1  T
  10    -84.2998414  0.188381E-07  0.381E-04    0.07      40.5  T
  11    -84.2998414 -0.190002E-07  0.977E-06    0.07    1580.0  T
     SCC iter.                  ...        0 min,  0.040 sec
     gradient                   ...        0 min,  0.083 sec
 * total energy  :   -83.5789104 Eh     change       -0.5434676E-03 Eh
   gradient norm :     0.0151633 Eh/α   predicted    -0.6377743E-03 (  17.35%)
   displ. norm   :     0.6395521 α      lambda       -0.9208901E-03
   maximum displ.:     0.4341057 α      in ANC's #4, #1, #5, ...

........................................................................
.............................. CYCLE   15 ..............................
........................................................................
   1    -84.2689894 -0.842690E+02  0.418E-01    0.16       0.0  T
   2    -83.9985383  0.270451E+00  0.161E+00    0.92       1.0  T
   3    -84.1519681 -0.153430E+00  0.104E+00    0.11       1.0  T
   4    -84.2878740 -0.135906E+00  0.169E-01    0.07       1.0  T
   5    -84.2910531 -0.317914E-02  0.135E-02    0.08       1.1  T
   6    -84.2905426  0.510471E-03  0.617E-02    0.08       1.0  T
   7    -84.2910476 -0.504925E-03  0.981E-03    0.08       1.6  T
   8    -84.2910511 -0.353391E-05  0.843E-03    0.08       1.8  T
   9    -84.2910601 -0.899919E-05  0.132E-03    0.08      11.7  T
  10    -84.2910602 -0.114655E-06  0.879E-04    0.08      17.6  T
  11    -84.2910603 -0.832174E-07  0.367E-04    0.08      42.1  T
  12    -84.2910603 -0.159885E-07  0.908E-05    0.08     169.9  T
  13    -84.2910603 -0.102995E-08  0.690E-06    0.08    2236.1  T
     SCC iter.                  ...        0 min,  0.047 sec
     gradient                   ...        0 min,  0.061 sec
 * total energy  :   -83.5794323 Eh     change       -0.5219712E-03 Eh
   gradient norm :     0.0156695 Eh/α   predicted    -0.6487804E-03 (  24.29%)
   displ. norm   :     0.3005174 α      lambda       -0.5050331E-03
   maximum displ.:     0.1557654 α      in ANC's #4, #1, #5, ...

........................................................................
.............................. CYCLE   16 ..............................
........................................................................
   1    -84.2915726 -0.842916E+02  0.145E-01    0.10       0.0  T
   2    -84.0504283  0.241144E+00  0.139E+00    0.30       1.0  T
   3    -84.2933455 -0.242917E+00  0.848E-02    0.07       1.0  T
   4    -84.2941843 -0.838820E-03  0.203E-02    0.08       1.0  T
   5    -84.2942356 -0.512312E-04  0.247E-03    0.08       6.2  T
   6    -84.2941984  0.371732E-04  0.171E-02    0.08       1.0  T
   7    -84.2942352 -0.367812E-04  0.249E-03    0.08       6.2  T
   8    -84.2942360 -0.795817E-06  0.139E-04    0.08     110.8  T
   9    -84.2942360  0.542570E-09  0.144E-04    0.08     106.9  T
     SCC iter.                  ...        0 min,  0.031 sec
     gradient                   ...        0 min,  0.083 sec
 * total energy  :   -83.5798380 Eh     change       -0.4056897E-03 Eh
   gradient norm :     0.0114479 Eh/α   predicted    -0.2753262E-03 ( -32.13%)
   displ. norm   :     0.6262532 α      lambda       -0.8275360E-03
   maximum displ.:     0.3132084 α      in ANC's #4, #1, #5, ...

........................................................................
.............................. CYCLE   17 ..............................
........................................................................
   1    -84.2816495 -0.842816E+02  0.337E-01    0.14       0.0  T
   2    -84.0076424  0.274007E+00  0.157E+00    0.74       1.0  T
   3    -84.2305011 -0.222859E+00  0.709E-01    0.07       1.0  T
   4    -84.2892543 -0.587532E-01  0.229E-01    0.12       1.0  T
   5    -84.2959701 -0.671582E-02  0.209E-02    0.08       1.0  T
   6    -84.2957781  0.192009E-03  0.449E-02    0.08       1.0  T
   7    -84.2960267 -0.248559E-03  0.484E-03    0.08       3.2  T
   8    -84.2960239  0.275086E-05  0.661E-03    0.08       2.3  T
   9    -84.2960294 -0.543548E-05  0.133E-04    0.08     116.1  T
  10    -84.2960294  0.207410E-08  0.143E-04    0.08     107.8  T
  11    -84.2960294 -0.227638E-08  0.660E-05    0.08     233.9  T
     SCC iter.                  ...        0 min,  0.038 sec
     gradient                   ...        0 min,  0.083 sec
 * total energy  :   -83.5804283 Eh     change       -0.5902579E-03 Eh
   gradient norm :     0.0118085 Eh/α   predicted    -0.5760509E-03 (  -2.41%)
   displ. norm   :     0.6180395 α      lambda       -0.6566955E-03
   maximum displ.:     0.3050723 α      in ANC's #1, #4, #5, ...

........................................................................
.............................. CYCLE   18 ..............................
........................................................................
   1    -84.2883526 -0.842884E+02  0.310E-01    0.14       0.0  T
   2    -84.0077863  0.280566E+00  0.157E+00    0.68       1.0  T
   3    -84.2555790 -0.247793E+00  0.589E-01    0.06       1.0  T
   4    -84.2979859 -0.424070E-01  0.142E-01    0.10       1.0  T
   5    -84.3004203 -0.243442E-02  0.384E-02    0.09       1.0  T
   6    -84.3005904 -0.170004E-03  0.148E-02    0.08       1.0  T
   7    -84.3006001 -0.977301E-05  0.109E-02    0.08       1.4  T
   8    -84.3006146 -0.145069E-04  0.646E-04    0.08      23.9  T
   9    -84.3006146  0.106100E-07  0.707E-04    0.08      21.8  T
  10    -84.3006147 -0.470709E-07  0.333E-04    0.08      46.4  T
  11    -84.3006147 -0.145908E-07  0.512E-05    0.08     301.5  T
  12    -84.3006147  0.520544E-10  0.519E-05    0.08     297.3  T
     SCC iter.                  ...        0 min,  0.042 sec
     gradient                   ...        0 min,  0.083 sec
 * total energy  :   -83.5809300 Eh     change       -0.5017522E-03 Eh
   gradient norm :     0.0109830 Eh/α   predicted    -0.4537699E-03 (  -9.56%)
   displ. norm   :     0.7635805 α      lambda       -0.6711485E-03
   maximum displ.:     0.3886300 α      in ANC's #4, #1, #5, ...

........................................................................
.............................. CYCLE   19 ..............................
........................................................................
   1    -84.2804011 -0.842804E+02  0.307E-01    0.14       0.0  T
   2    -83.9894902  0.290911E+00  0.160E+00    0.66       1.0  T
   3    -84.2601733 -0.270683E+00  0.501E-01    0.06       1.0  T
   4    -84.2858385 -0.256652E-01  0.220E-01    0.12       1.0  T
   5    -84.2920951 -0.625657E-02  0.179E-02    0.09       1.0  T
   6    -84.2921310 -0.358952E-04  0.702E-03    0.09       2.2  T
   7    -84.2921376 -0.660254E-05  0.877E-04    0.09      17.6  T
   8    -84.2921369  0.668877E-06  0.239E-03    0.09       6.4  T
   9    -84.2921376 -0.708504E-06  0.269E-04    0.09      57.4  T
  10    -84.2921376 -0.557664E-08  0.135E-04    0.09     114.4  T
  11    -84.2921376 -0.138485E-09  0.138E-04    0.09     111.8  T
     SCC iter.                  ...        0 min,  0.038 sec
     gradient                   ...        0 min,  0.083 sec
 * total energy  :   -83.5813309 Eh     change       -0.4008197E-03 Eh
   gradient norm :     0.0137143 Eh/α   predicted    -0.5312357E-03 (  32.54%)
   displ. norm   :     0.3868914 α      lambda       -0.6861330E-03
   maximum displ.:     0.2248328 α      in ANC's #1, #5, #3, ...

........................................................................
.............................. CYCLE   20 ..............................
........................................................................
   1    -84.3003659 -0.843004E+02  0.113E-01    0.07       0.0  T
   2    -84.2668016  0.335643E-01  0.564E-01    0.35       1.0  T
   3    -84.2948167 -0.280151E-01  0.242E-01    0.12       1.0  T
   4    -84.3020258 -0.720907E-02  0.264E-02    0.08       1.0  T
   5    -84.3020735 -0.477019E-04  0.208E-02    0.09       1.0  T
   6    -84.3020171  0.563991E-04  0.281E-02    0.08       1.0  T
   7    -84.3020696 -0.525546E-04  0.198E-02    0.09       1.0  T
   8    -84.3021187 -0.490876E-04  0.196E-03    0.09       7.9  T
   9    -84.3021191 -0.384158E-06  0.887E-04    0.09      17.4  T
  10    -84.3021192 -0.964267E-07  0.139E-04    0.09     111.3  T
  11    -84.3021192 -0.253837E-08  0.475E-06    0.09    3246.1  T
     SCC iter.                  ...        0 min,  0.039 sec
     gradient                   ...        0 min,  0.083 sec
 * total energy  :   -83.5815923 Eh     change       -0.2614161E-03 Eh
   gradient norm :     0.0164542 Eh/α   predicted    -0.3944206E-03 (  50.88%)
   displ. norm   :     0.5099596 α      lambda       -0.7303701E-03
   maximum displ.:     0.2497120 α      in ANC's #1, #4, #5, ...
 * RMSD in coord.:     1.2602629 α      energy gain  -0.3040066E-01 Eh

generating ANC from model Hessian ...
Using Lindh-Hessian (1995)
 Shifting diagonal of input Hessian by   9.829991140052570E-003
 Lowest  eigenvalues of input Hessian
    0.000000    0.000000    0.000000    0.000000    0.000000    0.000000
    0.010000    0.010152    0.010815    0.010937    0.011635    0.012092
    0.012868    0.013848    0.014348    0.014874    0.015820    0.017573
 Highest eigenvalues
    1.985277    2.090294    2.095680    2.261365    2.290182    2.325806
 

........................................................................
.............................. CYCLE   21 ..............................
........................................................................
   1    -84.2859662 -0.842860E+02  0.352E-01    0.17       0.0  T
   2    -83.9795516  0.306415E+00  0.166E+00    0.76       1.0  T
   3    -84.2375049 -0.257953E+00  0.708E-01    0.07       1.0  T
   4    -84.2886582 -0.511533E-01  0.321E-01    0.16       1.0  T
   5    -84.3002819 -0.116237E-01  0.103E-01    0.10       1.0  T
   6    -84.3013641 -0.108221E-02  0.500E-02    0.08       1.0  T
   7    -84.3015780 -0.213858E-03  0.256E-02    0.09       1.0  T
   8    -84.3016518 -0.737738E-04  0.698E-03    0.09       2.2  T
   9    -84.3016573 -0.553336E-05  0.111E-03    0.09      13.9  T
  10    -84.3016574 -0.152058E-06  0.217E-04    0.09      71.1  T
  11    -84.3016575 -0.641430E-08  0.340E-05    0.09     453.8  T
  12    -84.3016575  0.150035E-08  0.113E-04    0.09     137.0  T
     SCC iter.                  ...        0 min,  0.042 sec
     gradient                   ...        0 min,  0.083 sec
 * total energy  :   -83.5818691 Eh     change       -0.2768601E-03 Eh
   gradient norm :     0.0151469 Eh/α   predicted     0.0000000E+00 (-100.00%)
   displ. norm   :     0.0659747 α      lambda       -0.3269080E-03
   maximum displ.:     0.0247726 α      in ANC's #14, #3, #2, ...

........................................................................
.............................. CYCLE   22 ..............................
........................................................................
   1    -84.3019650 -0.843020E+02  0.178E-02    0.09       0.0  T
   2    -84.3005195  0.144550E-02  0.108E-01    0.10       1.0  T
   3    -84.3019527 -0.143321E-02  0.210E-02    0.09       1.0  T
   4    -84.3019920 -0.392669E-04  0.736E-03    0.09       2.1  T
   5    -84.3019949 -0.296844E-05  0.450E-03    0.09       3.4  T
   6    -84.3019965 -0.156122E-05  0.181E-03    0.09       8.5  T
   7    -84.3019969 -0.407292E-06  0.161E-04    0.09      95.8  T
   8    -84.3019969 -0.178797E-08  0.927E-05    0.09     166.4  T
     SCC iter.                  ...        0 min,  0.028 sec
     gradient                   ...        0 min,  0.083 sec
 * total energy  :   -83.5820846 Eh     change       -0.2154319E-03 Eh
   gradient norm :     0.0057563 Eh/α   predicted    -0.1641662E-03 ( -23.80%)
   displ. norm   :     0.1002693 α      lambda       -0.1461791E-03
   maximum displ.:     0.0410715 α      in ANC's #14, #3, #6, ...

........................................................................
.............................. CYCLE   23 ..............................
........................................................................
   1    -84.3017043 -0.843017E+02  0.507E-02    0.10       0.0  T
   2    -84.1997486  0.101956E+00  0.890E-01    0.08       1.0  T
   3    -84.3018889 -0.102140E+00  0.303E-02    0.09       1.0  T
   4    -84.3020053 -0.116323E-03  0.280E-03    0.09       5.5  T
   5    -84.3020055 -0.247305E-06  0.166E-03    0.09       9.3  T
   6    -84.3020043  0.120626E-05  0.318E-03    0.09       4.8  T
   7    -84.3020054 -0.110409E-05  0.102E-03    0.09      15.2  T
   8    -84.3020055 -0.129359E-06  0.976E-05    0.09     158.1  T
   9    -84.3020055 -0.276501E-09  0.853E-05    0.09     180.9  T
     SCC iter.                  ...        0 min,  0.032 sec
     gradient                   ...        0 min,  0.083 sec
 * total energy  :   -83.5821827 Eh     change       -0.9808018E-04 Eh
   gradient norm :     0.0035736 Eh/α   predicted    -0.7384415E-04 ( -24.71%)
   displ. norm   :     0.1479670 α      lambda       -0.1169051E-03
   maximum displ.:     0.0696063 α      in ANC's #14, #3, #2, ...

........................................................................
.............................. CYCLE   24 ..............................
........................................................................
   1    -84.3006958 -0.843007E+02  0.880E-02    0.10       0.0  T
   2    -84.0781955  0.222500E+00  0.132E+00    0.16       1.0  T
   3    -84.3015976 -0.223402E+00  0.193E-02    0.09       1.0  T
   4    -84.3016262 -0.286286E-04  0.118E-02    0.09       1.3  T
   5    -84.3016407 -0.144398E-04  0.490E-03    0.09       3.2  T
   6    -84.3016413 -0.586810E-06  0.401E-03    0.09       3.8  T
   7    -84.3016432 -0.188559E-05  0.196E-04    0.09      78.8  T
   8    -84.3016432 -0.322134E-08  0.860E-05    0.09     179.4  T
   9    -84.3016432 -0.787239E-09  0.235E-05    0.09     657.0  T
     SCC iter.                  ...        0 min,  0.033 sec
     gradient                   ...        0 min,  0.083 sec
 * total energy  :   -83.5822771 Eh     change       -0.9445037E-04 Eh
   gradient norm :     0.0061233 Eh/α   predicted    -0.5973443E-04 ( -36.76%)
   displ. norm   :     0.3539248 α      lambda       -0.2359136E-03
   maximum displ.:     0.1781083 α      in ANC's #14, #3, #2, ...

........................................................................
.............................. CYCLE   25 ..............................
........................................................................
   1    -84.2943570 -0.842944E+02  0.214E-01    0.13       0.0  T
   2    -83.9949665  0.299391E+00  0.158E+00    0.44       1.0  T
   3    -84.2964599 -0.301493E+00  0.170E-01    0.08       1.0  T
   4    -84.2997484 -0.328851E-02  0.413E-02    0.10       1.0  T
   5    -84.2996536  0.947946E-04  0.514E-02    0.09       1.0  T
   6    -84.2999698 -0.316235E-03  0.567E-03    0.09       2.7  T
   7    -84.2999744 -0.462404E-05  0.523E-04    0.09      29.5  T
   8    -84.2999738  0.635862E-06  0.229E-03    0.09       6.7  T
   9    -84.2999745 -0.655558E-06  0.338E-05    0.09     457.2  T
  10    -84.2999745 -0.730438E-11  0.136E-05    0.09    1134.5  T
     SCC iter.                  ...        0 min,  0.035 sec
     gradient                   ...        0 min,  0.083 sec
 * total energy  :   -83.5824533 Eh     change       -0.1761488E-03 Eh
   gradient norm :     0.0094025 Eh/α   predicted    -0.1327364E-03 ( -24.65%)
   displ. norm   :     0.3624240 α      lambda       -0.2137164E-03
   maximum displ.:     0.1846091 α      in ANC's #14, #3, #2, ...

........................................................................
.............................. CYCLE   26 ..............................
........................................................................
   1    -84.2919275 -0.842919E+02  0.229E-01    0.13       0.0  T
   2    -83.9830866  0.308841E+00  0.161E+00    0.48       1.0  T
   3    -84.2925244 -0.309438E+00  0.220E-01    0.07       1.0  T
   4    -84.2975955 -0.507101E-02  0.809E-02    0.11       1.0  T
   5    -84.2981457 -0.550255E-03  0.497E-02    0.09       1.0  T
   6    -84.2984389 -0.293207E-03  0.592E-03    0.09       2.6  T
   7    -84.2984418 -0.289064E-05  0.136E-03    0.09      11.4  T
   8    -84.2984410  0.848601E-06  0.288E-03    0.09       5.3  T
   9    -84.2984420 -0.103838E-05  0.190E-04    0.09      81.4  T
  10    -84.2984420 -0.441926E-08  0.305E-05    0.09     506.7  T
  11    -84.2984420  0.785562E-09  0.839E-05    0.09     183.9  T
     SCC iter.                  ...        0 min,  0.043 sec
     gradient                   ...        0 min,  0.083 sec
 * total energy  :   -83.5826134 Eh     change       -0.1601232E-03 Eh
   gradient norm :     0.0104572 Eh/α   predicted    -0.1209035E-03 ( -24.49%)
   displ. norm   :     0.3491670 α      lambda       -0.2927746E-03
   maximum displ.:     0.1620829 α      in ANC's #14, #3, #2, ...

........................................................................
.............................. CYCLE   27 ..............................
........................................................................
   1    -84.2922793 -0.842923E+02  0.235E-01    0.14       0.0  T
   2    -83.9751304  0.317149E+00  0.163E+00    0.49       1.0  T
   3    -84.2921420 -0.317012E+00  0.239E-01    0.07       1.0  T
   4    -84.2978733 -0.573126E-02  0.100E-01    0.11       1.0  T
   5    -84.2990323 -0.115897E-02  0.325E-02    0.09       1.0  T
   6    -84.2991385 -0.106226E-03  0.123E-02    0.09       1.3  T
   7    -84.2991546 -0.160917E-04  0.150E-03    0.09      10.3  T
   8    -84.2991540  0.590402E-06  0.256E-03    0.10       6.0  T
   9    -84.2991548 -0.815645E-06  0.254E-04    0.10      60.7  T
  10    -84.2991548 -0.619625E-08  0.104E-04    0.10     148.3  T
  11    -84.2991548 -0.373319E-09  0.914E-05    0.10     168.7  T
     SCC iter.                  ...        0 min,  0.040 sec
     gradient                   ...        0 min,  0.083 sec
 * total energy  :   -83.5828497 Eh     change       -0.2362756E-03 Eh
   gradient norm :     0.0091922 Eh/α   predicted    -0.1642349E-03 ( -30.49%)
   displ. norm   :     0.4225265 α      lambda       -0.4501449E-03
   maximum displ.:     0.1869951 α      in ANC's #2, #3, #14, ...

........................................................................
.............................. CYCLE   28 ..............................
........................................................................
   1    -84.2937432 -0.842937E+02  0.256E-01    0.15       0.0  T
   2    -83.9646272  0.329116E+00  0.168E+00    0.54       1.0  T
   3    -84.2925246 -0.327897E+00  0.275E-01    0.07       1.0  T
   4    -84.2995521 -0.702753E-02  0.134E-01    0.12       1.0  T
   5    -84.3018030 -0.225090E-02  0.160E-02    0.09       1.0  T
   6    -84.3017889  0.141357E-04  0.189E-02    0.09       1.0  T
   7    -84.3018298 -0.409398E-04  0.423E-04    0.10      36.5  T
   8    -84.3018296  0.273905E-06  0.149E-03    0.10      10.4  T
   9    -84.3018298 -0.275877E-06  0.596E-05    0.10     259.1  T
  10    -84.3018298  0.117183E-09  0.528E-05    0.10     292.0  T
     SCC iter.                  ...        0 min,  0.036 sec
     gradient                   ...        0 min,  0.082 sec
 * total energy  :   -83.5831899 Eh     change       -0.3402895E-03 Eh
   gradient norm :     0.0108375 Eh/α   predicted    -0.2652661E-03 ( -22.05%)
   displ. norm   :     0.5865883 α      lambda       -0.4430060E-03
   maximum displ.:     0.2556439 α      in ANC's #3, #2, #14, ...

........................................................................
.............................. CYCLE   29 ..............................
........................................................................
   1    -84.2884516 -0.842885E+02  0.286E-01    0.16       0.0  T
   2    -83.9424422  0.346009E+00  0.173E+00    0.59       1.0  T
   3    -84.2878390 -0.345397E+00  0.294E-01    0.07       1.0  T
   4    -84.2958904 -0.805140E-02  0.141E-01    0.12       1.0  T
   5    -84.2983630 -0.247265E-02  0.157E-02    0.09       1.0  T
   6    -84.2983494  0.136074E-04  0.185E-02    0.09       1.0  T
   7    -84.2983874 -0.380047E-04  0.113E-03    0.10      13.6  T
   8    -84.2983866  0.855187E-06  0.277E-03    0.10       5.6  T
   9    -84.2983875 -0.938714E-06  0.317E-04    0.10      48.7  T
  10    -84.2983875 -0.123462E-07  0.501E-05    0.10     307.9  T
  11    -84.2983875  0.643212E-09  0.860E-05    0.10     179.4  T
     SCC iter.                  ...        0 min,  0.039 sec
     gradient                   ...        0 min,  0.082 sec
 * total energy  :   -83.5835216 Eh     change       -0.3316849E-03 Eh
   gradient norm :     0.0153560 Eh/α   predicted    -0.2977260E-03 ( -10.24%)
   displ. norm   :     0.4355864 α      lambda       -0.7239153E-03
   maximum displ.:     0.2139592 α      in ANC's #2, #3, #1, ...

........................................................................
.............................. CYCLE   30 ..............................
........................................................................
   1    -84.3012380 -0.843012E+02  0.175E-01    0.13       0.0  T
   2    -83.9696329  0.331605E+00  0.165E+00    0.34       1.0  T
   3    -84.3046467 -0.335014E+00  0.469E-02    0.09       1.0  T
   4    -84.3048324 -0.185779E-03  0.254E-02    0.10       1.0  T
   5    -84.3048869 -0.545075E-04  0.133E-02    0.09       1.2  T
   6    -84.3049071 -0.201129E-04  0.286E-03    0.10       5.4  T
   7    -84.3049080 -0.894674E-06  0.496E-04    0.10      31.1  T
   8    -84.3049080 -0.134883E-07  0.353E-04    0.10      43.8  T
   9    -84.3049080 -0.152548E-07  0.250E-05    0.10     618.3  T
  10    -84.3049080  0.195968E-10  0.257E-05    0.10     599.3  T
     SCC iter.                  ...        0 min,  0.038 sec
     gradient                   ...        0 min,  0.083 sec
 * total energy  :   -83.5838596 Eh     change       -0.3379418E-03 Eh
   gradient norm :     0.0144545 Eh/α   predicted    -0.4306339E-03 (  27.43%)
   displ. norm   :     0.4920864 α      lambda       -0.4743267E-03
   maximum displ.:     0.2208545 α      in ANC's #3, #2, #14, ...

........................................................................
.............................. CYCLE   31 ..............................
........................................................................
   1    -84.2927239 -0.842927E+02  0.240E-01    0.15       0.0  T
   2    -83.9360452  0.356679E+00  0.174E+00    0.48       1.0  T
   3    -84.2975422 -0.361497E+00  0.130E-01    0.08       1.0  T
   4    -84.2992604 -0.171819E-02  0.458E-02    0.11       1.0  T
   5    -84.2994086 -0.148262E-03  0.314E-02    0.09       1.0  T
   6    -84.2994941 -0.854755E-04  0.146E-02    0.10       1.1  T
   7    -84.2995211 -0.269956E-04  0.582E-04    0.10      26.5  T
   8    -84.2995209  0.196971E-06  0.136E-03    0.10      11.3  T
   9    -84.2995211 -0.218542E-06  0.213E-04    0.10      72.3  T
  10    -84.2995211 -0.450949E-08  0.105E-04    0.10     147.4  T
  11    -84.2995211 -0.977522E-09  0.473E-05    0.10     326.5  T
     SCC iter.                  ...        0 min,  0.045 sec
     gradient                   ...        0 min,  0.087 sec
 * total energy  :   -83.5842005 Eh     change       -0.3409341E-03 Eh
   gradient norm :     0.0130017 Eh/α   predicted    -0.2946004E-03 ( -13.59%)
   displ. norm   :     0.3644711 α      lambda       -0.4753442E-03
   maximum displ.:     0.1755228 α      in ANC's #2, #3, #1, ...

........................................................................
.............................. CYCLE   32 ..............................
........................................................................
   1    -84.2963769 -0.842964E+02  0.178E-01    0.13       0.0  T
   2    -83.9452445  0.351132E+00  0.170E+00    0.33       1.0  T
   3    -84.2999886 -0.354744E+00  0.182E-02    0.10       1.0  T
   4    -84.2999971 -0.851728E-05  0.117E-02    0.10       1.3  T
   5    -84.3000114 -0.143232E-04  0.231E-03    0.10       6.7  T
   6    -84.3000045  0.695413E-05  0.792E-03    0.10       1.9  T
   7    -84.3000114 -0.691846E-05  0.159E-03    0.10       9.7  T
   8    -84.3000117 -0.303967E-06  0.132E-04    0.10     117.3  T
   9    -84.3000117 -0.104983E-08  0.770E-05    0.10     200.5  T
     SCC iter.                  ...        0 min,  0.037 sec
     gradient                   ...        0 min,  0.088 sec
 * total energy  :   -83.5845400 Eh     change       -0.3395341E-03 Eh
   gradient norm :     0.0100432 Eh/α   predicted    -0.2692601E-03 ( -20.70%)
   displ. norm   :     0.4518281 α      lambda       -0.4579912E-03
   maximum displ.:     0.2359510 α      in ANC's #2, #3, #1, ...

........................................................................
.............................. CYCLE   33 ..............................
........................................................................
   1    -84.2946789 -0.842947E+02  0.219E-01    0.15       0.0  T
   2    -83.9224057  0.372273E+00  0.177E+00    0.42       1.0  T
   3    -84.2998418 -0.377436E+00  0.561E-02    0.09       1.0  T
   4    -84.3001864 -0.344622E-03  0.559E-03    0.10       2.8  T
   5    -84.3001862  0.234076E-06  0.578E-03    0.10       2.7  T
   6    -84.3001877 -0.150633E-05  0.356E-03    0.10       4.3  T
   7    -84.3001884 -0.769981E-06  0.223E-03    0.10       6.9  T
   8    -84.3001889 -0.503912E-06  0.865E-04    0.10      17.8  T
   9    -84.3001890 -0.896325E-07  0.539E-05    0.10     286.4  T
  10    -84.3001890  0.544929E-09  0.837E-05    0.10     184.4  T
     SCC iter.                  ...        0 min,  0.041 sec
     gradient                   ...        0 min,  0.087 sec
 * total energy  :   -83.5848852 Eh     change       -0.3451834E-03 Eh
   gradient norm :     0.0093132 Eh/α   predicted    -0.2757519E-03 ( -20.11%)
   displ. norm   :     0.4687383 α      lambda       -0.4629958E-03
   maximum displ.:     0.2526654 α      in ANC's #2, #3, #1, ...

........................................................................
.............................. CYCLE   34 ..............................
........................................................................
   1    -84.3018395 -0.843018E+02  0.212E-01    0.15       0.0  T
   2    -83.9197500  0.382089E+00  0.180E+00    0.40       1.0  T
   3    -84.3068560 -0.387106E+00  0.261E-02    0.10       1.0  T
   4    -84.3069217 -0.656814E-04  0.442E-03    0.10       3.5  T
   5    -84.3069221 -0.430459E-06  0.216E-03    0.10       7.1  T
   6    -84.3069187  0.341400E-05  0.550E-03    0.10       2.8  T
   7    -84.3069215 -0.285668E-05  0.221E-03    0.10       7.0  T
   8    -84.3069221 -0.532425E-06  0.601E-04    0.10      25.7  T
   9    -84.3069221 -0.424981E-07  0.233E-05    0.10     662.1  T
  10    -84.3069221  0.134619E-09  0.406E-05    0.10     379.6  T
     SCC iter.                  ...        0 min,  0.041 sec
     gradient                   ...        0 min,  0.087 sec
 * total energy  :   -83.5851953 Eh     change       -0.3100704E-03 Eh
   gradient norm :     0.0092959 Eh/α   predicted    -0.2823727E-03 (  -8.93%)
   displ. norm   :     0.7555600 α      lambda       -0.5218497E-03
   maximum displ.:     0.3876281 α      in ANC's #2, #3, #1, ...

........................................................................
.............................. CYCLE   35 ..............................
........................................................................
   1    -84.2914735 -0.842915E+02  0.284E-01    0.21       0.0  T
   2    -83.8743294  0.417144E+00  0.192E+00    0.53       1.0  T
   3    -84.3003291 -0.426000E+00  0.289E-02    0.10       1.0  T
   4    -84.3003661 -0.369753E-04  0.175E-02    0.10       1.0  T
   5    -84.3003846 -0.185391E-04  0.913E-03    0.11       1.7  T
   6    -84.3003818  0.276996E-05  0.910E-03    0.10       1.7  T
   7    -84.3003880 -0.621715E-05  0.461E-03    0.11       3.3  T
   8    -84.3003896 -0.155089E-05  0.284E-03    0.11       5.4  T
   9    -84.3003905 -0.919392E-06  0.969E-05    0.11     159.2  T
  10    -84.3003905  0.366754E-09  0.101E-04    0.11     152.5  T
     SCC iter.                  ...        0 min,  0.041 sec
     gradient                   ...        0 min,  0.088 sec
 * total energy  :   -83.5855292 Eh     change       -0.3339048E-03 Eh
   gradient norm :     0.0109938 Eh/α   predicted    -0.4098951E-03 (  22.76%)
   displ. norm   :     0.4187089 α      lambda       -0.4545016E-03
   maximum displ.:     0.2310597 α      in ANC's #2, #3, #1, ...

........................................................................
.............................. CYCLE   36 ..............................
........................................................................
   1    -84.3003655 -0.843004E+02  0.178E-01    0.15       0.0  T
   2    -83.8958979  0.404468E+00  0.185E+00    0.31       1.0  T
   3    -84.3038131 -0.407915E+00  0.219E-02    0.11       1.0  T
   4    -84.3038381 -0.250583E-04  0.149E-02    0.11       1.0  T
   5    -84.3038532 -0.151159E-04  0.820E-03    0.11       1.9  T
   6    -84.3038552 -0.191301E-05  0.599E-03    0.11       2.6  T
   7    -84.3038589 -0.371092E-05  0.462E-04    0.11      33.4  T
   8    -84.3038589 -0.198569E-07  0.125E-04    0.11     123.5  T
   9    -84.3038589 -0.254531E-09  0.126E-04    0.11     122.1  T
     SCC iter.                  ...        0 min,  0.037 sec
     gradient                   ...        0 min,  0.087 sec
 * total energy  :   -83.5858022 Eh     change       -0.2730055E-03 Eh
   gradient norm :     0.0104975 Eh/α   predicted    -0.2670974E-03 (  -2.16%)
   displ. norm   :     0.5610776 α      lambda       -0.5850368E-03
   maximum displ.:     0.3024265 α      in ANC's #2, #3, #1, ...

........................................................................
.............................. CYCLE   37 ..............................
........................................................................
   1    -84.3018192 -0.843018E+02  0.201E-01    0.17       0.0  T
   2    -83.8763803  0.425439E+00  0.191E+00    0.35       1.0  T
   3    -84.3060836 -0.429703E+00  0.276E-02    0.12       1.0  T
   4    -84.3061247 -0.410896E-04  0.196E-02    0.11       1.0  T
   5    -84.3061507 -0.260076E-04  0.101E-02    0.11       1.5  T
   6    -84.3061543 -0.354734E-05  0.687E-03    0.11       2.2  T
   7    -84.3061591 -0.483453E-05  0.486E-04    0.11      31.8  T
   8    -84.3061591 -0.126159E-07  0.314E-04    0.11      49.2  T
   9    -84.3061591 -0.943012E-08  0.141E-04    0.11     109.4  T
  10    -84.3061591 -0.153865E-08  0.608E-05    0.11     253.7  T
     SCC iter.                  ...        0 min,  0.041 sec
     gradient                   ...        0 min,  0.087 sec
 * total energy  :   -83.5861116 Eh     change       -0.3094338E-03 Eh
   gradient norm :     0.0110072 Eh/α   predicted    -0.3846161E-03 (  24.30%)
   displ. norm   :     0.4392840 α      lambda       -0.4313377E-03
   maximum displ.:     0.2443520 α      in ANC's #2, #3, #1, ...

........................................................................
.............................. CYCLE   38 ..............................
........................................................................
   1    -84.3053237 -0.843053E+02  0.149E-01    0.15       0.0  T
   2    -83.8911939  0.414130E+00  0.187E+00    0.24       1.0  T
   3    -84.3075855 -0.416392E+00  0.364E-02    0.12       1.0  T
   4    -84.3077293 -0.143749E-03  0.748E-03    0.11       2.1  T
   5    -84.3077195  0.977628E-05  0.116E-02    0.11       1.3  T
   6    -84.3077265 -0.701102E-05  0.721E-03    0.11       2.1  T
   7    -84.3077319 -0.538195E-05  0.105E-03    0.11      14.7  T
   8    -84.3077320 -0.112185E-06  0.125E-04    0.11     123.4  T
   9    -84.3077320 -0.128328E-08  0.353E-05    0.11     437.4  T
     SCC iter.                  ...        0 min,  0.037 sec
     gradient                   ...        0 min,  0.088 sec
 * total energy  :   -83.5863367 Eh     change       -0.2250496E-03 Eh
   gradient norm :     0.0096109 Eh/α   predicted    -0.2572962E-03 (  14.33%)
   displ. norm   :     0.5123814 α      lambda       -0.3436016E-03
   maximum displ.:     0.2868043 α      in ANC's #2, #3, #1, ...

........................................................................
.............................. CYCLE   39 ..............................
........................................................................
   1    -84.3001235 -0.843001E+02  0.174E-01    0.16       0.0  T
   2    -83.8589616  0.441162E+00  0.195E+00    0.29       1.0  T
   3    -84.3032627 -0.444301E+00  0.318E-02    0.12       1.0  T
   4    -84.3033637 -0.100952E-03  0.121E-02    0.11       1.3  T
   5    -84.3033549  0.872458E-05  0.146E-02    0.11       1.1  T
   6    -84.3033703 -0.153532E-04  0.669E-03    0.11       2.3  T
   7    -84.3033748 -0.448418E-05  0.631E-04    0.11      24.5  T
   8    -84.3033748 -0.323785E-07  0.133E-04    0.11     115.9  T
   9    -84.3033748 -0.139309E-08  0.643E-05    0.11     239.8  T
     SCC iter.                  ...        0 min,  0.038 sec
     gradient                   ...        0 min,  0.088 sec
 * total energy  :   -83.5865382 Eh     change       -0.2015070E-03 Eh
   gradient norm :     0.0077599 Eh/α   predicted    -0.2169134E-03 (   7.65%)
   displ. norm   :     0.2584006 α      lambda       -0.4413917E-03
   maximum displ.:     0.1410031 α      in ANC's #2, #3, #1, ...

........................................................................
.............................. CYCLE   40 ..............................
........................................................................
   1    -84.3124157 -0.843124E+02  0.848E-02    0.10       0.0  T
   2    -84.3023244  0.100913E-01  0.339E-01    0.30       1.0  T
   3    -84.3118622 -0.953781E-02  0.113E-01    0.14       1.0  T
   4    -84.3126484 -0.786232E-03  0.702E-02    0.10       1.0  T
   5    -84.3127491 -0.100667E-03  0.640E-02    0.13       1.0  T
   6    -84.3131729 -0.423750E-03  0.767E-03    0.11       2.0  T
   7    -84.3131784 -0.551550E-05  0.254E-03    0.11       6.1  T
   8    -84.3131790 -0.664658E-06  0.351E-04    0.11      44.0  T
   9    -84.3131790 -0.110333E-07  0.106E-04    0.11     144.9  T
  10    -84.3131790 -0.118820E-08  0.231E-05    0.11     668.1  T
     SCC iter.                  ...        0 min,  0.042 sec
     gradient                   ...        0 min,  0.088 sec
 * total energy  :   -83.5864294 Eh     change        0.1088124E-03 Eh
   gradient norm :     0.0161890 Eh/α   predicted    -0.2354356E-03 (-316.37%)
   displ. norm   :     0.3257394 α      lambda       -0.6757037E-03
   maximum displ.:     0.1662839 α      in ANC's #3, #2, #1, ...

........................................................................
.............................. CYCLE   41 ..............................
........................................................................
   1    -84.3036272 -0.843036E+02  0.155E-01    0.16       0.0  T
   2    -83.8636482  0.439979E+00  0.194E+00    0.24       1.0  T
   3    -84.3058411 -0.442193E+00  0.511E-02    0.13       1.0  T
   4    -84.3061209 -0.279770E-03  0.702E-03    0.11       2.2  T
   5    -84.3061040  0.168476E-04  0.136E-02    0.11       1.1  T
   6    -84.3061179 -0.138315E-04  0.623E-03    0.11       2.5  T
   7    -84.3061219 -0.406554E-05  0.400E-04    0.11      38.5  T
   8    -84.3061220 -0.104553E-07  0.195E-04    0.11      79.2  T
   9    -84.3061220 -0.360671E-08  0.355E-05    0.11     434.4  T
     SCC iter.                  ...        0 min,  0.037 sec
     gradient                   ...        0 min,  0.088 sec
 * total energy  :   -83.5867922 Eh     change       -0.3628443E-03 Eh
   gradient norm :     0.0080684 Eh/α   predicted    -0.3737016E-03 (   2.99%)
   displ. norm   :     0.3936289 α      lambda       -0.1805792E-03
   maximum displ.:     0.2251039 α      in ANC's #2, #3, #1, ...

........................................................................
.............................. CYCLE   42 ..............................
........................................................................
   1    -84.3045010 -0.843045E+02  0.125E-01    0.15       0.0  T
   2    -83.8851862  0.419315E+00  0.189E+00    0.18       1.0  T
   3    -84.3060306 -0.420844E+00  0.369E-02    0.12       1.0  T
   4    -84.3061746 -0.144039E-03  0.532E-03    0.12       2.9  T
   5    -84.3061704  0.421112E-05  0.870E-03    0.11       1.8  T
   6    -84.3061661  0.432591E-05  0.103E-02    0.11       1.5  T
   7    -84.3061761 -0.997222E-05  0.318E-03    0.12       4.9  T
   8    -84.3061771 -0.104169E-05  0.188E-04    0.12      82.2  T
   9    -84.3061771 -0.212620E-08  0.121E-04    0.12     127.9  T
  10    -84.3061771  0.322615E-09  0.129E-04    0.12     119.4  T
     SCC iter.                  ...        0 min,  0.043 sec
     gradient                   ...        0 min,  0.088 sec
 * total energy  :   -83.5868810 Eh     change       -0.8882510E-04 Eh
   gradient norm :     0.0053132 Eh/α   predicted    -0.1042827E-03 (  17.40%)
   displ. norm   :     0.3764406 α      lambda       -0.1348067E-03
   maximum displ.:     0.2264525 α      in ANC's #2, #3, #1, ...
 * RMSD in coord.:     1.2547085 α      energy gain  -0.5288766E-02 Eh

generating ANC from model Hessian ...
Using Lindh-Hessian (1995)
 Shifting diagonal of input Hessian by   9.824087538021387E-003
 Lowest  eigenvalues of input Hessian
    0.000000    0.000000    0.000000    0.000000    0.000000    0.000000
    0.010000    0.010167    0.010716    0.010962    0.011580    0.012118
    0.013074    0.013663    0.014429    0.015127    0.015301    0.017282
 Highest eigenvalues
    2.004481    2.094827    2.109846    2.249534    2.266777    2.369108
 

........................................................................
.............................. CYCLE   43 ..............................
........................................................................
   1    -84.3037622 -0.843038E+02  0.106E-01    0.15       0.0  T
   2    -83.9275691  0.376193E+00  0.180E+00    0.14       1.0  T
   3    -84.3047281 -0.377159E+00  0.423E-02    0.13       1.0  T
   4    -84.3049150 -0.186927E-03  0.833E-03    0.12       1.9  T
   5    -84.3049216 -0.656287E-05  0.394E-03    0.12       3.9  T
   6    -84.3049120  0.959056E-05  0.102E-02    0.12       1.5  T
   7    -84.3049213 -0.932862E-05  0.364E-03    0.12       4.2  T
   8    -84.3049227 -0.136876E-05  0.176E-04    0.12      87.5  T
   9    -84.3049227 -0.464738E-09  0.164E-04    0.12      94.1  T
  10    -84.3049227  0.192796E-08  0.211E-04    0.12      73.1  T
  11    -84.3049227 -0.459949E-08  0.877E-06    0.12    1760.0  T
     SCC iter.                  ...        0 min,  0.045 sec
     gradient                   ...        0 min,  0.087 sec
 * total energy  :   -83.5869626 Eh     change       -0.8155585E-04 Eh
   gradient norm :     0.0058898 Eh/α   predicted     0.0000000E+00 (-100.00%)
   displ. norm   :     0.0437590 α      lambda       -0.7611234E-04
   maximum displ.:     0.0216251 α      in ANC's #5, #15, #18, ...

........................................................................
.............................. CYCLE   44 ..............................
........................................................................
   1    -84.3078482 -0.843078E+02  0.612E-03    0.12       0.0  T
   2    -84.3078280  0.202440E-04  0.149E-02    0.12       1.0  T
   3    -84.3078267  0.127080E-05  0.149E-02    0.11       1.0  T
   4    -84.3078492 -0.224606E-04  0.267E-03    0.12       5.8  T
   5    -84.3078497 -0.484134E-06  0.581E-04    0.12      26.5  T
   6    -84.3078496  0.243175E-07  0.632E-04    0.12      24.4  T
   7    -84.3078497 -0.403527E-07  0.552E-05    0.12     279.3  T
   8    -84.3078497 -0.283706E-09  0.119E-05    0.12    1298.1  T
     SCC iter.                  ...        0 min,  0.063 sec
     gradient                   ...        0 min,  0.127 sec
 * total energy  :   -83.5870212 Eh     change       -0.5863616E-04 Eh
   gradient norm :     0.0015717 Eh/α   predicted    -0.4212877E-04 ( -28.15%)
   displ. norm   :     0.1099668 α      lambda       -0.5043232E-04
   maximum displ.:     0.0608507 α      in ANC's #5, #15, #18, ...

........................................................................
.............................. CYCLE   45 ..............................
........................................................................
   1    -84.3104878 -0.843105E+02  0.654E-03    0.12       0.0  T
   2    -84.3104726  0.152023E-04  0.129E-02    0.12       1.2  T
   3    -84.3104491  0.235204E-04  0.199E-02    0.12       1.0  T
   4    -84.3104894 -0.403112E-04  0.158E-03    0.12       9.8  T
   5    -84.3104894  0.493421E-07  0.973E-04    0.12      15.9  T
   6    -84.3104894 -0.435738E-07  0.552E-04    0.12      28.0  T
   7    -84.3104894 -0.304465E-07  0.721E-05    0.12     214.1  T
   8    -84.3104894 -0.495135E-09  0.124E-05    0.12    1241.1  T
     SCC iter.                  ...        0 min,  0.032 sec
     gradient                   ...        0 min,  0.084 sec
 * total energy  :   -83.5870649 Eh     change       -0.4367814E-04 Eh
   gradient norm :     0.0030699 Eh/α   predicted    -0.2535515E-04 ( -41.95%)
   displ. norm   :     0.0697494 α      lambda       -0.3123328E-04
   maximum displ.:     0.0410162 α      in ANC's #5, #2, #3, ...

........................................................................
.............................. CYCLE   46 ..............................
........................................................................
   1    -84.3100427 -0.843100E+02  0.335E-03    0.12       0.0  T
   2    -84.3099618  0.808721E-04  0.281E-02    0.11       1.0  T
   3    -84.3100436 -0.817447E-04  0.953E-04    0.12      16.2  T
   4    -84.3100436  0.351748E-08  0.800E-04    0.12      19.3  T
   5    -84.3100436 -0.162428E-07  0.492E-04    0.12      31.3  T
   6    -84.3100436 -0.218448E-07  0.487E-05    0.12     317.0  T
   7    -84.3100436 -0.179980E-09  0.108E-05    0.12    1430.3  T
     SCC iter.                  ...        0 min,  0.028 sec
     gradient                   ...        0 min,  0.084 sec
 * total energy  :   -83.5870910 Eh     change       -0.2611108E-04 Eh
   gradient norm :     0.0023663 Eh/α   predicted    -0.1569303E-04 ( -39.90%)
   displ. norm   :     0.1560624 α      lambda       -0.5742593E-04
   maximum displ.:     0.0889657 α      in ANC's #5, #2, #3, ...

........................................................................
.............................. CYCLE   47 ..............................
........................................................................
   1    -84.3083744 -0.843084E+02  0.111E-02    0.12       0.0  T
   2    -84.3066843  0.169009E-02  0.128E-01    0.10       1.0  T
   3    -84.3083855 -0.170125E-02  0.442E-03    0.12       3.5  T
   4    -84.3083861 -0.560698E-06  0.329E-03    0.12       4.7  T
   5    -84.3083868 -0.716278E-06  0.132E-03    0.12      11.7  T
   6    -84.3083870 -0.167871E-06  0.103E-04    0.12     150.5  T
   7    -84.3083870 -0.705214E-09  0.296E-05    0.12     520.6  T
     SCC iter.                  ...        0 min,  0.028 sec
     gradient                   ...        0 min,  0.084 sec
 * total energy  :   -83.5871267 Eh     change       -0.3563988E-04 Eh
   gradient norm :     0.0015854 Eh/α   predicted    -0.2941703E-04 ( -17.46%)
   displ. norm   :     0.1034009 α      lambda       -0.1507053E-04
   maximum displ.:     0.0592737 α      in ANC's #5, #2, #3, ...

........................................................................
.............................. CYCLE   48 ..............................
........................................................................
   1    -84.3078705 -0.843079E+02  0.121E-02    0.12       0.0  T
   2    -84.3054751  0.239542E-02  0.152E-01    0.09       1.0  T
   3    -84.3078858 -0.241072E-02  0.372E-03    0.12       4.1  T
   4    -84.3078864 -0.553823E-06  0.268E-03    0.12       5.8  T
   5    -84.3078868 -0.474973E-06  0.132E-03    0.12      11.7  T
   6    -84.3078870 -0.159533E-06  0.241E-04    0.12      64.0  T
   7    -84.3078870 -0.589634E-08  0.141E-05    0.12    1095.6  T
   8    -84.3078870 -0.258638E-11  0.620E-06    0.12    2487.2  T
     SCC iter.                  ...        0 min,  0.032 sec
     gradient                   ...        0 min,  0.083 sec
 * total energy  :   -83.5871419 Eh     change       -0.1520765E-04 Eh
   gradient norm :     0.0014221 Eh/α   predicted    -0.7578763E-05 ( -50.16%)
   displ. norm   :     0.0816099 α      lambda       -0.1483074E-04
   maximum displ.:     0.0497222 α      in ANC's #2, #5, #3, ...

[...]
O23-C18=1.3603       O23-C21=1.3465       N24-C5=1.4554        N24-C11=1.4493       N24-C25=1.4737       C25-N24=1.4737       
C25-H40=1.0928       C25-H41=1.1005       C25-H42=1.0914       H26-C1=1.0908        H27-C1=1.0972        H28-C1=1.0969        
H29-N10=1.0084       H30-C13=1.0906       H31-C13=1.0897       H32-C13=1.0908       H33-C14=1.0897       H34-C14=1.0912       
H35-C14=1.0903       H36-N15=1.0109       H37-C22=1.0870       H38-C22=1.0899       H39-C22=1.0897       H40-C25=1.0928       
H41-C25=1.1005       H42-C25=1.0914       
 C  H  Rav=1.0919 sigma=0.0034  Rmin=1.0870  Rmax=1.1005    15
 C  C  Rav=1.4911 sigma=0.0492  Rmin=1.4126  Rmax=1.5441     8
 N  H  Rav=1.0096 sigma=0.0013  Rmin=1.0084  Rmax=1.0109     2
 N  C  Rav=1.4008 sigma=0.0696  Rmin=1.2947  Rmax=1.4821     9
 N  N  Rav=1.3673 sigma=0.0000  Rmin=1.3673  Rmax=1.3673     1
 O  C  Rav=1.3114 sigma=0.0714  Rmin=1.2339  Rmax=1.4130     8
 
 selected bond angles (degree)
 --------------------
H26-C1-O2=107.38               H27-C1-O2=111.39               H27-C1-H26=109.21              H28-C1-O2=111.28               
H28-C1-H26=109.18              H28-C1-H27=108.36              C3-O2-C1=115.13                O4-C3-O2=118.40                
C5-C3-O2=112.78                C5-C3-O4=128.81                C6-C5-C3=123.57                N24-C5-C3=116.57               
N24-C5-C6=119.85               O7-C6-C5=126.37                C8-C6-C5=115.07                C8-C6-O7=118.46                
O9-C8-C6=123.50                N10-C8-C6=115.56               N10-C8-O9=120.81               C11-N10-C8=125.66              
H29-N10-C8=115.41              H29-N10-C11=116.11             
 
 selected dihedral angles (degree)
 ---------------------------------
C3-O2-C1-H26=177.16           C3-O2-C1-H27=296.69           C3-O2-C1-H28= 57.74           O4-C3-O2-C1=  0.36            
C5-C3-O2-C1=180.88            C6-C5-C3-O2=181.42            C6-C5-C3-O4=  2.01            N24-C5-C3-O2=  2.78           
N24-C5-C3-O4=183.37           O7-C6-C5-C3=  1.13            O7-C6-C5-N24=179.72           C8-C6-C5-C3=177.57            
C8-C6-C5-N24=356.16           O9-C8-C6-C5=158.65            O9-C8-C6-O7=335.39            N10-C8-C6-C5=334.65           
N10-C8-C6-O7=151.39           C11-N10-C8-C6= 23.09          C11-N10-C8-O9=199.21          H29-N10-C8-C6=183.27          
H29-N10-C8-O9=359.39          
           -------------------------------------------------
          |                Final Singlepoint                |
           -------------------------------------------------

          ...................................................
          :                      SETUP                      :
          :.................................................:
          :  # basis functions                 134          :
          :  # atomic orbitals                 134          :
          :  # shells                           84          :
          :  # electrons                       136          :
          :  # halogen bonds                     0          :
          :  max. iterations                   250          :
          :  Hamiltonian                  GFN1-xTB          :
          :  restarted?                      false          :
          :  GBSA solvation                   true          :
          :  PC potential                    false          :
          :  electronic temp.          300.0000000     K    :
          :  accuracy                    1.0000000          :
          :  -> integral cutoff          0.2500000E+02      :
          :  -> integral neglect         0.1000000E-07      :
          :  -> SCF convergence          0.1000000E-05 Eh   :
          :  -> wf. convergence          0.2000000E-04 e    :
          :  Broyden damping             0.4000000          :
          ...................................................

 iter      E             dE          RMSdq      gap      omega  full diag
   1    -84.3084956 -0.843085E+02  0.537E-06    0.12       0.0  T
   2    -84.3084956  0.215437E-09  0.462E-05    0.12     333.9  T
   3    -84.3084956 -0.217256E-09  0.217E-06    0.12    7112.7  T

   *** convergence criteria satisfied after 3 iterations ***

         #    Occupation            Energy/Eh            Energy/eV
      -------------------------------------------------------------
         1        2.0000           -0.8322151             -22.6457
       ...           ...                  ...                  ...
        62        2.0000           -0.4043987             -11.0042
        63        2.0000           -0.4022121             -10.9447
        64        2.0000           -0.3844292             -10.4608
        65        2.0000           -0.3570498              -9.7158
        66        2.0000           -0.3395414              -9.2394
        67        2.0000           -0.3190987              -8.6831
        68        1.8328           -0.2835181              -7.7149 (HOMO)
        69        0.1672           -0.2789679              -7.5911 (LUMO)
        70                         -0.2324646              -6.3257
        71                         -0.2271800              -6.1819
        72                         -0.1625279              -4.4226
        73                         -0.1618863              -4.4052
       ...                                ...                  ...
       134                          0.7689884              20.9252
      -------------------------------------------------------------
                  HL-Gap            0.0045502 Eh            0.1238 eV
             Fermi-level           -0.2812430 Eh           -7.6530 eV

 SCC (total)                   0 d,  0 h,  0 min,  0.136 sec
 SCC setup                      ...        0 min,  0.002 sec (  1.478%)
 Dispersion                     ...        0 min,  0.000 sec (  0.282%)
 classical contributions        ...        0 min,  0.000 sec (  0.085%)
 integral evaluation            ...        0 min,  0.036 sec ( 26.504%)
 iterations                     ...        0 min,  0.013 sec (  9.420%)
 molecular gradient             ...        0 min,  0.083 sec ( 61.112%)
 printout                       ...        0 min,  0.001 sec (  1.064%)

         :::::::::::::::::::::::::::::::::::::::::::::::::::::
         ::                     SUMMARY                     ::
         :::::::::::::::::::::::::::::::::::::::::::::::::::::
         :: total energy             -83.587266183670 Eh    ::
         :: total w/o Gsasa/hb       -83.568679609497 Eh    ::
         :: gradient norm              0.000470633905 Eh/a0 ::
         :: HOMO-LUMO gap              0.123817168621 eV    ::
         ::.................................................::
         :: SCC energy               -84.308495626410 Eh    ::
         :: -> electrostatic           0.685785605809 Eh    ::
         :: -> Gsolv                  -0.276959792693 Eh    ::
         ::    -> Gelec               -0.258373218520 Eh    ::
         ::    -> Gsasa               -0.023143418607 Eh    ::
         ::    -> Ghb                 -0.003067434570 Eh    ::
         ::    -> Gshift               0.007624279005 Eh    ::
         :: repulsion energy           0.748672653899 Eh    ::
         :: dispersion energy         -0.027443211159 Eh    ::
         :: halogen bond corr.         0.000000000000 Eh    ::
         :: add. restraining           0.000000000000 Eh    ::
         :: total charge              -2.000000000000 e     ::
         :::::::::::::::::::::::::::::::::::::::::::::::::::::

           -------------------------------------------------
          |                Property Printout                |
           -------------------------------------------------

    * Orbital Energies and Occupations

         #    Occupation            Energy/Eh            Energy/eV
      -------------------------------------------------------------
         1        2.0000           -0.8322151             -22.6457
       ...           ...                  ...                  ...
        56        2.0000           -0.4405255             -11.9873
        57        2.0000           -0.4379334             -11.9168
        58        2.0000           -0.4297367             -11.6937
        59        2.0000           -0.4293465             -11.6831
        60        2.0000           -0.4152597             -11.2998
        61        2.0000           -0.4143891             -11.2761
        62        2.0000           -0.4043987             -11.0042
        63        2.0000           -0.4022121             -10.9447
        64        2.0000           -0.3844292             -10.4608
        65        2.0000           -0.3570498              -9.7158
        66        2.0000           -0.3395414              -9.2394
        67        2.0000           -0.3190987              -8.6831
        68        1.8328           -0.2835181              -7.7149 (HOMO)
        69        0.1672           -0.2789679              -7.5911 (LUMO)
        70                         -0.2324646              -6.3257
        71                         -0.2271800              -6.1819
        72                         -0.1625279              -4.4226
        73                         -0.1618863              -4.4052
        74                         -0.1330362              -3.6201
        75                         -0.1095974              -2.9823
        76                         -0.1004553              -2.7335
        77                         -0.0864151              -2.3515
        78                         -0.0857813              -2.3342
        79                         -0.0791393              -2.1535
       ...                                ...                  ...
       134                          0.7689884              20.9252
      -------------------------------------------------------------
                  HL-Gap            0.0045502 Eh            0.1238 eV
             Fermi-level           -0.2812430 Eh           -7.6530 eV

  Mulliken/CM5 charges         n(s)   n(p)   n(d)
     1C     0.18179  0.06347   0.964  2.855  0.000
     2O    -0.46835 -0.55176   1.699  4.769  0.000
     3C     0.51478  0.57434   0.982  2.503  0.000
     4O    -0.65973 -0.70420   1.740  4.919  0.000
     5C    -0.07830 -0.01696   1.045  3.033  0.000
     6C     0.28243  0.32582   1.039  2.679  0.000
     7O    -0.67301 -0.71041   1.753  4.920  0.000
     8C     0.39586  0.50067   1.004  2.600  0.000
     9O    -0.68654 -0.72266   1.749  4.937  0.000
    10N    -0.32987 -0.67207   1.443  3.887  0.000
    11C    -0.04989  0.05967   1.119  2.931  0.000
    12C     0.16377  0.20189   1.071  2.765  0.000
    13C    -0.09182 -0.22977   1.012  3.080  0.000
    14C    -0.08780 -0.22592   1.010  3.077  0.000
    15N    -0.34498 -0.69267   1.439  3.906  0.000
    16C     0.43543  0.54272   0.972  2.593  0.000
    17O    -0.62572 -0.66913   1.735  4.891  0.000
    18C     0.30934  0.43114   1.012  2.678  0.000
    19N    -0.28380 -0.39142   1.574  3.710  0.000
    20N    -0.28669 -0.39467   1.568  3.719  0.000
    21C     0.37378  0.48271   1.000  2.626  0.000
    22C    -0.11066 -0.24806   1.010  3.101  0.000
    23O    -0.36522 -0.41565   1.698  4.667  0.000
    24N    -0.32267 -0.55513   1.482  3.841  0.000
    25C     0.05949 -0.02751   0.986  2.955  0.000
    26H     0.01709  0.07720   0.983  0.000  0.000
    27H     0.01740  0.07848   0.983  0.000  0.000
    28H     0.01907  0.08087   0.981  0.000  0.000
    29H     0.20610  0.40755   0.794  0.000  0.000
    30H     0.01584  0.07340   0.984  0.000  0.000
    31H     0.02085  0.08054   0.979  0.000  0.000
    32H     0.01267  0.07204   0.987  0.000  0.000
    33H     0.01904  0.07757   0.981  0.000  0.000
    34H     0.02130  0.08206   0.979  0.000  0.000
    35H     0.01008  0.06713   0.990  0.000  0.000
    36H     0.21544  0.42273   0.785  0.000  0.000
    37H     0.05851  0.11441   0.941  0.000  0.000
    38H     0.06674  0.12108   0.933  0.000  0.000
    39H     0.06633  0.12084   0.934  0.000  0.000
    40H    -0.00133  0.06230   1.001  0.000  0.000
    41H    -0.00773  0.05384   1.008  0.000  0.000
    42H    -0.00900  0.05353   1.009  0.000  0.000

Wiberg/Mayer (AO) data.
largest (>0.10) Wiberg bond orders for each atom

 ---------------------------------------------------------------------------
     #   Z sym  total        # sym  WBO       # sym  WBO       # sym  WBO
 ---------------------------------------------------------------------------
     1   6 C    3.917 --    26 H    0.987    27 H    0.980    28 H    0.980
                             2 O    0.947
     2   8 O    2.101 --     3 C    0.957     1 C    0.947
     3   6 C    3.851 --     4 O    1.520     5 C    1.243     2 O    0.957
     4   8 O    1.819 --     3 C    1.520
     5   6 C    3.889 --     6 C    1.309     3 C    1.243    24 N    0.970
                             7 O    0.128
     6   6 C    3.933 --     7 O    1.486     5 C    1.309     8 C    0.949
     7   8 O    1.784 --     6 C    1.486     5 C    0.128
     8   6 C    3.878 --     9 O    1.478    10 N    1.272     6 C    0.949
     9   8 O    1.753 --     8 C    1.478    10 N    0.154
    10   7 N    3.377 --     8 C    1.272    11 C    0.945    29 H    0.918
                             9 O    0.154
    11   6 C    3.253 --    24 N    0.971    12 C    0.962    10 N    0.945
    12   6 C    3.897 --    14 C    0.993    13 C    0.981    11 C    0.962
                            15 N    0.892
    13   6 C    3.988 --    32 H    0.986    30 H    0.985    31 H    0.983
                            12 C    0.981
    14   6 C    3.995 --    12 C    0.993    35 H    0.987    33 H    0.986
                            34 H    0.982
    15   7 N    3.318 --    16 C    1.256    36 H    0.908    12 C    0.892
                            17 O    0.167
    16   6 C    3.877 --    17 O    1.512    15 N    1.256    18 C    1.025
    17   8 O    1.811 --    16 C    1.512    15 N    0.167
    18   6 C    3.791 --    19 N    1.538    23 O    1.027    16 C    1.025
    19   7 N    2.917 --    18 C    1.538    20 N    1.185
    20   7 N    2.980 --    21 C    1.624    19 N    1.185
    21   6 C    3.853 --    20 N    1.624    23 O    1.069    22 C    1.027
    22   6 C    3.991 --    21 C    1.027    37 H    0.984    39 H    0.969
                            38 H    0.967
    23   8 O    2.266 --    21 C    1.069    18 C    1.027
    24   7 N    3.061 --    11 C    0.971     5 C    0.970    25 C    0.969
    25   6 C    3.982 --    42 H    0.989    40 H    0.988    41 H    0.982
                            24 N    0.969
    26   1 H    1.019 --     1 C    0.987
    27   1 H    1.019 --     1 C    0.980
    28   1 H    1.020 --     1 C    0.980
    29   1 H    0.981 --    10 N    0.918
    30   1 H    1.018 --    13 C    0.985
    31   1 H    1.018 --    13 C    0.983
    32   1 H    1.015 --    13 C    0.986
    33   1 H    1.014 --    14 C    0.986
    34   1 H    1.032 --    14 C    0.982
    35   1 H    1.016 --    14 C    0.987
    36   1 H    0.985 --    15 N    0.908
    37   1 H    1.001 --    22 C    0.984
    38   1 H    0.999 --    22 C    0.967
    39   1 H    0.999 --    22 C    0.969
    40   1 H    1.026 --    25 C    0.988
    41   1 H    1.013 --    25 C    0.982
    42   1 H    1.036 --    25 C    0.989
 ---------------------------------------------------------------------------

Topologies differ in total number of bonds
Writing topology from bond orders to xtbtopo.mol

 dipole moment from electron density (au)
     X       Y       Z   
  -8.3801  -1.6117  -5.7212  total (Debye):   26.114

           -------------------------------------------------
          |                Geometry Summary                 |
           -------------------------------------------------

      molecular mass/u    :      351.3152409
   center of mass at/Å    :        0.0349262       0.0193574       0.3601464
  moments of inertia/u·Å² :        0.1068091E+04   0.4889410E+04   0.5391428E+04
rotational constants/cm⁻¹ :        0.1578296E-01   0.3447784E-02   0.3126747E-02

 * 31 selected distances

     #   Z          #   Z                                           value/Å
     1   6 C        2   8 O                                       1.4129922
     3   6 C        4   8 O                                       1.2338992
     3   6 C        5   6 C                                       1.4213430
     5   6 C        6   6 C                                       1.4126170
     8   6 C       10   7 N                                       1.3475227
    12   6 C       14   6 C                                       1.5357004 (max)
    15   7 N       16   6 C                                       1.3491642
    16   6 C       17   8 O                                       1.2346191
    18   6 C       19   7 N                                       1.3121444
    20   7 N       21   6 C                                       1.2947089
    21   6 C       22   6 C                                       1.4815376
    18   6 C       23   8 O                                       1.3602840
    21   6 C       23   8 O                                       1.3465101
    24   7 N       25   6 C                                       1.4736782
     1   6 C       26   1 H                                       1.0907510
     1   6 C       27   1 H                                       1.0972439
     1   6 C       28   1 H                                       1.0969102
    10   7 N       29   1 H                                       1.0083918 (min)
    13   6 C       30   1 H                                       1.0906341
    13   6 C       31   1 H                                       1.0896971
    13   6 C       32   1 H                                       1.0908126
    14   6 C       33   1 H                                       1.0896756
    14   6 C       34   1 H                                       1.0911560
    14   6 C       35   1 H                                       1.0902929
    15   7 N       36   1 H                                       1.0108919
    22   6 C       37   1 H                                       1.0870483
    22   6 C       38   1 H                                       1.0899303
    22   6 C       39   1 H                                       1.0896971
    25   6 C       40   1 H                                       1.0927649
    25   6 C       41   1 H                                       1.1004585
    25   6 C       42   1 H                                       1.0913730

 * 5 distinct bonds (by element types)

   Z      Z             #   av. dist./Å        max./Å        min./Å
   1 H    6 C          15     1.0918964     1.1004585     1.0870483
   6 C    6 C           4     1.4627995     1.5357004     1.4126170
   1 H    7 N           2     1.0096418     1.0108919     1.0083918
   6 C    7 N           5     1.3554437     1.4736782     1.2947089
   6 C    8 O           5     1.3176609     1.4129922     1.2338992


optimized geometry written to: xtbopt.xyz


           -------------------------------------------------
          | TOTAL ENERGY              -83.587266183670 Eh   |
          | GRADIENT NORM               0.000470633905 Eh/α |
          | HOMO-LUMO GAP               0.123817168621 eV   |
           -------------------------------------------------

------------------------------------------------------------------------
 * finished run on 2023/06/21 at 17:12:15.407     
------------------------------------------------------------------------
 total:
 * wall-time:     0 d,  0 h,  0 min, 10.575 sec
 *  cpu-time:     0 d,  0 h,  0 min, 10.317 sec
 * ratio c/w:     0.976 speedup
 SCF:
 * wall-time:     0 d,  0 h,  0 min,  0.215 sec
 *  cpu-time:     0 d,  0 h,  0 min,  0.191 sec
 * ratio c/w:     0.892 speedup
 ANC optimizer:
 * wall-time:     0 d,  0 h,  0 min, 10.196 sec
 *  cpu-time:     0 d,  0 h,  0 min, 10.074 sec
 * ratio c/w:     0.988 speedup

