16
 energy: -33.370213827816 gnorm: 0.000442364217 xtb: 6.5.1 (579679a)
C           -1.37369373789090        1.30626151879076        0.31084049014936
C           -0.64284779274508        0.01552240315646       -0.09577176567233
C           -1.43049845645417       -1.24249389775587        0.30651807758247
N           -0.34235111289270        0.01343938101921       -1.47882315333740
N            0.90401931240981       -0.01234521516964       -1.66113092388883
C            1.49661135536831       -0.02914607533586       -0.42006247872539
C            3.00252127626379       -0.06242765797000       -0.19459095991085
O            3.74551852990095       -0.01833003122377       -1.12318651908715
Cl           3.44680999311824       -0.16970795019436        1.42969226919160
O            0.64357028342641       -0.01437287081511        0.51454766268161
H           -2.33336762638514        1.33665125823236       -0.19941930473868
H           -0.76772261384050        2.16321570237027        0.02481095320326
H           -1.51918518355032        1.29576044264077        1.38831736675001
H           -0.86762970282837       -2.12474741116647        0.00939097835461
H           -2.39431810835204       -1.22375391853167       -0.19633172789589
H           -1.56743741554824       -1.23352567804708        1.38519903534357
