42
 energy: -82.986899252772 gnorm: 0.000600332960 xtb: 6.5.1 (579679a)
C            2.54804224675485        3.68044531053601       -2.32585940964712
O            2.70024046600499        2.43175889740217       -1.65340693314210
C            1.56763665669659        1.77705806592723       -1.36262959857237
O            0.47704078363787        2.23381359552055       -1.65732596370117
C            1.79232140314338        0.49938161944373       -0.68464440038289
N            0.68236234228416       -0.30148562891500       -0.40621385867178
C            0.77539431749289       -1.49429253945020        0.10640925337091
C           -0.50678008118115       -2.26480159776517        0.25458050687579
C           -0.67054922744635       -3.20887986777884       -0.93915290862556
C           -0.59899927914878       -3.00860829666208        1.58558204549107
N           -1.49312893510699       -1.16683403672937        0.23669234146113
C           -2.85167642990773       -1.47303813067203       -0.22574139553023
C           -0.79737707857038        0.04459387621740       -0.83909721729258
O           -1.08363911614269       -0.20636026114196       -1.99679201720381
C           -1.26959746027561        1.26401350700737       -0.09428501589137
N           -2.20034773795477        2.09159762135539       -0.43466306728182
N           -2.38052581156525        2.93342238421103        0.63147645450735
C           -1.56678916286575        2.54662166317394        1.55729376365439
C           -1.38610622564902        3.12282721696551        2.90773456496455
O           -0.83553352144080        1.47827427227697        1.16812727609158
N            1.97006216164209       -2.01539724917010        0.44052934336465
C            3.17779156910531       -1.34061547102032        0.30536692920278
O            4.20507976968688       -1.87438424658240        0.66611895515875
C            3.09349917424732        0.03609304344019       -0.32459399605847
O            4.14669304687107        0.65210873486266       -0.48843097119543
H            2.01853912184792        3.54220172133641       -3.27253269776815
H            1.98840652976217        4.38233293555530       -1.70237397732716
H            3.55118885908225        4.06091556034356       -2.50915272620189
H           -1.58167792212953       -3.79326152570311       -0.83614187315080
H           -0.70071353308660       -2.64305521086797       -1.86988113809795
H            0.17805826857532       -3.89014664353361       -0.96322277797776
H           -1.60140565102173       -3.41334606678230        1.70863726643810
H            0.11093376878783       -3.83300612748334        1.60233016680335
H           -0.38301597147965       -2.33604764198064        2.41391870884191
H           -1.53584258492663       -0.76324960516617        1.16974360718025
H           -2.83259540201763       -1.64455812749772       -1.30101639443502
H           -3.47487281119453       -0.60950728464248       -0.00025326980584
H           -3.22505073964663       -2.34981698504280        0.29603535967611
H           -0.35046233422199        3.42958691893878        3.05238028717442
H           -2.04309901080757        3.98090050357799        3.02820248226630
H           -1.62365560703222        2.37583835390624        3.66424363913291
H            2.01015414920146       -2.93309525741661        0.85239965629778
