      -----------------------------------------------------------      
     |                   =====================                   |     
     |                           x T B                           |     
     |                   =====================                   |     
     |                         S. Grimme                         |     
     |          Mulliken Center for Theoretical Chemistry        |     
     |                    University of Bonn                     |     
      -----------------------------------------------------------      

   * xtb version 6.5.1 (579679a) compiled by 'ehlert@majestix' on 2022-07-11

   xtb is free software: you can redistribute it and/or modify it under
   the terms of the GNU Lesser General Public License as published by
   the Free Software Foundation, either version 3 of the License, or
   (at your option) any later version.
   
   xtb is distributed in the hope that it will be useful,
   but WITHOUT ANY WARRANTY; without even the implied warranty of
   MERCHANTABILITY or FITNESS FOR A PARTICULAR PURPOSE.  See the
   GNU Lesser General Public License for more details.
   
   Cite this work as:
   * C. Bannwarth, E. Caldeweyher, S. Ehlert, A. Hansen, P. Pracht,
     J. Seibert, S. Spicher, S. Grimme, WIREs Comput. Mol. Sci., 2020, 11,
     e01493. DOI: 10.1002/wcms.1493
   
   for GFN2-xTB:
   * C. Bannwarth, S. Ehlert and S. Grimme., J. Chem. Theory Comput., 2019,
     15, 1652-1671. DOI: 10.1021/acs.jctc.8b01176
   for GFN1-xTB:
   * S. Grimme, C. Bannwarth, P. Shushkov, J. Chem. Theory Comput., 2017,
     13, 1989-2009. DOI: 10.1021/acs.jctc.7b00118
   for GFN0-xTB:
   * P. Pracht, E. Caldeweyher, S. Ehlert, S. Grimme, ChemRxiv, 2019, preprint.
     DOI: 10.26434/chemrxiv.8326202.v1
   for GFN-FF:
   * S. Spicher and S. Grimme, Angew. Chem. Int. Ed., 2020, 59, 15665-15673.
     DOI: 10.1002/anie.202004239
   
   for ALPB and GBSA implicit solvation:
   * S. Ehlert, M. Stahn, S. Spicher, S. Grimme, J. Chem. Theory Comput.,
     2021, 17, 4250-4261. DOI: 10.1021/acs.jctc.1c00471
   
   for DFT-D4:
   * E. Caldeweyher, C. Bannwarth and S. Grimme, J. Chem. Phys., 2017,
     147, 034112. DOI: 10.1063/1.4993215
   * E. Caldeweyher, S. Ehlert, A. Hansen, H. Neugebauer, S. Spicher,
     C. Bannwarth and S. Grimme, J. Chem. Phys., 2019, 150, 154122.
     DOI: 10.1063/1.5090222
   * E. Caldeweyher, J.-M. Mewes, S. Ehlert and S. Grimme, Phys. Chem. Chem. Phys.
     2020, 22, 8499-8512. DOI: 10.1039/D0CP00502A
   
   for sTDA-xTB:
   * S. Grimme and C. Bannwarth, J. Chem. Phys., 2016, 145, 054103.
     DOI: 10.1063/1.4959605
   
   in the mass-spec context:
   * V. Asgeirsson, C. Bauer and S. Grimme, Chem. Sci., 2017, 8, 4879.
     DOI: 10.1039/c7sc00601b
   * J. Koopman and S. Grimme, ACS Omega 2019, 4, 12, 15120-15133.
     DOI: 10.1021/acsomega.9b02011
   
   for metadynamics refer to:
   * S. Grimme, J. Chem. Theory Comput., 2019, 155, 2847-2862
     DOI: 10.1021/acs.jctc.9b00143
   
   for SPH calculations refer to:
   * S. Spicher and S. Grimme, J. Chem. Theory Comput., 2021, 17, 1701-1714
     DOI: 10.1021/acs.jctc.0c01306
   
   with help from (in alphabetical order)
   P. Atkinson, C. Bannwarth, F. Bohle, G. Brandenburg, E. Caldeweyher
   M. Checinski, S. Dohm, S. Ehlert, S. Ehrlich, I. Gerasimov, C. Hölzer
   A. Katbashev, J. Koopman, C. Lavigne, S. Lehtola, F. März, M. Müller,
   F. Musil, H. Neugebauer, J. Pisarek, C. Plett, P. Pracht, F. Pultar,
   J. Seibert, P. Shushkov, S. Spicher, M. Stahn, M. Steiner, T. Strunk,
   J. Stückrath, T. Rose, and J. Unsleber
   
 * started run on 2023/06/20 at 15:14:11.810     

           -------------------------------------------------
          |                Calculation Setup                |
           -------------------------------------------------

          program call               : /lustre/hpc/kemi/ree/PhD/git/ReactivityQM/dep/xtb-6.5.1/bin/xtb --gfn 1 /lustre/hpc/kemi/ree/PhD/git/ReactivityQM/calculations/R03/reac01prodN03/conf03/R03_reac01prodN03_conf03_gfn1.xyz --opt --vfukui --chrg 1 --uhf 0 --alpb DMSO
          hostname                   : node068
          coordinate file            : /lustre/hpc/kemi/ree/PhD/git/ReactivityQM/calculations/R03/reac01prodN03/conf03/R03_reac01prodN03_conf03_gfn1.xyz
          omp threads                :                     1

   ID    Z sym.   atoms
    1    6 C      1-4, 6-9
    2    9 F      5
    3    7 N      10
    4    1 H      11-21

           -------------------------------------------------
          |                 G F N 1 - x T B                 |
           -------------------------------------------------

        Reference                      10.1021/acs.jctc.7b00118
      * Hamiltonian:
        H0-scaling (s, p, d)           1.850000    2.250000    2.000000
        zeta-weighting                 0.000000
      * Dispersion:
        s8                             2.400000
        a1                             0.630000
        a2                             5.000000
        s9                             0.000000
      * Repulsion:
        kExp                           1.500000
        rExp                           1.000000
      * Coulomb:
        alpha                          2.000000
        third order                    atomic
        anisotropic                    false
      * Halogen bond correction:
        rad-scale                      1.300000
        damping                        0.440000

      * Solvation model:               ALPB
        Solvent                        DMSO
        Parameter file                 internal GFN1-xTB/ALPB
        Dielectric constant                4.6680E+01
        Reference state                gsolv [1 M gas/solution]
        Free energy shift                  7.6243E-03 Eh       4.7843E+00 kcal/mol
        Temperature                        2.9815E+02 K
        Density                            1.1000E+00 kg/L
        Solvent mass                       7.8130E+01 g/mol
        Interaction kernel             P16
        Born radius scaling (c1)           1.7672E+00
        Born radii integrator          GBOBC
        Born offset                        0.0000E+00 a0       0.0000E+00 AA
        H-bond correction              true
        Ion screening                  false
        Surface tension                    1.0000E-05 Eh       1.5569E+01 dyn/cm
        Grid points                               230 per atom

          ...................................................
          :                      SETUP                      :
          :.................................................:
          :  # basis functions                  62          :
          :  # atomic orbitals                  62          :
          :  # shells                           42          :
          :  # electrons                        54          :
          :  # halogen bonds                     0          :
          :  max. iterations                   250          :
          :  Hamiltonian                  GFN1-xTB          :
          :  restarted?                      false          :
          :  GBSA solvation                   true          :
          :  PC potential                    false          :
          :  electronic temp.          300.0000000     K    :
          :  accuracy                    1.0000000          :
          :  -> integral cutoff          0.2500000E+02      :
          :  -> integral neglect         0.1000000E-07      :
          :  -> SCF convergence          0.1000000E-05 Eh   :
          :  -> wf. convergence          0.2000000E-04 e    :
          :  Broyden damping             0.4000000          :
          ...................................................

 iter      E             dE          RMSdq      gap      omega  full diag
   1    -31.1012600 -0.311013E+02  0.828E+00    1.20       0.0  T
   2    -31.1536722 -0.524122E-01  0.501E+00    0.28       1.0  T
   3    -31.1491943  0.447793E-02  0.801E-01    0.38       1.0  T
   4    -31.1553788 -0.618454E-02  0.182E-01    0.36       1.0  T
   5    -31.1559703 -0.591517E-03  0.626E-02    0.31       1.0  T
   6    -31.1560430 -0.726333E-04  0.252E-02    0.35       1.0  T
   7    -31.1560577 -0.147770E-04  0.504E-03    0.32       4.3  T
   8    -31.1560580 -0.240932E-06  0.203E-03    0.33      10.7  T
   9    -31.1560581 -0.118638E-06  0.562E-04    0.33      38.9  T
  10    -31.1560581 -0.133584E-08  0.161E-04    0.33     135.6  T
  11    -31.1560581 -0.693483E-09  0.325E-05    0.33     670.9  T

   *** convergence criteria satisfied after 11 iterations ***

         #    Occupation            Energy/Eh            Energy/eV
      -------------------------------------------------------------
         1        2.0000           -0.9084330             -24.7197
       ...           ...                  ...                  ...
        21        2.0000           -0.5500246             -14.9669
        22        2.0000           -0.5471437             -14.8885
        23        2.0000           -0.5381682             -14.6443
        24        2.0000           -0.5282731             -14.3750
        25        2.0000           -0.5217458             -14.1974
        26        2.0000           -0.5029731             -13.6866
        27        1.9964           -0.4339351             -11.8080 (HOMO)
        28        0.0036           -0.4219228             -11.4811 (LUMO)
        29                         -0.3227343              -8.7820
        30                         -0.2427785              -6.6063
        31                         -0.1581600              -4.3038
        32                         -0.1554663              -4.2305
       ...                                ...                  ...
        62                          0.5449670              14.8293
      -------------------------------------------------------------
                  HL-Gap            0.0120123 Eh            0.3269 eV
             Fermi-level           -0.4279289 Eh          -11.6445 eV

 SCC (total)                   0 d,  0 h,  0 min,  0.038 sec
 SCC setup                      ...        0 min,  0.001 sec (  1.922%)
 Dispersion                     ...        0 min,  0.000 sec (  0.243%)
 classical contributions        ...        0 min,  0.000 sec (  0.088%)
 integral evaluation            ...        0 min,  0.008 sec ( 22.446%)
 iterations                     ...        0 min,  0.013 sec ( 34.707%)
 molecular gradient             ...        0 min,  0.015 sec ( 39.966%)
 printout                       ...        0 min,  0.000 sec (  0.578%)

         :::::::::::::::::::::::::::::::::::::::::::::::::::::
         ::                     SUMMARY                     ::
         :::::::::::::::::::::::::::::::::::::::::::::::::::::
         :: total energy             -30.762996164829 Eh    ::
         :: total w/o Gsasa/hb       -30.749078951482 Eh    ::
         :: gradient norm              0.067034685046 Eh/a0 ::
         :: HOMO-LUMO gap              0.326872064120 eV    ::
         ::.................................................::
         :: SCC energy               -31.156058093380 Eh    ::
         :: -> electrostatic           0.136897618686 Eh    ::
         :: -> Gsolv                  -0.084802247232 Eh    ::
         ::    -> Gelec               -0.070885033884 Eh    ::
         ::    -> Gsasa               -0.013993822057 Eh    ::
         ::    -> Ghb                 -0.007547670295 Eh    ::
         ::    -> Gshift               0.007624279005 Eh    ::
         :: repulsion energy           0.403371853637 Eh    ::
         :: dispersion energy         -0.010309925087 Eh    ::
         :: halogen bond corr.         0.000000000000 Eh    ::
         :: add. restraining           0.000000000000 Eh    ::
         :: total charge               1.000000000000 e     ::
         :::::::::::::::::::::::::::::::::::::::::::::::::::::

      ----------------------------------------------------------- 
     |                   =====================                   |
     |                        A N C O P T                        |
     |                   =====================                   |
     |               Approximate Normal Coordinate               |
     |                Rational Function Optimizer                |
      ----------------------------------------------------------- 

          ...................................................
          :                      SETUP                      :
          :.................................................:
          :   optimization level            normal          :
          :   max. optcycles                   200          :
          :   ANC micro-cycles                  20          :
          :   degrees of freedom                57          :
          :.................................................:
          :   RF solver                   davidson          :
          :   write xtbopt.log                true          :
          :   linear?                        false          :
          :   energy convergence         0.5000000E-05 Eh   :
          :   grad. convergence          0.1000000E-02 Eh/α :
          :   maximium RF displ.         1.0000000          :
          :   Hlow (freq-cutoff)         0.1000000E-01      :
          :   Hmax (freq-cutoff)         5.0000000          :
          :   S6 in model hess.         20.0000000          :
          ...................................................

generating ANC from model Hessian ...
Using Lindh-Hessian (1995)
 Shifting diagonal of input Hessian by   7.766802069852583E-003
 Lowest  eigenvalues of input Hessian
    0.000000    0.000000    0.000000    0.000000    0.000000    0.000000
    0.010000    0.011857    0.013258    0.013757    0.015845    0.018809
    0.023479    0.024906    0.031077    0.036847    0.041641    0.049695
 Highest eigenvalues
    1.432347    1.513376    1.556941    1.854429    1.959308    2.056111
 

........................................................................
.............................. CYCLE    1 ..............................
........................................................................
   1    -31.1560581 -0.311561E+02  0.118E-05    0.33       0.0  T
   2    -31.1560581 -0.465405E-12  0.811E-06    0.33    2692.1  T
   3    -31.1560581 -0.994760E-13  0.340E-06    0.33    6420.3  T
     SCC iter.                  ...        0 min,  0.003 sec
     gradient                   ...        0 min,  0.013 sec
 * total energy  :   -30.7629962 Eh     change       -0.6600942E-11 Eh
   gradient norm :     0.0670344 Eh/α   predicted     0.0000000E+00 (-100.00%)
   displ. norm   :     0.2174318 α      lambda       -0.6658584E-02
   maximum displ.:     0.0996897 α      in ANC's #14, #18, #1, ...

........................................................................
.............................. CYCLE    2 ..............................
........................................................................
   1    -31.1581824 -0.311582E+02  0.579E-02    0.49       0.0  T
   2    -31.1582207 -0.383688E-04  0.280E-02    0.46       1.0  T
   3    -31.1582238 -0.308281E-05  0.174E-02    0.45       1.3  T
   4    -31.1582242 -0.434775E-06  0.513E-03    0.45       4.3  T
   5    -31.1582245 -0.294468E-06  0.173E-03    0.45      12.6  T
   6    -31.1582246 -0.333426E-07  0.492E-04    0.45      44.3  T
   7    -31.1582246 -0.193678E-08  0.187E-04    0.45     116.9  T
   8    -31.1582246 -0.171145E-09  0.340E-05    0.45     642.4  T
     SCC iter.                  ...        0 min,  0.006 sec
     gradient                   ...        0 min,  0.011 sec
 * total energy  :   -30.7677855 Eh     change       -0.4789304E-02 Eh
   gradient norm :     0.0311446 Eh/α   predicted    -0.3487841E-02 ( -27.17%)
   displ. norm   :     0.2393369 α      lambda       -0.2839238E-02
   maximum displ.:     0.1274582 α      in ANC's #1, #2, #14, ...

........................................................................
.............................. CYCLE    3 ..............................
........................................................................
   1    -31.1605952 -0.311606E+02  0.713E-02    0.63       0.0  T
   2    -31.1606302 -0.350904E-04  0.317E-02    0.64       1.0  T
   3    -31.1606322 -0.193359E-05  0.184E-02    0.64       1.2  T
   4    -31.1606331 -0.875756E-06  0.514E-03    0.63       4.2  T
   5    -31.1606334 -0.314569E-06  0.115E-03    0.63      18.9  T
   6    -31.1606334 -0.114094E-07  0.414E-04    0.63      52.8  T
   7    -31.1606334 -0.107441E-08  0.133E-04    0.63     163.6  T
   8    -31.1606334 -0.121943E-09  0.355E-05    0.63     614.5  T
     SCC iter.                  ...        0 min,  0.004 sec
     gradient                   ...        0 min,  0.010 sec
 * total energy  :   -30.7693383 Eh     change       -0.1552849E-02 Eh
   gradient norm :     0.0070715 Eh/α   predicted    -0.1501183E-02 (  -3.33%)
   displ. norm   :     0.1385290 α      lambda       -0.2986894E-03
   maximum displ.:     0.1061260 α      in ANC's #1, #2, #3, ...

........................................................................
.............................. CYCLE    4 ..............................
........................................................................
   1    -31.1611157 -0.311611E+02  0.114E-02    0.66       0.0  T
   2    -31.1611165 -0.736294E-06  0.519E-03    0.66       4.2  T
   3    -31.1611165 -0.520321E-07  0.285E-03    0.66       7.7  T
   4    -31.1611166 -0.396202E-07  0.913E-04    0.66      23.9  T
   5    -31.1611166 -0.583768E-08  0.211E-04    0.66     103.3  T
   6    -31.1611166 -0.197183E-09  0.647E-05    0.66     337.1  T
   7    -31.1611166 -0.394706E-10  0.181E-05    0.66    1203.3  T
     SCC iter.                  ...        0 min,  0.004 sec
     gradient                   ...        0 min,  0.010 sec
 * total energy  :   -30.7695813 Eh     change       -0.2429799E-03 Eh
   gradient norm :     0.0045598 Eh/α   predicted    -0.1522237E-03 ( -37.35%)
   displ. norm   :     0.2159444 α      lambda       -0.3253350E-03
   maximum displ.:     0.1628160 α      in ANC's #1, #2, #8, ...

........................................................................
.............................. CYCLE    5 ..............................
........................................................................
   1    -31.1615286 -0.311615E+02  0.950E-03    0.67       0.0  T
   2    -31.1615293 -0.660326E-06  0.493E-03    0.67       4.4  T
   3    -31.1615293 -0.485175E-07  0.241E-03    0.67       9.1  T
   4    -31.1615294 -0.273413E-07  0.864E-04    0.67      25.3  T
   5    -31.1615294 -0.570487E-08  0.269E-04    0.67      81.0  T
   6    -31.1615294 -0.295103E-09  0.680E-05    0.67     321.0  T
   7    -31.1615294 -0.508713E-10  0.187E-05    0.67    1167.4  T
     SCC iter.                  ...        0 min,  0.004 sec
     gradient                   ...        0 min,  0.010 sec
 * total energy  :   -30.7698028 Eh     change       -0.2214862E-03 Eh
   gradient norm :     0.0040339 Eh/α   predicted    -0.1702538E-03 ( -23.13%)
   displ. norm   :     0.1422954 α      lambda       -0.1151049E-03
   maximum displ.:     0.1128136 α      in ANC's #1, #2, #5, ...

........................................................................
.............................. CYCLE    6 ..............................
........................................................................
   1    -31.1617122 -0.311617E+02  0.463E-03    0.67       0.0  T
   2    -31.1617124 -0.238821E-06  0.236E-03    0.67       9.2  T
   3    -31.1617125 -0.259786E-07  0.115E-03    0.67      19.0  T
   4    -31.1617125 -0.937424E-08  0.416E-04    0.67      52.5  T
   5    -31.1617125 -0.713598E-09  0.142E-04    0.67     153.5  T
   6    -31.1617125 -0.909246E-10  0.562E-05    0.67     388.4  T
     SCC iter.                  ...        0 min,  0.003 sec
     gradient                   ...        0 min,  0.010 sec
 * total energy  :   -30.7698955 Eh     change       -0.9273898E-04 Eh
   gradient norm :     0.0046889 Eh/α   predicted    -0.5871914E-04 ( -36.68%)
   displ. norm   :     0.1620352 α      lambda       -0.1342783E-03
   maximum displ.:     0.1258884 α      in ANC's #1, #2, #5, ...

........................................................................
.............................. CYCLE    7 ..............................
........................................................................
   1    -31.1619528 -0.311620E+02  0.741E-03    0.67       0.0  T
   2    -31.1619536 -0.785739E-06  0.338E-03    0.67       6.5  T
   3    -31.1619537 -0.509041E-07  0.176E-03    0.67      12.4  T
   4    -31.1619537 -0.157157E-07  0.792E-04    0.67      27.6  T
   5    -31.1619537 -0.352664E-08  0.180E-04    0.67     121.0  T
   6    -31.1619537 -0.137032E-09  0.787E-05    0.67     277.3  T
     SCC iter.                  ...        0 min,  0.003 sec
     gradient                   ...        0 min,  0.010 sec
 * total energy  :   -30.7700105 Eh     change       -0.1149447E-03 Eh
   gradient norm :     0.0040134 Eh/α   predicted    -0.6890506E-04 ( -40.05%)
   displ. norm   :     0.2693642 α      lambda       -0.2009990E-03
   maximum displ.:     0.2050861 α      in ANC's #1, #2, #5, ...

........................................................................
.............................. CYCLE    8 ..............................
........................................................................
   1    -31.1616474 -0.311616E+02  0.136E-02    0.66       0.0  T
   2    -31.1616506 -0.329195E-05  0.595E-03    0.67       3.7  T
   3    -31.1616509 -0.240094E-06  0.313E-03    0.68       7.0  T
   4    -31.1616509 -0.543148E-07  0.149E-03    0.68      14.7  T
   5    -31.1616510 -0.968769E-08  0.326E-04    0.68      67.0  T
   6    -31.1616510 -0.330093E-09  0.126E-04    0.68     173.0  T
   7    -31.1616510 -0.723617E-10  0.506E-05    0.68     431.6  T
     SCC iter.                  ...        0 min,  0.004 sec
     gradient                   ...        0 min,  0.011 sec
 * total energy  :   -30.7701512 Eh     change       -0.1407628E-03 Eh
   gradient norm :     0.0034574 Eh/α   predicted    -0.1077928E-03 ( -23.42%)
   displ. norm   :     0.1576124 α      lambda       -0.8570947E-04
   maximum displ.:     0.1215418 α      in ANC's #1, #4, #3, ...

........................................................................
.............................. CYCLE    9 ..............................
........................................................................
   1    -31.1619624 -0.311620E+02  0.100E-02    0.67       0.0  T
   2    -31.1619644 -0.200267E-05  0.507E-03    0.68       4.3  T
   3    -31.1619645 -0.143771E-06  0.278E-03    0.68       7.8  T
   4    -31.1619646 -0.182852E-07  0.132E-03    0.68      16.5  T
   5    -31.1619646 -0.878366E-08  0.258E-04    0.68      84.4  T
   6    -31.1619646 -0.238842E-09  0.827E-05    0.68     264.0  T
   7    -31.1619646 -0.167901E-10  0.266E-05    0.68     821.3  T
     SCC iter.                  ...        0 min,  0.004 sec
     gradient                   ...        0 min,  0.011 sec
 * total energy  :   -30.7702154 Eh     change       -0.6417258E-04 Eh
   gradient norm :     0.0025425 Eh/α   predicted    -0.4392334E-04 ( -31.55%)
   displ. norm   :     0.2186283 α      lambda       -0.8637103E-04
   maximum displ.:     0.1657767 α      in ANC's #1, #4, #3, ...

........................................................................
.............................. CYCLE   10 ..............................
........................................................................
   1    -31.1619810 -0.311620E+02  0.134E-02    0.67       0.0  T
   2    -31.1619853 -0.432183E-05  0.606E-03    0.68       3.6  T
   3    -31.1619856 -0.341904E-06  0.297E-03    0.69       7.4  T
   4    -31.1619856 -0.336900E-07  0.153E-03    0.69      14.3  T
   5    -31.1619857 -0.104382E-07  0.366E-04    0.69      59.6  T
   6    -31.1619857 -0.353232E-09  0.105E-04    0.69     207.0  T
   7    -31.1619857 -0.132303E-10  0.354E-05    0.69     616.8  T
     SCC iter.                  ...        0 min,  0.004 sec
     gradient                   ...        0 min,  0.011 sec
 * total energy  :   -30.7702821 Eh     change       -0.6668808E-04 Eh
   gradient norm :     0.0024305 Eh/α   predicted    -0.4525068E-04 ( -32.15%)
   displ. norm   :     0.2286776 α      lambda       -0.8310440E-04
   maximum displ.:     0.1684155 α      in ANC's #1, #4, #3, ...

........................................................................
.............................. CYCLE   11 ..............................
........................................................................
   1    -31.1622100 -0.311622E+02  0.161E-02    0.67       0.0  T
   2    -31.1622169 -0.695911E-05  0.693E-03    0.70       3.2  T
   3    -31.1622174 -0.444892E-06  0.316E-03    0.70       6.9  T
   4    -31.1622174 -0.341803E-07  0.172E-03    0.70      12.7  T
   5    -31.1622174 -0.154699E-07  0.444E-04    0.70      49.2  T
   6    -31.1622174 -0.559812E-09  0.120E-04    0.70     182.1  T
   7    -31.1622174 -0.141647E-10  0.406E-05    0.70     537.4  T
     SCC iter.                  ...        0 min,  0.004 sec
     gradient                   ...        0 min,  0.010 sec
 * total energy  :   -30.7703335 Eh     change       -0.5145479E-04 Eh
   gradient norm :     0.0026115 Eh/α   predicted    -0.4372550E-04 ( -15.02%)
   displ. norm   :     0.0781546 α      lambda       -0.4701052E-04
   maximum displ.:     0.0382732 α      in ANC's #1, #4, #8, ...

........................................................................
.............................. CYCLE   12 ..............................
........................................................................
   1    -31.1632676 -0.311633E+02  0.814E-03    0.69       0.0  T
   2    -31.1632693 -0.172988E-05  0.375E-03    0.71       5.8  T
   3    -31.1632694 -0.778441E-07  0.193E-03    0.71      11.3  T
   4    -31.1632694 -0.343514E-08  0.889E-04    0.71      24.5  T
   5    -31.1632694 -0.472624E-08  0.225E-04    0.71      96.9  T
   6    -31.1632694 -0.333941E-09  0.661E-05    0.71     330.4  T
   7    -31.1632694 -0.101927E-10  0.218E-05    0.71    1003.0  T
     SCC iter.                  ...        0 min,  0.004 sec
     gradient                   ...        0 min,  0.010 sec
 * total energy  :   -30.7703666 Eh     change       -0.3306503E-04 Eh
   gradient norm :     0.0026215 Eh/α   predicted    -0.2365177E-04 ( -28.47%)
   displ. norm   :     0.2196421 α      lambda       -0.8226120E-04
   maximum displ.:     0.1324297 α      in ANC's #1, #4, #2, ...

........................................................................
.............................. CYCLE   13 ..............................
........................................................................
   1    -31.1624260 -0.311624E+02  0.250E-02    0.70       0.0  T
   2    -31.1624381 -0.120896E-04  0.773E-03    0.73       2.8  T
   3    -31.1624387 -0.576778E-06  0.331E-03    0.73       6.6  T
   4    -31.1624387 -0.582655E-07  0.156E-03    0.73      14.0  T
   5    -31.1624388 -0.123372E-07  0.495E-04    0.73      44.1  T
   6    -31.1624388 -0.124623E-08  0.137E-04    0.73     158.8  T
   7    -31.1624388 -0.285709E-10  0.470E-05    0.73     464.5  T
     SCC iter.                  ...        0 min,  0.004 sec
     gradient                   ...        0 min,  0.010 sec
 * total energy  :   -30.7704071 Eh     change       -0.4044944E-04 Eh
   gradient norm :     0.0032704 Eh/α   predicted    -0.4311780E-04 (   6.60%)
   displ. norm   :     0.0946419 α      lambda       -0.6229980E-04
   maximum displ.:     0.0628287 α      in ANC's #1, #8, #5, ...

........................................................................
.............................. CYCLE   14 ..............................
........................................................................
   1    -31.1634389 -0.311634E+02  0.471E-03    0.73       0.0  T
   2    -31.1634392 -0.312577E-06  0.194E-03    0.73      11.3  T
   3    -31.1634392 -0.203852E-07  0.110E-03    0.73      19.9  T
   4    -31.1634392 -0.222649E-08  0.356E-04    0.73      61.3  T
   5    -31.1634392 -0.109612E-08  0.130E-04    0.73     167.4  T
   6    -31.1634392 -0.126711E-09  0.413E-05    0.73     528.5  T
     SCC iter.                  ...        0 min,  0.003 sec
     gradient                   ...        0 min,  0.010 sec
 * total energy  :   -30.7704472 Eh     change       -0.4013227E-04 Eh
   gradient norm :     0.0022630 Eh/α   predicted    -0.3143482E-04 ( -21.67%)
   displ. norm   :     0.0955049 α      lambda       -0.4082069E-04
   maximum displ.:     0.0606258 α      in ANC's #8, #2, #7, ...

........................................................................
.............................. CYCLE   15 ..............................
........................................................................
   1    -31.1630542 -0.311631E+02  0.121E-02    0.73       0.0  T
   2    -31.1630570 -0.278581E-05  0.375E-03    0.75       5.8  T
   3    -31.1630571 -0.115443E-06  0.153E-03    0.75      14.2  T
   4    -31.1630571 -0.706999E-08  0.579E-04    0.75      37.7  T
   5    -31.1630571 -0.129926E-08  0.190E-04    0.75     114.7  T
   6    -31.1630571 -0.348003E-09  0.687E-05    0.75     317.5  T
     SCC iter.                  ...        0 min,  0.003 sec
     gradient                   ...        0 min,  0.010 sec
 * total energy  :   -30.7704763 Eh     change       -0.2915398E-04 Eh
   gradient norm :     0.0025031 Eh/α   predicted    -0.2060492E-04 ( -29.32%)
   displ. norm   :     0.0964597 α      lambda       -0.4380454E-04
   maximum displ.:     0.0585139 α      in ANC's #2, #1, #8, ...

........................................................................
.............................. CYCLE   16 ..............................
........................................................................
   1    -31.1626012 -0.311626E+02  0.699E-03    0.75       0.0  T
   2    -31.1626023 -0.116418E-05  0.269E-03    0.75       8.1  T
   3    -31.1626024 -0.576962E-07  0.109E-03    0.75      20.0  T
   4    -31.1626024 -0.344393E-08  0.459E-04    0.75      47.6  T
   5    -31.1626024 -0.127006E-08  0.136E-04    0.75     160.0  T
   6    -31.1626024 -0.134722E-09  0.533E-05    0.75     409.1  T
     SCC iter.                  ...        0 min,  0.003 sec
     gradient                   ...        0 min,  0.010 sec
 * total energy  :   -30.7705013 Eh     change       -0.2496314E-04 Eh
   gradient norm :     0.0019488 Eh/α   predicted    -0.2212048E-04 ( -11.39%)
   displ. norm   :     0.0787841 α      lambda       -0.1485406E-04
   maximum displ.:     0.0563570 α      in ANC's #2, #4, #8, ...

........................................................................
.............................. CYCLE   17 ..............................
........................................................................
   1    -31.1621702 -0.311622E+02  0.114E-02    0.75       0.0  T
   2    -31.1621732 -0.303536E-05  0.397E-03    0.77       5.5  T
   3    -31.1621734 -0.222320E-06  0.132E-03    0.77      16.5  T
   4    -31.1621734 -0.872920E-08  0.663E-04    0.77      32.9  T
   5    -31.1621734 -0.298889E-08  0.180E-04    0.77     121.5  T
   6    -31.1621734 -0.156845E-09  0.489E-05    0.77     446.1  T
     SCC iter.                  ...        0 min,  0.003 sec
     gradient                   ...        0 min,  0.010 sec
 * total energy  :   -30.7705148 Eh     change       -0.1346918E-04 Eh
   gradient norm :     0.0031467 Eh/α   predicted    -0.7453082E-05 ( -44.67%)
   displ. norm   :     0.0511500 α      lambda       -0.2474781E-04
   maximum displ.:     0.0318750 α      in ANC's #2, #6, #1, ...

........................................................................
.............................. CYCLE   18 ..............................
........................................................................
   1    -31.1629106 -0.311629E+02  0.656E-03    0.77       0.0  T
   2    -31.1629108 -0.151197E-06  0.370E-03    0.77       5.9  T
   3    -31.1629108 -0.886414E-08  0.187E-03    0.77      11.7  T
   4    -31.1629108 -0.286784E-07  0.307E-04    0.77      71.2  T
   5    -31.1629108 -0.496804E-09  0.110E-04    0.77     199.2  T
   6    -31.1629108 -0.367777E-10  0.276E-05    0.77     791.3  T
     SCC iter.                  ...        0 min,  0.003 sec
     gradient                   ...        0 min,  0.010 sec
 * total energy  :   -30.7705235 Eh     change       -0.8708474E-05 Eh
   gradient norm :     0.0025120 Eh/α   predicted    -0.1240723E-04 (  42.47%)
   displ. norm   :     0.0456341 α      lambda       -0.1443390E-04
   maximum displ.:     0.0288909 α      in ANC's #2, #8, #4, ...

........................................................................
.............................. CYCLE   19 ..............................
........................................................................
   1    -31.1628385 -0.311628E+02  0.702E-03    0.76       0.0  T
   2    -31.1628395 -0.102663E-05  0.234E-03    0.77       9.3  T
   3    -31.1628395 -0.676699E-07  0.911E-04    0.77      24.0  T
   4    -31.1628396 -0.315700E-08  0.396E-04    0.77      55.1  T
   5    -31.1628396 -0.919943E-09  0.123E-04    0.77     177.0  T
   6    -31.1628396 -0.944880E-10  0.407E-05    0.77     536.1  T
     SCC iter.                  ...        0 min,  0.003 sec
     gradient                   ...        0 min,  0.010 sec
 * total energy  :   -30.7705347 Eh     change       -0.1125882E-04 Eh
   gradient norm :     0.0016822 Eh/α   predicted    -0.7232333E-05 ( -35.76%)
   displ. norm   :     0.1622035 α      lambda       -0.1960594E-04
   maximum displ.:     0.1180313 α      in ANC's #2, #3, #8, ...

........................................................................
.............................. CYCLE   20 ..............................
........................................................................
   1    -31.1624490 -0.311624E+02  0.218E-02    0.76       0.0  T
   2    -31.1624599 -0.109208E-04  0.791E-03    0.79       2.8  T
   3    -31.1624609 -0.949598E-06  0.265E-03    0.79       8.2  T
   4    -31.1624609 -0.269684E-07  0.112E-03    0.79      19.4  T
   5    -31.1624609 -0.870485E-08  0.323E-04    0.79      67.6  T
   6    -31.1624609 -0.904436E-09  0.110E-04    0.79     197.5  T
   7    -31.1624609 -0.197780E-10  0.340E-05    0.79     641.6  T
     SCC iter.                  ...        0 min,  0.004 sec
     gradient                   ...        0 min,  0.010 sec
 * total energy  :   -30.7705443 Eh     change       -0.9554689E-05 Eh
   gradient norm :     0.0030851 Eh/α   predicted    -0.9920593E-05 (   3.83%)
   displ. norm   :     0.0197298 α      lambda       -0.1520794E-04
   maximum displ.:     0.0113496 α      in ANC's #8, #3, #4, ...
 * RMSD in coord.:     0.4316991 α      energy gain  -0.7548136E-02 Eh

generating ANC from model Hessian ...
Using Lindh-Hessian (1995)
 Shifting diagonal of input Hessian by   8.417246610080512E-003
 Lowest  eigenvalues of input Hessian
    0.000000    0.000000    0.000000    0.000000    0.000000    0.000000
    0.010000    0.013029    0.013322    0.014552    0.016704    0.019793
    0.024825    0.027221    0.032213    0.037633    0.044978    0.052136
 Highest eigenvalues
    1.441963    1.542686    1.589395    1.823247    1.971621    2.080857
 

........................................................................
.............................. CYCLE   21 ..............................
........................................................................
   1    -31.1630671 -0.311631E+02  0.455E-03    0.79       0.0  T
   2    -31.1630673 -0.182476E-06  0.150E-03    0.78      14.6  T
   3    -31.1630673 -0.108194E-07  0.875E-04    0.78      24.9  T
   4    -31.1630673 -0.325793E-08  0.300E-04    0.78      72.7  T
   5    -31.1630673 -0.208704E-09  0.836E-05    0.78     261.2  T
   6    -31.1630673 -0.796483E-10  0.163E-05    0.78    1339.8  T
     SCC iter.                  ...        0 min,  0.003 sec
     gradient                   ...        0 min,  0.010 sec
 * total energy  :   -30.7705555 Eh     change       -0.1117050E-04 Eh
   gradient norm :     0.0013419 Eh/α   predicted     0.0000000E+00 (-100.00%)
   displ. norm   :     0.0210564 α      lambda       -0.7317111E-05
   maximum displ.:     0.0148185 α      in ANC's #3, #9, #4, ...

........................................................................
.............................. CYCLE   22 ..............................
........................................................................
   1    -31.1633723 -0.311634E+02  0.190E-03    0.79       0.0  T
   2    -31.1633723 -0.298207E-07  0.728E-04    0.79      30.0  T
   3    -31.1633723 -0.313338E-08  0.433E-04    0.79      50.4  T
   4    -31.1633723 -0.151324E-08  0.137E-04    0.79     159.0  T
   5    -31.1633723 -0.336620E-10  0.406E-05    0.79     538.0  T
     SCC iter.                  ...        0 min,  0.003 sec
     gradient                   ...        0 min,  0.010 sec
 * total energy  :   -30.7705629 Eh     change       -0.7423311E-05 Eh
   gradient norm :     0.0005221 Eh/α   predicted    -0.3672538E-05 ( -50.53%)
   displ. norm   :     0.0356269 α      lambda       -0.5017617E-05
   maximum displ.:     0.0287468 α      in ANC's #3, #4, #9, ...

........................................................................
.............................. CYCLE   23 ..............................
........................................................................
   1    -31.1633986 -0.311634E+02  0.184E-03    0.79       0.0  T
   2    -31.1633986 -0.182528E-07  0.796E-04    0.79      27.4  T
   3    -31.1633986 -0.228044E-08  0.196E-04    0.79     111.2  T
   4    -31.1633986 -0.154159E-09  0.777E-05    0.79     280.7  T
     SCC iter.                  ...        0 min,  0.002 sec
     gradient                   ...        0 min,  0.010 sec
 * total energy  :   -30.7705687 Eh     change       -0.5843457E-05 Eh
   gradient norm :     0.0006683 Eh/α   predicted    -0.2520776E-05 ( -56.86%)
   displ. norm   :     0.0513060 α      lambda       -0.5385523E-05
   maximum displ.:     0.0421624 α      in ANC's #3, #4, #2, ...

........................................................................
.............................. CYCLE   24 ..............................
........................................................................
   1    -31.1633500 -0.311634E+02  0.276E-03    0.79       0.0  T
   2    -31.1633501 -0.617535E-07  0.122E-03    0.79      17.8  T
   3    -31.1633501 -0.536804E-08  0.465E-04    0.79      46.9  T
   4    -31.1633501 -0.293072E-08  0.138E-04    0.79     158.3  T
   5    -31.1633501 -0.147228E-09  0.462E-05    0.79     472.6  T
     SCC iter.                  ...        0 min,  0.003 sec
     gradient                   ...        0 min,  0.010 sec
 * total energy  :   -30.7705755 Eh     change       -0.6770665E-05 Eh
   gradient norm :     0.0007282 Eh/α   predicted    -0.2696412E-05 ( -60.18%)
   displ. norm   :     0.0594576 α      lambda       -0.5697520E-05
   maximum displ.:     0.0491666 α      in ANC's #3, #4, #2, ...

........................................................................
.............................. CYCLE   25 ..............................
........................................................................
   1    -31.1632972 -0.311633E+02  0.342E-03    0.78       0.0  T
   2    -31.1632973 -0.138172E-06  0.154E-03    0.79      14.2  T
   3    -31.1632973 -0.147858E-07  0.696E-04    0.79      31.4  T
   4    -31.1632973 -0.539545E-08  0.174E-04    0.79     125.1  T
   5    -31.1632973 -0.221391E-09  0.615E-05    0.79     355.0  T
     SCC iter.                  ...        0 min,  0.003 sec
     gradient                   ...        0 min,  0.010 sec
 * total energy  :   -30.7705828 Eh     change       -0.7297296E-05 Eh
   gradient norm :     0.0005631 Eh/α   predicted    -0.2855964E-05 ( -60.86%)
   displ. norm   :     0.0575406 α      lambda       -0.4880488E-05
   maximum displ.:     0.0483351 α      in ANC's #3, #2, #4, ...

........................................................................
.............................. CYCLE   26 ..............................
........................................................................
   1    -31.1633053 -0.311633E+02  0.356E-03    0.79       0.0  T
   2    -31.1633055 -0.196851E-06  0.164E-03    0.79      13.3  T
   3    -31.1633055 -0.230494E-07  0.730E-04    0.79      29.9  T
   4    -31.1633055 -0.424969E-08  0.196E-04    0.79     111.4  T
   5    -31.1633055 -0.340659E-09  0.697E-05    0.79     313.1  T
     SCC iter.                  ...        0 min,  0.003 sec
     gradient                   ...        0 min,  0.010 sec
 * total energy  :   -30.7705889 Eh     change       -0.6079076E-05 Eh
   gradient norm :     0.0003027 Eh/α   predicted    -0.2444204E-05 ( -59.79%)
   displ. norm   :     0.0441129 α      lambda       -0.3038819E-05
   maximum displ.:     0.0378750 α      in ANC's #3, #2, #6, ...

........................................................................
.............................. CYCLE   27 ..............................
........................................................................
   1    -31.1633515 -0.311634E+02  0.301E-03    0.79       0.0  T
   2    -31.1633517 -0.183066E-06  0.140E-03    0.79      15.5  T
   3    -31.1633517 -0.202319E-07  0.589E-04    0.79      37.1  T
   4    -31.1633517 -0.174418E-08  0.182E-04    0.79     120.1  T
   5    -31.1633517 -0.343864E-09  0.583E-05    0.79     374.4  T
     SCC iter.                  ...        0 min,  0.003 sec
     gradient                   ...        0 min,  0.010 sec
 * total energy  :   -30.7705928 Eh     change       -0.3897062E-05 Eh
   gradient norm :     0.0002227 Eh/α   predicted    -0.1524088E-05 ( -60.89%)
   displ. norm   :     0.0325781 α      lambda       -0.2107254E-05
   maximum displ.:     0.0282106 α      in ANC's #3, #2, #6, ...

   *** GEOMETRY OPTIMIZATION CONVERGED AFTER 27 ITERATIONS ***

------------------------------------------------------------------------
 total energy gain   :        -0.0075966 Eh       -4.7669 kcal/mol
 total RMSD          :         0.4610381 a0        0.2440 Å
 total power (kW/mol):        -0.7387006 (step)  -35.9483 (real)
------------------------------------------------------------------------

 ANCopt (total)                0 d,  0 h,  0 min,  0.555 sec
 optimizer setup                ...        0 min,  0.001 sec (  0.124%)
 model hessian                  ...        0 min,  0.014 sec (  2.506%)
 ANC generation                 ...        0 min,  0.001 sec (  0.178%)
 coordinate transformation      ...        0 min,  0.000 sec (  0.027%)
 single point calculation       ...        0 min,  0.535 sec ( 96.362%)
 optimization log               ...        0 min,  0.002 sec (  0.418%)
 hessian update                 ...        0 min,  0.000 sec (  0.032%)
 rational function              ...        0 min,  0.001 sec (  0.209%)

================
 final structure:
================
21
 xtb: 6.5.1 (579679a)
C           -0.36497031089194        1.90837140525602        0.02172771168463
C           -0.47123041614911        0.44839286575813       -0.52282316998133
C           -1.88493004270183        0.02798266534777       -0.54672816089701
C           -2.28263142080446       -1.08049637432316        0.12530186112844
F           -3.56066748281872       -1.43932125156510        0.11689667687260
C           -1.38372214338197       -1.88230441615320        0.85400565862724
C           -0.03702154781793       -1.57077406424638        0.86233424431271
C            0.45421496503290       -0.45853170571377        0.18545899498684
C            1.91449105230467       -0.20471034279846        0.18153046980116
N            2.33404078449553        0.83700034813713       -0.72705217105672
H            0.66217554843621        2.25105628995978       -0.07690487123556
H           -0.66292622754532        1.92397003956191        1.06713416241770
H           -1.02225716993876        2.54972674927338       -0.56059212495526
H           -0.12576786451217        0.53252212528517       -1.56532012731817
H           -2.59292102054262        0.64298857021859       -1.08857108684677
H           -1.75983483478708       -2.74593101933164        1.39027346653622
H            0.65225036327700       -2.21204165201168        1.39989345584796
H            2.20972656155352        0.07773159558117        1.20074337505101
H            2.42807412515209       -1.15644829110714       -0.02637289532202
H            2.16984234790055        0.55440850226787       -1.68313311841462
H            3.32406673373929        0.99640796060367       -0.60780135123927
 
 Bond Distances (Angstroems)
 ---------------------------
C1-C2=1.5618         C1-H11=1.0873        C1-H12=1.0872        C1-H13=1.0874        C2-C1=1.5618         C2-C3=1.4751         
C2-C8=1.4767         C2-H14=1.1015        C3-C2=1.4751         C3-C4=1.3559         C3-H15=1.0831        C4-C3=1.3559         
C4-F5=1.3275         C4-C6=1.4078         F5-C4=1.3275         C6-C4=1.4078         C6-C7=1.3823         C6-H16=1.0839        
C7-C6=1.3823         C7-C8=1.3916         C7-H17=1.0841        C8-C2=1.4767         C8-C7=1.3916         C8-C9=1.4822         
C9-C8=1.4822         C9-N10=1.4445        C9-H18=1.0981        C9-H19=1.1013        N10-C9=1.4445        N10-H20=1.0104       
N10-H21=1.0098       H11-C1=1.0873        H12-C1=1.0872        H13-C1=1.0874        H14-C2=1.1015        H15-C3=1.0831        
H16-C6=1.0839        H17-C7=1.0841        H18-C9=1.0981        H19-C9=1.1013        H20-N10=1.0104       H21-N10=1.0098       
 C  H  Rav=1.0904 sigma=0.0072  Rmin=1.0831  Rmax=1.1015     9
 C  C  Rav=1.4417 sigma=0.0642  Rmin=1.3559  Rmax=1.5618     8
 N  H  Rav=1.0101 sigma=0.0003  Rmin=1.0098  Rmax=1.0104     2
 N  C  Rav=1.4445 sigma=0.0000  Rmin=1.4445  Rmax=1.4445     1
 F  C  Rav=1.3275 sigma=0.0000  Rmin=1.3275  Rmax=1.3275     1
 
 selected bond angles (degree)
 --------------------
H11-C1-C2=109.10               H12-C1-C2=109.27               H12-C1-H11=109.98              H13-C1-C2=108.87               
H13-C1-H11=109.67              H13-C1-H12=109.93              C3-C2-C1=109.71                C8-C2-C1=111.36                
C8-C2-C3=115.68                H14-C2-C1=103.72               H14-C2-C3=107.88               H14-C2-C8=107.72               
C4-C3-C2=120.40                H15-C3-C2=118.21               H15-C3-C4=121.36               F5-C4-C3=120.01                
C6-C4-C3=122.33                C6-C4-F5=117.65                C7-C6-C4=119.79                H16-C6-C4=119.23               
H16-C6-C7=120.97               C8-C7-C6=121.41                H17-C7-C6=119.28               H17-C7-C8=119.31               
C7-C8-C2=120.19                C9-C8-C2=120.73                C9-C8-C7=119.07                N10-C9-C8=114.29               
H18-C9-C8=107.85               H18-C9-N10=108.68              H19-C9-C8=108.18               H19-C9-N10=111.66              
H19-C9-H18=105.79              H20-N10-C9=110.26              H21-N10-C9=108.92              H21-N10-H20=108.37             
 
 selected dihedral angles (degree)
 ---------------------------------
C3-C2-C1-H11=186.77           C3-C2-C1-H12= 66.50           C3-C2-C1-H13=306.43           C8-C2-C1-H11= 57.40           
C8-C2-C1-H12=297.13           C8-C2-C1-H13=177.05           H14-C2-C1-H11=301.81          H14-C2-C1-H12=181.54          
H14-C2-C1-H13= 61.47          C4-C3-C2-C1=237.13            C4-C3-C2-C8=  4.11            C4-C3-C2-H14=124.77           
H15-C3-C2-C1= 55.38           H15-C3-C2-C8=182.36           H15-C3-C2-H14=303.02          F5-C4-C3-C2=178.88            
F5-C4-C3-H15=  0.69           C6-C4-C3-C2=359.24            C6-C4-C3-H15=181.05           C7-C6-C4-C3=357.85            
C7-C6-C4-F5=178.20            H16-C6-C4-C3=178.70           H16-C6-C4-F5=359.06           C8-C7-C6-C4=  1.37            
C8-C7-C6-H16=180.50           H17-C7-C6-C4=181.96           H17-C7-C6-H16=  1.09          C7-C8-C2-C1=121.31            
C7-C8-C2-C3=355.16            C7-C8-C2-H14=234.42           C9-C8-C2-C1=301.00            C9-C8-C2-C3=174.85            
C9-C8-C2-H14= 54.10           C2-C8-C7-C6=  2.23            C2-C8-C7-H17=181.64           C9-C8-C7-C6=182.54            
C9-C8-C7-H17=  1.95           N10-C9-C8-C2=350.49           N10-C9-C8-C7=170.18           H18-C9-C8-C2=111.44           
H18-C9-C8-C7=291.13           H19-C9-C8-C2=225.44           H19-C9-C8-C7= 45.12           H20-N10-C9-C8=294.01          
H20-N10-C9-H18=173.51         H20-N10-C9-H19= 57.20         H21-N10-C9-C8=175.21          H21-N10-C9-H18= 54.71         
H21-N10-C9-H19=298.40         
           -------------------------------------------------
          |                Final Singlepoint                |
           -------------------------------------------------

          ...................................................
          :                      SETUP                      :
          :.................................................:
          :  # basis functions                  62          :
          :  # atomic orbitals                  62          :
          :  # shells                           42          :
          :  # electrons                        54          :
          :  # halogen bonds                     0          :
          :  max. iterations                   250          :
          :  Hamiltonian                  GFN1-xTB          :
          :  restarted?                      false          :
          :  GBSA solvation                   true          :
          :  PC potential                    false          :
          :  electronic temp.          300.0000000     K    :
          :  accuracy                    1.0000000          :
          :  -> integral cutoff          0.2500000E+02      :
          :  -> integral neglect         0.1000000E-07      :
          :  -> SCF convergence          0.1000000E-05 Eh   :
          :  -> wf. convergence          0.2000000E-04 e    :
          :  Broyden damping             0.4000000          :
          ...................................................

 iter      E             dE          RMSdq      gap      omega  full diag
   1    -31.1633517 -0.311634E+02  0.207E-05    0.79       0.0  T
   2    -31.1633517 -0.451195E-12  0.121E-05    0.79    1807.4  T
   3    -31.1633517  0.781597E-13  0.304E-06    0.79    7187.6  T

   *** convergence criteria satisfied after 3 iterations ***

         #    Occupation            Energy/Eh            Energy/eV
      -------------------------------------------------------------
         1        2.0000           -0.9116298             -24.8067
       ...           ...                  ...                  ...
        21        2.0000           -0.5489770             -14.9384
        22        2.0000           -0.5481746             -14.9166
        23        2.0000           -0.5370442             -14.6137
        24        2.0000           -0.5287029             -14.3867
        25        2.0000           -0.5209560             -14.1759
        26        2.0000           -0.4967832             -13.5182
        27        2.0000           -0.4423751             -12.0376 (HOMO)
        28        0.0000           -0.4133548             -11.2480 (LUMO)
        29                         -0.3232942              -8.7973
        30                         -0.2402358              -6.5371
        31                         -0.1590908              -4.3291
        32                         -0.1505130              -4.0957
       ...                                ...                  ...
        62                          0.5407205              14.7138
      -------------------------------------------------------------
                  HL-Gap            0.0290203 Eh            0.7897 eV
             Fermi-level           -0.4278650 Eh          -11.6428 eV

 SCC (total)                   0 d,  0 h,  0 min,  0.017 sec
 SCC setup                      ...        0 min,  0.000 sec (  2.255%)
 Dispersion                     ...        0 min,  0.000 sec (  0.241%)
 classical contributions        ...        0 min,  0.000 sec (  0.108%)
 integral evaluation            ...        0 min,  0.005 sec ( 29.057%)
 iterations                     ...        0 min,  0.002 sec (  9.210%)
 molecular gradient             ...        0 min,  0.010 sec ( 58.199%)
 printout                       ...        0 min,  0.000 sec (  0.860%)

         :::::::::::::::::::::::::::::::::::::::::::::::::::::
         ::                     SUMMARY                     ::
         :::::::::::::::::::::::::::::::::::::::::::::::::::::
         :: total energy             -30.770592782463 Eh    ::
         :: total w/o Gsasa/hb       -30.757187360699 Eh    ::
         :: gradient norm              0.000223406054 Eh/a0 ::
         :: HOMO-LUMO gap              0.789683917068 eV    ::
         ::.................................................::
         :: SCC energy               -31.163351708185 Eh    ::
         :: -> electrostatic           0.135493394971 Eh    ::
         :: -> Gsolv                  -0.085477129730 Eh    ::
         ::    -> Gelec               -0.072071707966 Eh    ::
         ::    -> Gsasa               -0.013846000633 Eh    ::
         ::    -> Ghb                 -0.007183700135 Eh    ::
         ::    -> Gshift               0.007624279005 Eh    ::
         :: repulsion energy           0.403153300927 Eh    ::
         :: dispersion energy         -0.010394375204 Eh    ::
         :: halogen bond corr.         0.000000000000 Eh    ::
         :: add. restraining           0.000000000000 Eh    ::
         :: total charge               1.000000000000 e     ::
         :::::::::::::::::::::::::::::::::::::::::::::::::::::

           -------------------------------------------------
          |                Property Printout                |
           -------------------------------------------------

    * Orbital Energies and Occupations

         #    Occupation            Energy/Eh            Energy/eV
      -------------------------------------------------------------
         1        2.0000           -0.9116298             -24.8067
       ...           ...                  ...                  ...
        15        2.0000           -0.5934722             -16.1492
        16        2.0000           -0.5930239             -16.1370
        17        2.0000           -0.5837483             -15.8846
        18        2.0000           -0.5759030             -15.6711
        19        2.0000           -0.5672767             -15.4364
        20        2.0000           -0.5514328             -15.0053
        21        2.0000           -0.5489770             -14.9384
        22        2.0000           -0.5481746             -14.9166
        23        2.0000           -0.5370442             -14.6137
        24        2.0000           -0.5287029             -14.3867
        25        2.0000           -0.5209560             -14.1759
        26        2.0000           -0.4967832             -13.5182
        27        2.0000           -0.4423751             -12.0376 (HOMO)
        28        0.0000           -0.4133548             -11.2480 (LUMO)
        29                         -0.3232942              -8.7973
        30                         -0.2402358              -6.5371
        31                         -0.1590908              -4.3291
        32                         -0.1505130              -4.0957
        33                         -0.1452428              -3.9523
        34                         -0.1384123              -3.7664
        35                         -0.1320390              -3.5930
        36                         -0.1181364              -3.2147
        37                         -0.1078800              -2.9356
        38                         -0.0956159              -2.6018
       ...                                ...                  ...
        62                          0.5407205              14.7138
      -------------------------------------------------------------
                  HL-Gap            0.0290203 Eh            0.7897 eV
             Fermi-level           -0.4278650 Eh          -11.6428 eV

  Mulliken/CM5 charges         n(s)   n(p)   n(d)
     1C    -0.06787 -0.21586   1.025  3.043  0.000
     2C    -0.00537 -0.06395   1.057  2.948  0.000
     3C    -0.00537 -0.05837   1.098  2.907  0.000
     4C     0.26391  0.27559   1.037  2.699  0.000
     5F    -0.22825 -0.25328   1.818  5.410  0.000
     6C     0.03634 -0.01455   1.097  2.867  0.000
     7C    -0.02426 -0.07811   1.068  2.957  0.000
     8C     0.08437  0.07071   1.144  2.772  0.000
     9C     0.08627  0.03858   1.012  2.902  0.000
    10N    -0.50132 -0.97106   1.470  4.031  0.000
    11H     0.07322  0.13421   0.927  0.000  0.000
    12H     0.06575  0.11925   0.934  0.000  0.000
    13H     0.07332  0.12609   0.927  0.000  0.000
    14H     0.13728  0.20027   0.863  0.000  0.000
    15H     0.10928  0.16670   0.891  0.000  0.000
    16H     0.11231  0.16924   0.888  0.000  0.000
    17H     0.09702  0.15407   0.903  0.000  0.000
    18H     0.10296  0.16804   0.897  0.000  0.000
    19H     0.09400  0.15752   0.906  0.000  0.000
    20H     0.24080  0.43049   0.759  0.000  0.000
    21H     0.25560  0.44442   0.744  0.000  0.000

Wiberg/Mayer (AO) data.
largest (>0.10) Wiberg bond orders for each atom

 ---------------------------------------------------------------------------
     #   Z sym  total        # sym  WBO       # sym  WBO       # sym  WBO
 ---------------------------------------------------------------------------
     1   6 C    3.963 --    12 H    0.986    13 H    0.982    11 H    0.974
                             2 C    0.885
     2   6 C    3.992 --     8 C    1.086     3 C    1.081     1 C    0.885
                            14 H    0.867
     3   6 C    3.974 --     4 C    1.567     2 C    1.081    15 H    0.960
     4   6 C    3.882 --     3 C    1.567     6 C    1.262     5 F    0.963
     5   9 F    1.104 --     4 C    0.963
     6   6 C    3.961 --     7 C    1.469     4 C    1.262    16 H    0.960
     7   6 C    3.987 --     6 C    1.469     8 C    1.421    17 H    0.961
     8   6 C    3.929 --     7 C    1.421     2 C    1.086     9 C    1.068
     9   6 C    3.981 --     8 C    1.068    10 N    1.016    19 H    0.917
                            18 H    0.912
    10   7 N    3.009 --     9 C    1.016    20 H    0.928    21 H    0.924
    11   1 H    1.015 --     1 C    0.974
    12   1 H    0.996 --     1 C    0.986
    13   1 H    0.995 --     1 C    0.982
    14   1 H    0.988 --     2 C    0.867
    15   1 H    0.986 --     3 C    0.960
    16   1 H    0.987 --     6 C    0.960
    17   1 H    0.988 --     7 C    0.961
    18   1 H    0.995 --     9 C    0.912
    19   1 H    0.991 --     9 C    0.917
    20   1 H    0.944 --    10 N    0.928
    21   1 H    0.938 --    10 N    0.924
 ---------------------------------------------------------------------------

Topologies differ in total number of bonds
Writing topology from bond orders to xtbtopo.mol

 dipole moment from electron density (au)
     X       Y       Z   
   1.1241  -0.7828  -0.2341  total (Debye):    3.532

           -------------------------------------------------
          |                Geometry Summary                 |
           -------------------------------------------------

      molecular mass/u    :      140.1783418
   center of mass at/Å    :       -0.5588849      -0.3278304       0.0386963
  moments of inertia/u·Å² :        0.1842103E+03   0.5794396E+03   0.7143795E+03
rotational constants/cm⁻¹ :        0.9151299E-01   0.2909299E-01   0.2359759E-01

 * 20 selected distances

     #   Z          #   Z                                           value/Å
     2   6 C        3   6 C                                       1.4750808
     3   6 C        4   6 C                                       1.3559192
     4   6 C        5   9 F                                       1.3274797
     4   6 C        6   6 C                                       1.4078152
     6   6 C        7   6 C                                       1.3822892
     2   6 C        8   6 C                                       1.4766941
     7   6 C        8   6 C                                       1.3916023
     8   6 C        9   6 C                                       1.4821766 (max)
     9   6 C       10   7 N                                       1.4445435
     1   6 C       11   1 H                                       1.0872857
     1   6 C       12   1 H                                       1.0871504
     1   6 C       13   1 H                                       1.0874094
     2   6 C       14   1 H                                       1.1014637
     3   6 C       15   1 H                                       1.0830870
     6   6 C       16   1 H                                       1.0839258
     7   6 C       17   1 H                                       1.0841079
     9   6 C       18   1 H                                       1.0980586
     9   6 C       19   1 H                                       1.1012705
    10   7 N       20   1 H                                       1.0104010
    10   7 N       21   1 H                                       1.0098431 (min)

 * 5 distinct bonds (by element types)

   Z      Z             #   av. dist./Å        max./Å        min./Å
   1 H    6 C           9     1.0904177     1.1014637     1.0830870
   6 C    6 C           7     1.4245110     1.4821766     1.3559192
   1 H    7 N           2     1.0101221     1.0104010     1.0098431
   6 C    7 N           1     1.4445435     1.4445435     1.4445435
   6 C    9 F           1     1.3274797     1.3274797     1.3274797


optimized geometry written to: xtbopt.xyz


           -------------------------------------------------
          | TOTAL ENERGY              -30.770592782463 Eh   |
          | GRADIENT NORM               0.000223406054 Eh/α |
          | HOMO-LUMO GAP               0.789683917068 eV   |
           -------------------------------------------------

------------------------------------------------------------------------
 * finished run on 2023/06/20 at 15:14:12.489     
------------------------------------------------------------------------
 total:
 * wall-time:     0 d,  0 h,  0 min,  0.679 sec
 *  cpu-time:     0 d,  0 h,  0 min,  0.617 sec
 * ratio c/w:     0.909 speedup
 SCF:
 * wall-time:     0 d,  0 h,  0 min,  0.038 sec
 *  cpu-time:     0 d,  0 h,  0 min,  0.032 sec
 * ratio c/w:     0.841 speedup
 ANC optimizer:
 * wall-time:     0 d,  0 h,  0 min,  0.576 sec
 *  cpu-time:     0 d,  0 h,  0 min,  0.567 sec
 * ratio c/w:     0.984 speedup

