      -----------------------------------------------------------      
     |                   =====================                   |     
     |                           x T B                           |     
     |                   =====================                   |     
     |                         S. Grimme                         |     
     |          Mulliken Center for Theoretical Chemistry        |     
     |                    University of Bonn                     |     
      -----------------------------------------------------------      

   * xtb version 6.5.1 (579679a) compiled by 'ehlert@majestix' on 2022-07-11

   xtb is free software: you can redistribute it and/or modify it under
   the terms of the GNU Lesser General Public License as published by
   the Free Software Foundation, either version 3 of the License, or
   (at your option) any later version.
   
   xtb is distributed in the hope that it will be useful,
   but WITHOUT ANY WARRANTY; without even the implied warranty of
   MERCHANTABILITY or FITNESS FOR A PARTICULAR PURPOSE.  See the
   GNU Lesser General Public License for more details.
   
   Cite this work as:
   * C. Bannwarth, E. Caldeweyher, S. Ehlert, A. Hansen, P. Pracht,
     J. Seibert, S. Spicher, S. Grimme, WIREs Comput. Mol. Sci., 2020, 11,
     e01493. DOI: 10.1002/wcms.1493
   
   for GFN2-xTB:
   * C. Bannwarth, S. Ehlert and S. Grimme., J. Chem. Theory Comput., 2019,
     15, 1652-1671. DOI: 10.1021/acs.jctc.8b01176
   for GFN1-xTB:
   * S. Grimme, C. Bannwarth, P. Shushkov, J. Chem. Theory Comput., 2017,
     13, 1989-2009. DOI: 10.1021/acs.jctc.7b00118
   for GFN0-xTB:
   * P. Pracht, E. Caldeweyher, S. Ehlert, S. Grimme, ChemRxiv, 2019, preprint.
     DOI: 10.26434/chemrxiv.8326202.v1
   for GFN-FF:
   * S. Spicher and S. Grimme, Angew. Chem. Int. Ed., 2020, 59, 15665-15673.
     DOI: 10.1002/anie.202004239
   
   for ALPB and GBSA implicit solvation:
   * S. Ehlert, M. Stahn, S. Spicher, S. Grimme, J. Chem. Theory Comput.,
     2021, 17, 4250-4261. DOI: 10.1021/acs.jctc.1c00471
   
   for DFT-D4:
   * E. Caldeweyher, C. Bannwarth and S. Grimme, J. Chem. Phys., 2017,
     147, 034112. DOI: 10.1063/1.4993215
   * E. Caldeweyher, S. Ehlert, A. Hansen, H. Neugebauer, S. Spicher,
     C. Bannwarth and S. Grimme, J. Chem. Phys., 2019, 150, 154122.
     DOI: 10.1063/1.5090222
   * E. Caldeweyher, J.-M. Mewes, S. Ehlert and S. Grimme, Phys. Chem. Chem. Phys.
     2020, 22, 8499-8512. DOI: 10.1039/D0CP00502A
   
   for sTDA-xTB:
   * S. Grimme and C. Bannwarth, J. Chem. Phys., 2016, 145, 054103.
     DOI: 10.1063/1.4959605
   
   in the mass-spec context:
   * V. Asgeirsson, C. Bauer and S. Grimme, Chem. Sci., 2017, 8, 4879.
     DOI: 10.1039/c7sc00601b
   * J. Koopman and S. Grimme, ACS Omega 2019, 4, 12, 15120-15133.
     DOI: 10.1021/acsomega.9b02011
   
   for metadynamics refer to:
   * S. Grimme, J. Chem. Theory Comput., 2019, 155, 2847-2862
     DOI: 10.1021/acs.jctc.9b00143
   
   for SPH calculations refer to:
   * S. Spicher and S. Grimme, J. Chem. Theory Comput., 2021, 17, 1701-1714
     DOI: 10.1021/acs.jctc.0c01306
   
   with help from (in alphabetical order)
   P. Atkinson, C. Bannwarth, F. Bohle, G. Brandenburg, E. Caldeweyher
   M. Checinski, S. Dohm, S. Ehlert, S. Ehrlich, I. Gerasimov, C. Hölzer
   A. Katbashev, J. Koopman, C. Lavigne, S. Lehtola, F. März, M. Müller,
   F. Musil, H. Neugebauer, J. Pisarek, C. Plett, P. Pracht, F. Pultar,
   J. Seibert, P. Shushkov, S. Spicher, M. Stahn, M. Steiner, T. Strunk,
   J. Stückrath, T. Rose, and J. Unsleber
   
 * started run on 2023/06/20 at 15:07:45.904     

           -------------------------------------------------
          |                Calculation Setup                |
           -------------------------------------------------

          program call               : /lustre/hpc/kemi/ree/PhD/git/ReactivityQM/dep/xtb-6.5.1/bin/xtb --gfn 1 /lustre/hpc/kemi/ree/PhD/git/ReactivityQM/calculations/R01/reac02prodN07/conf02/R01_reac02prodN07_conf02_gfn1.xyz --opt --vfukui --chrg 1 --uhf 0 --alpb DMSO
          hostname                   : node312
          coordinate file            : /lustre/hpc/kemi/ree/PhD/git/ReactivityQM/calculations/R01/reac02prodN07/conf02/R01_reac02prodN07_conf02_gfn1.xyz
          omp threads                :                     1

   ID    Z sym.   atoms
    1    6 C      1, 3, 5, 6, 8, 11-15
    2    8 O      2, 4, 7, 9
    3    7 N      10, 16, 17
    4    1 H      18-33

           -------------------------------------------------
          |                 G F N 1 - x T B                 |
           -------------------------------------------------

        Reference                      10.1021/acs.jctc.7b00118
      * Hamiltonian:
        H0-scaling (s, p, d)           1.850000    2.250000    2.000000
        zeta-weighting                 0.000000
      * Dispersion:
        s8                             2.400000
        a1                             0.630000
        a2                             5.000000
        s9                             0.000000
      * Repulsion:
        kExp                           1.500000
        rExp                           1.000000
      * Coulomb:
        alpha                          2.000000
        third order                    atomic
        anisotropic                    false
      * Halogen bond correction:
        rad-scale                      1.300000
        damping                        0.440000

      * Solvation model:               ALPB
        Solvent                        DMSO
        Parameter file                 internal GFN1-xTB/ALPB
        Dielectric constant                4.6680E+01
        Reference state                gsolv [1 M gas/solution]
        Free energy shift                  7.6243E-03 Eh       4.7843E+00 kcal/mol
        Temperature                        2.9815E+02 K
        Density                            1.1000E+00 kg/L
        Solvent mass                       7.8130E+01 g/mol
        Interaction kernel             P16
        Born radius scaling (c1)           1.7672E+00
        Born radii integrator          GBOBC
        Born offset                        0.0000E+00 a0       0.0000E+00 AA
        H-bond correction              true
        Ion screening                  false
        Surface tension                    1.0000E-05 Eh       1.5569E+01 dyn/cm
        Grid points                               230 per atom

          ...................................................
          :                      SETUP                      :
          :.................................................:
          :  # basis functions                 100          :
          :  # atomic orbitals                 100          :
          :  # shells                           66          :
          :  # electrons                        94          :
          :  # halogen bonds                     0          :
          :  max. iterations                   250          :
          :  Hamiltonian                  GFN1-xTB          :
          :  restarted?                      false          :
          :  GBSA solvation                   true          :
          :  PC potential                    false          :
          :  electronic temp.          300.0000000     K    :
          :  accuracy                    1.0000000          :
          :  -> integral cutoff          0.2500000E+02      :
          :  -> integral neglect         0.1000000E-07      :
          :  -> SCF convergence          0.1000000E-05 Eh   :
          :  -> wf. convergence          0.2000000E-04 e    :
          :  Broyden damping             0.4000000          :
          ...................................................

 iter      E             dE          RMSdq      gap      omega  full diag
   1    -58.0647391 -0.580647E+02  0.801E+00    0.87       0.0  T
   2    -57.8276416  0.237098E+00  0.566E+00    0.42       1.0  T
   3    -58.1352428 -0.307601E+00  0.369E+00    1.71       1.0  T
   4    -58.2384960 -0.103253E+00  0.204E+00    1.53       1.0  T
   5    -58.2926657 -0.541696E-01  0.123E+00    1.43       1.0  T
   6    -58.3301891 -0.375234E-01  0.513E-01    0.77       1.0  T
   7    -58.2644128  0.657763E-01  0.115E+00    0.19       1.0  T
   8    -58.3189410 -0.545283E-01  0.732E-01    1.24       1.0  T
   9    -58.3263651 -0.742407E-02  0.564E-01    0.90       1.0  T
  10    -58.3354900 -0.912488E-02  0.291E-01    0.47       1.0  T
  11    -58.3396127 -0.412276E-02  0.173E-02    0.30       1.0  T
  12    -58.3390623  0.550408E-03  0.104E-01    0.34       1.0  T
  13    -58.3395787 -0.516404E-03  0.288E-02    0.30       1.0  T
  14    -58.3395733  0.546120E-05  0.317E-02    0.32       1.0  T
  15    -58.3396152 -0.419840E-04  0.150E-02    0.30       1.2  T
  16    -58.3396271 -0.118833E-04  0.326E-03    0.31       5.3  T
  17    -58.3396277 -0.579969E-06  0.299E-05    0.30     582.9  T
  18    -58.3396277  0.244119E-08  0.212E-04    0.30      82.3  T
  19    -58.3396277 -0.235098E-08  0.437E-05    0.30     398.0  T

   *** convergence criteria satisfied after 19 iterations ***

         #    Occupation            Energy/Eh            Energy/eV
      -------------------------------------------------------------
         1        2.0000           -0.8843644             -24.0648
       ...           ...                  ...                  ...
        41        2.0000           -0.5235276             -14.2459
        42        2.0000           -0.5191855             -14.1278
        43        2.0000           -0.5153755             -14.0241
        44        2.0000           -0.5097934             -13.8722
        45        2.0000           -0.4993839             -13.5889
        46        2.0000           -0.4980713             -13.5532
        47        1.9945           -0.4610880             -12.5468 (HOMO)
        48        0.0055           -0.4498820             -12.2419 (LUMO)
        49                         -0.3744996             -10.1907
        50                         -0.2854296              -7.7669
        51                         -0.2283169              -6.2128
        52                         -0.1651635              -4.4943
       ...                                ...                  ...
       100                          0.6634890              18.0545
      -------------------------------------------------------------
                  HL-Gap            0.0112060 Eh            0.3049 eV
             Fermi-level           -0.4554850 Eh          -12.3944 eV

 SCC (total)                   0 d,  0 h,  0 min,  0.097 sec
 SCC setup                      ...        0 min,  0.002 sec (  1.687%)
 Dispersion                     ...        0 min,  0.000 sec (  0.251%)
 classical contributions        ...        0 min,  0.000 sec (  0.129%)
 integral evaluation            ...        0 min,  0.022 sec ( 22.861%)
 iterations                     ...        0 min,  0.028 sec ( 28.457%)
 molecular gradient             ...        0 min,  0.045 sec ( 45.909%)
 printout                       ...        0 min,  0.001 sec (  0.661%)

         :::::::::::::::::::::::::::::::::::::::::::::::::::::
         ::                     SUMMARY                     ::
         :::::::::::::::::::::::::::::::::::::::::::::::::::::
         :: total energy             -57.789196007342 Eh    ::
         :: total w/o Gsasa/hb       -57.766638308793 Eh    ::
         :: gradient norm              0.133309973277 Eh/a0 ::
         :: HOMO-LUMO gap              0.304930391722 eV    ::
         ::.................................................::
         :: SCC energy               -58.339627697894 Eh    ::
         :: -> electrostatic           0.308536842298 Eh    ::
         :: -> Gsolv                  -0.104104776003 Eh    ::
         ::    -> Gelec               -0.081547077454 Eh    ::
         ::    -> Gsasa               -0.017648286577 Eh    ::
         ::    -> Ghb                 -0.012533690978 Eh    ::
         ::    -> Gshift               0.007624279005 Eh    ::
         :: repulsion energy           0.570367317949 Eh    ::
         :: dispersion energy         -0.019935627398 Eh    ::
         :: halogen bond corr.         0.000000000000 Eh    ::
         :: add. restraining           0.000000000000 Eh    ::
         :: total charge               1.000000000000 e     ::
         :::::::::::::::::::::::::::::::::::::::::::::::::::::

      ----------------------------------------------------------- 
     |                   =====================                   |
     |                        A N C O P T                        |
     |                   =====================                   |
     |               Approximate Normal Coordinate               |
     |                Rational Function Optimizer                |
      ----------------------------------------------------------- 

          ...................................................
          :                      SETUP                      :
          :.................................................:
          :   optimization level            normal          :
          :   max. optcycles                   200          :
          :   ANC micro-cycles                  20          :
          :   degrees of freedom                93          :
          :.................................................:
          :   RF solver                   davidson          :
          :   write xtbopt.log                true          :
          :   linear?                        false          :
          :   energy convergence         0.5000000E-05 Eh   :
          :   grad. convergence          0.1000000E-02 Eh/α :
          :   maximium RF displ.         1.0000000          :
          :   Hlow (freq-cutoff)         0.1000000E-01      :
          :   Hmax (freq-cutoff)         5.0000000          :
          :   S6 in model hess.         20.0000000          :
          ...................................................

generating ANC from model Hessian ...
Using Lindh-Hessian (1995)
 Shifting diagonal of input Hessian by   9.421343104116539E-003
 Lowest  eigenvalues of input Hessian
    0.000000    0.000000    0.000000    0.000000    0.000000    0.000000
    0.010000    0.010492    0.011359    0.012356    0.013558    0.014655
    0.015392    0.017107    0.018328    0.018785    0.019392    0.019568
 Highest eigenvalues
    1.672314    1.857922    1.963995    2.057349    2.331519    2.383947
 

........................................................................
.............................. CYCLE    1 ..............................
........................................................................
   1    -58.3396277 -0.583396E+02  0.217E-05    0.30       0.0  T
   2    -58.3396277  0.406359E-09  0.866E-05    0.30     201.1  T
   3    -58.3396277 -0.431797E-09  0.200E-06    0.30    8696.1  T
     SCC iter.                  ...        0 min,  0.006 sec
     gradient                   ...        0 min,  0.056 sec
 * total energy  :   -57.7891960 Eh     change       -0.1055795E-09 Eh
   gradient norm :     0.1333086 Eh/α   predicted     0.0000000E+00 (-100.00%)
   displ. norm   :     0.3172229 α      lambda       -0.1921007E-01
   maximum displ.:     0.1157521 α      in ANC's #24, #14, #21, ...

........................................................................
.............................. CYCLE    2 ..............................
........................................................................
   1    -58.3626074 -0.583626E+02  0.160E-01    0.47       0.0  T
   2    -58.3444584  0.181489E-01  0.574E-01    0.28       1.0  T
   3    -58.3636540 -0.191956E-01  0.809E-02    0.44       1.0  T
   4    -58.3638630 -0.208985E-03  0.426E-02    0.42       1.0  T
   5    -58.3639504 -0.873442E-04  0.902E-03    0.40       1.9  T
   6    -58.3639444  0.596049E-05  0.117E-02    0.39       1.5  T
   7    -58.3639505 -0.612147E-05  0.439E-03    0.40       4.0  T
   8    -58.3639515 -0.101578E-05  0.291E-04    0.40      59.9  T
   9    -58.3639515 -0.211910E-08  0.208E-04    0.40      83.7  T
  10    -58.3639515 -0.183528E-08  0.460E-05    0.40     378.7  T
  11    -58.3639515 -0.618030E-10  0.262E-05    0.40     663.5  T
     SCC iter.                  ...        0 min,  0.021 sec
     gradient                   ...        0 min,  0.056 sec
 * total energy  :   -57.8033401 Eh     change       -0.1414408E-01 Eh
   gradient norm :     0.0658996 Eh/α   predicted    -0.1058300E-01 ( -25.18%)
   displ. norm   :     0.3624807 α      lambda       -0.9286764E-02
   maximum displ.:     0.1489274 α      in ANC's #14, #18, #15, ...

........................................................................
.............................. CYCLE    3 ..............................
........................................................................
   1    -58.3785433 -0.583785E+02  0.115E-01    0.59       0.0  T
   2    -58.3774939  0.104939E-02  0.168E-01    0.47       1.0  T
   3    -58.3790489 -0.155491E-02  0.508E-02    0.57       1.0  T
   4    -58.3791580 -0.109148E-03  0.175E-02    0.54       1.0  T
   5    -58.3791593 -0.128745E-05  0.757E-03    0.54       2.3  T
   6    -58.3791620 -0.269286E-05  0.185E-03    0.54       9.4  T
   7    -58.3791621 -0.137506E-06  0.365E-04    0.54      47.7  T
   8    -58.3791621 -0.881158E-09  0.241E-04    0.54      72.3  T
   9    -58.3791621 -0.224581E-08  0.611E-05    0.54     285.0  T
  10    -58.3791621 -0.166111E-09  0.126E-05    0.54    1377.4  T
     SCC iter.                  ...        0 min,  0.018 sec
     gradient                   ...        0 min,  0.056 sec
 * total energy  :   -57.8086593 Eh     change       -0.5319166E-02 Eh
   gradient norm :     0.0218661 Eh/α   predicted    -0.5255354E-02 (  -1.20%)
   displ. norm   :     0.2512219 α      lambda       -0.1608983E-02
   maximum displ.:     0.1051507 α      in ANC's #14, #15, #3, ...

........................................................................
.............................. CYCLE    4 ..............................
........................................................................
   1    -58.3786244 -0.583786E+02  0.498E-02    0.57       0.0  T
   2    -58.3783586  0.265840E-03  0.877E-02    0.66       1.0  T
   3    -58.3787846 -0.426028E-03  0.124E-02    0.61       1.4  T
   4    -58.3787890 -0.437820E-05  0.316E-03    0.60       5.5  T
   5    -58.3787889  0.286575E-07  0.152E-03    0.60      11.4  T
   6    -58.3787891 -0.121896E-06  0.474E-04    0.60      36.7  T
   7    -58.3787891 -0.103915E-07  0.106E-04    0.60     164.9  T
   8    -58.3787891 -0.237286E-09  0.588E-05    0.60     296.2  T
     SCC iter.                  ...        0 min,  0.015 sec
     gradient                   ...        0 min,  0.056 sec
 * total energy  :   -57.8099304 Eh     change       -0.1271177E-02 Eh
   gradient norm :     0.0186077 Eh/α   predicted    -0.8553949E-03 ( -32.71%)
   displ. norm   :     0.4158417 α      lambda       -0.1916185E-02
   maximum displ.:     0.1905795 α      in ANC's #3, #15, #14, ...

........................................................................
.............................. CYCLE    5 ..............................
........................................................................
   1    -58.3767971 -0.583768E+02  0.108E-01    0.63       0.0  T
   2    -58.3759788  0.818246E-03  0.169E-01    0.81       1.0  T
   3    -58.3775540 -0.157515E-02  0.268E-02    0.71       1.0  T
   4    -58.3775800 -0.260548E-04  0.806E-03    0.69       2.2  T
   5    -58.3775807 -0.657490E-06  0.378E-03    0.69       4.6  T
   6    -58.3775814 -0.750544E-06  0.100E-03    0.69      17.4  T
   7    -58.3775815 -0.139547E-07  0.393E-04    0.69      44.3  T
   8    -58.3775815 -0.729993E-08  0.113E-04    0.69     153.4  T
   9    -58.3775815 -0.272657E-09  0.409E-05    0.69     425.3  T
     SCC iter.                  ...        0 min,  0.016 sec
     gradient                   ...        0 min,  0.056 sec
 * total energy  :   -57.8113030 Eh     change       -0.1372556E-02 Eh
   gradient norm :     0.0180868 Eh/α   predicted    -0.1123804E-02 ( -18.12%)
   displ. norm   :     0.3898545 α      lambda       -0.1246049E-02
   maximum displ.:     0.2256105 α      in ANC's #3, #15, #7, ...

........................................................................
.............................. CYCLE    6 ..............................
........................................................................
   1    -58.3776613 -0.583777E+02  0.102E-01    0.71       0.0  T
   2    -58.3769895  0.671782E-03  0.156E-01    0.87       1.0  T
   3    -58.3783486 -0.135917E-02  0.232E-02    0.78       1.0  T
   4    -58.3783658 -0.171470E-04  0.865E-03    0.77       2.0  T
   5    -58.3783677 -0.192092E-05  0.264E-03    0.76       6.6  T
   6    -58.3783681 -0.412546E-06  0.699E-04    0.77      24.9  T
   7    -58.3783681 -0.187477E-08  0.334E-04    0.77      52.1  T
   8    -58.3783681 -0.504392E-08  0.638E-05    0.77     272.7  T
   9    -58.3783681 -0.120579E-10  0.255E-05    0.77     683.1  T
     SCC iter.                  ...        0 min,  0.017 sec
     gradient                   ...        0 min,  0.056 sec
 * total energy  :   -57.8122867 Eh     change       -0.9836721E-03 Eh
   gradient norm :     0.0188560 Eh/α   predicted    -0.7177223E-03 ( -27.04%)
   displ. norm   :     0.4927373 α      lambda       -0.1565671E-02
   maximum displ.:     0.3211114 α      in ANC's #3, #2, #4, ...

........................................................................
.............................. CYCLE    7 ..............................
........................................................................
   1    -58.3803265 -0.583803E+02  0.136E-01    0.78       0.0  T
   2    -58.3793639  0.962565E-03  0.200E-01    0.99       1.0  T
   3    -58.3815428 -0.217885E-02  0.349E-02    0.87       1.0  T
   4    -58.3815747 -0.319579E-04  0.164E-02    0.86       1.1  T
   5    -58.3815819 -0.720122E-05  0.469E-03    0.85       3.7  T
   6    -58.3815833 -0.136599E-05  0.773E-04    0.86      22.5  T
   7    -58.3815833  0.594752E-08  0.490E-04    0.86      35.5  T
   8    -58.3815833 -0.101606E-07  0.911E-05    0.86     191.0  T
   9    -58.3815833 -0.701377E-10  0.337E-05    0.86     517.3  T
     SCC iter.                  ...        0 min,  0.016 sec
     gradient                   ...        0 min,  0.056 sec
 * total energy  :   -57.8135896 Eh     change       -0.1302953E-02 Eh
   gradient norm :     0.0158855 Eh/α   predicted    -0.9729102E-03 ( -25.33%)
   displ. norm   :     0.6271235 α      lambda       -0.1901952E-02
   maximum displ.:     0.4339201 α      in ANC's #3, #2, #16, ...

........................................................................
.............................. CYCLE    8 ..............................
........................................................................
   1    -58.3805348 -0.583805E+02  0.198E-01    0.88       0.0  T
   2    -58.3791594  0.137531E-02  0.258E-01    1.14       1.0  T
   3    -58.3828746 -0.371513E-02  0.361E-02    0.99       1.0  T
   4    -58.3829088 -0.342041E-04  0.167E-02    0.98       1.0  T
   5    -58.3829159 -0.712229E-05  0.699E-03    0.97       2.5  T
   6    -58.3829183 -0.236724E-05  0.157E-03    0.97      11.1  T
   7    -58.3829184 -0.954398E-07  0.343E-04    0.97      50.7  T
   8    -58.3829184 -0.314406E-08  0.116E-04    0.97     150.5  T
   9    -58.3829184 -0.200878E-09  0.449E-05    0.97     387.8  T
     SCC iter.                  ...        0 min,  0.016 sec
     gradient                   ...        0 min,  0.057 sec
 * total energy  :   -57.8150356 Eh     change       -0.1445997E-02 Eh
   gradient norm :     0.0237404 Eh/α   predicted    -0.1325001E-02 (  -8.37%)
   displ. norm   :     0.5864703 α      lambda       -0.3042337E-02
   maximum displ.:     0.4109258 α      in ANC's #3, #2, #4, ...

........................................................................
.............................. CYCLE    9 ..............................
........................................................................
   1    -58.3980461 -0.583980E+02  0.147E-01    1.01       0.0  T
   2    -58.3972271  0.819076E-03  0.216E-01    1.18       1.0  T
   3    -58.3995237 -0.229664E-02  0.518E-02    1.09       1.0  T
   4    -58.3995733 -0.495803E-04  0.192E-02    1.08       1.0  T
   5    -58.3995786 -0.531161E-05  0.663E-03    1.07       2.6  T
   6    -58.3995813 -0.265841E-05  0.862E-04    1.08      20.2  T
   7    -58.3995813 -0.590643E-08  0.366E-04    1.08      47.5  T
   8    -58.3995813 -0.328293E-08  0.102E-04    1.08     171.0  T
   9    -58.3995813 -0.133582E-10  0.435E-05    1.08     400.3  T
     SCC iter.                  ...        0 min,  0.016 sec
     gradient                   ...        0 min,  0.057 sec
 * total energy  :   -57.8161586 Eh     change       -0.1122952E-02 Eh
   gradient norm :     0.0301486 Eh/α   predicted    -0.2044406E-02 (  82.06%)
   displ. norm   :     0.5945873 α      lambda       -0.2582049E-02
   maximum displ.:     0.4182100 α      in ANC's #3, #2, #16, ...

........................................................................
.............................. CYCLE   10 ..............................
........................................................................
   1    -58.3861696 -0.583862E+02  0.190E-01    1.11       0.0  T
   2    -58.3853678  0.801823E-03  0.220E-01    1.28       1.0  T
   3    -58.3881680 -0.280024E-02  0.152E-02    1.18       1.1  T
   4    -58.3881737 -0.562366E-05  0.680E-03    1.18       2.6  T
   5    -58.3881729  0.723548E-06  0.550E-03    1.18       3.2  T
   6    -58.3881740 -0.107778E-05  0.130E-03    1.18      13.4  T
   7    -58.3881741 -0.518273E-07  0.218E-04    1.18      79.9  T
   8    -58.3881741 -0.391395E-09  0.936E-05    1.18     185.9  T
   9    -58.3881741 -0.158664E-10  0.500E-05    1.18     348.1  T
     SCC iter.                  ...        0 min,  0.016 sec
     gradient                   ...        0 min,  0.057 sec
 * total energy  :   -57.8176268 Eh     change       -0.1468199E-02 Eh
   gradient norm :     0.0291010 Eh/α   predicted    -0.1747461E-02 (  19.02%)
   displ. norm   :     0.3183789 α      lambda       -0.1107425E-02
   maximum displ.:     0.2385125 α      in ANC's #3, #2, #7, ...

........................................................................
.............................. CYCLE   11 ..............................
........................................................................
   1    -58.3882909 -0.583883E+02  0.686E-02    1.20       0.0  T
   2    -58.3881607  0.130160E-03  0.926E-02    1.26       1.0  T
   3    -58.3886171 -0.456356E-03  0.124E-02    1.23       1.4  T
   4    -58.3886201 -0.298170E-05  0.543E-03    1.23       3.2  T
   5    -58.3886207 -0.594088E-06  0.956E-04    1.23      18.2  T
   6    -58.3886207 -0.135922E-07  0.371E-04    1.23      46.9  T
   7    -58.3886207 -0.297826E-08  0.110E-04    1.23     157.6  T
   8    -58.3886207 -0.216097E-09  0.346E-05    1.23     503.1  T
     SCC iter.                  ...        0 min,  0.015 sec
     gradient                   ...        0 min,  0.056 sec
 * total energy  :   -57.8185661 Eh     change       -0.9393410E-03 Eh
   gradient norm :     0.0216968 Eh/α   predicted    -0.6098400E-03 ( -35.08%)
   displ. norm   :     0.5282604 α      lambda       -0.2269110E-02
   maximum displ.:     0.3849965 α      in ANC's #3, #2, #7, ...

........................................................................
.............................. CYCLE   12 ..............................
........................................................................
   1    -58.4003869 -0.584004E+02  0.108E-01    1.28       0.0  T
   2    -58.4002430  0.143859E-03  0.137E-01    1.36       1.0  T
   3    -58.4011735 -0.930548E-03  0.256E-02    1.33       1.0  T
   4    -58.4011800 -0.642404E-05  0.123E-02    1.32       1.4  T
   5    -58.4011832 -0.319895E-05  0.204E-03    1.32       8.5  T
   6    -58.4011833 -0.128583E-06  0.674E-04    1.32      25.8  T
   7    -58.4011833 -0.895486E-08  0.193E-04    1.32      90.0  T
   8    -58.4011833 -0.762967E-09  0.693E-05    1.32     251.3  T
     SCC iter.                  ...        0 min,  0.015 sec
     gradient                   ...        0 min,  0.057 sec
 * total energy  :   -57.8200368 Eh     change       -0.1470684E-02 Eh
   gradient norm :     0.0185367 Eh/α   predicted    -0.1451167E-02 (  -1.33%)
   displ. norm   :     0.7457361 α      lambda       -0.1925252E-02
   maximum displ.:     0.5550500 α      in ANC's #3, #2, #6, ...

........................................................................
.............................. CYCLE   13 ..............................
........................................................................
   1    -58.3936227 -0.583936E+02  0.187E-01    1.39       0.0  T
   2    -58.3935986  0.241011E-04  0.192E-01    1.48       1.0  T
   3    -58.3956310 -0.203241E-02  0.171E-02    1.43       1.0  T
   4    -58.3956342 -0.317588E-05  0.850E-03    1.43       2.0  T
   5    -58.3956351 -0.836269E-06  0.311E-03    1.43       5.6  T
   6    -58.3956353 -0.246204E-06  0.675E-04    1.43      25.8  T
   7    -58.3956353 -0.804025E-08  0.216E-04    1.43      80.7  T
   8    -58.3956353 -0.569557E-09  0.869E-05    1.43     200.3  T
   9    -58.3956353 -0.322586E-10  0.288E-05    1.43     604.9  T
     SCC iter.                  ...        0 min,  0.017 sec
     gradient                   ...        0 min,  0.057 sec
 * total energy  :   -57.8213972 Eh     change       -0.1360422E-02 Eh
   gradient norm :     0.0224698 Eh/α   predicted    -0.1497972E-02 (  10.11%)
   displ. norm   :     0.4566868 α      lambda       -0.1780627E-02
   maximum displ.:     0.2851137 α      in ANC's #3, #2, #6, ...

........................................................................
.............................. CYCLE   14 ..............................
........................................................................
   1    -58.4009245 -0.584009E+02  0.848E-02    1.49       0.0  T
   2    -58.4009971 -0.725646E-04  0.825E-02    1.52       1.0  T
   3    -58.4013414 -0.344348E-03  0.139E-02    1.51       1.3  T
   4    -58.4013419 -0.491893E-06  0.735E-03    1.51       2.4  T
   5    -58.4013424 -0.469498E-06  0.184E-03    1.51       9.5  T
   6    -58.4013425 -0.735748E-07  0.393E-04    1.51      44.3  T
   7    -58.4013425 -0.233256E-08  0.142E-04    1.51     122.7  T
   8    -58.4013425 -0.121631E-09  0.563E-05    1.51     309.1  T
     SCC iter.                  ...        0 min,  0.015 sec
     gradient                   ...        0 min,  0.057 sec
 * total energy  :   -57.8222688 Eh     change       -0.8716045E-03 Eh
   gradient norm :     0.0296577 Eh/α   predicted    -0.1076003E-02 (  23.45%)
   displ. norm   :     0.6092990 α      lambda       -0.2698399E-02
   maximum displ.:     0.4040692 α      in ANC's #3, #2, #6, ...

........................................................................
.............................. CYCLE   15 ..............................
........................................................................
   1    -58.3993744 -0.583994E+02  0.178E-01    1.62       0.0  T
   2    -58.3999308 -0.556447E-03  0.154E-01    1.63       1.0  T
   3    -58.4011713 -0.124051E-02  0.162E-02    1.62       1.1  T
   4    -58.4011730 -0.167137E-05  0.856E-03    1.62       2.0  T
   5    -58.4011734 -0.433845E-06  0.314E-03    1.62       5.5  T
   6    -58.4011736 -0.171845E-06  0.668E-04    1.62      26.0  T
   7    -58.4011736 -0.566801E-08  0.225E-04    1.62      77.5  T
   8    -58.4011736 -0.673495E-09  0.961E-05    1.62     181.2  T
   9    -58.4011736 -0.388951E-10  0.218E-05    1.62     799.3  T
     SCC iter.                  ...        0 min,  0.017 sec
     gradient                   ...        0 min,  0.057 sec
 * total energy  :   -57.8237604 Eh     change       -0.1491545E-02 Eh
   gradient norm :     0.0327797 Eh/α   predicted    -0.1850086E-02 (  24.04%)
   displ. norm   :     0.3692906 α      lambda       -0.1691629E-02
   maximum displ.:     0.2356873 α      in ANC's #3, #6, #2, ...

........................................................................
.............................. CYCLE   16 ..............................
........................................................................
   1    -58.4092290 -0.584092E+02  0.116E-01    1.69       0.0  T
   2    -58.4095312 -0.302150E-03  0.988E-02    1.68       1.0  T
   3    -58.4100158 -0.484628E-03  0.127E-02    1.68       1.4  T
   4    -58.4100163 -0.470206E-06  0.709E-03    1.68       2.5  T
   5    -58.4100166 -0.355288E-06  0.170E-03    1.68      10.2  T
   6    -58.4100167 -0.408997E-07  0.448E-04    1.68      38.8  T
   7    -58.4100167 -0.312875E-08  0.173E-04    1.68     100.4  T
   8    -58.4100167 -0.326970E-09  0.720E-05    1.68     241.7  T
     SCC iter.                  ...        0 min,  0.015 sec
     gradient                   ...        0 min,  0.057 sec
 * total energy  :   -57.8250212 Eh     change       -0.1260848E-02 Eh
   gradient norm :     0.0315205 Eh/α   predicted    -0.9611643E-03 ( -23.77%)
   displ. norm   :     0.4735147 α      lambda       -0.2691875E-02
   maximum displ.:     0.2559980 α      in ANC's #3, #2, #4, ...

........................................................................
.............................. CYCLE   17 ..............................
........................................................................
   1    -58.4228604 -0.584229E+02  0.129E-01    1.84       0.0  T
   2    -58.4233970 -0.536619E-03  0.814E-02    1.81       1.0  T
   3    -58.4237267 -0.329689E-03  0.177E-02    1.81       1.0  T
   4    -58.4237300 -0.328386E-05  0.923E-03    1.81       1.9  T
   5    -58.4237303 -0.346063E-06  0.289E-03    1.81       6.0  T
   6    -58.4237304 -0.122606E-06  0.650E-04    1.81      26.8  T
   7    -58.4237305 -0.754706E-08  0.214E-04    1.81      81.4  T
   8    -58.4237305 -0.268344E-09  0.932E-05    1.81     186.8  T
   9    -58.4237305 -0.430802E-10  0.188E-05    1.81     925.3  T
     SCC iter.                  ...        0 min,  0.016 sec
     gradient                   ...        0 min,  0.057 sec
 * total energy  :   -57.8270123 Eh     change       -0.1991131E-02 Eh
   gradient norm :     0.0305921 Eh/α   predicted    -0.1647722E-02 ( -17.25%)
   displ. norm   :     0.6483541 α      lambda       -0.3756521E-02
   maximum displ.:     0.3770385 α      in ANC's #3, #2, #4, ...

........................................................................
.............................. CYCLE   18 ..............................
........................................................................
   1    -58.4323791 -0.584324E+02  0.222E-01    2.11       0.0  T
   2    -58.4341989 -0.181985E-02  0.128E-01    1.97       1.0  T
   3    -58.4348942 -0.695249E-03  0.247E-02    1.99       1.0  T
   4    -58.4349000 -0.579760E-05  0.139E-02    1.98       1.2  T
   5    -58.4349008 -0.850113E-06  0.388E-03    1.98       4.5  T
   6    -58.4349010 -0.193474E-06  0.128E-03    1.98      13.6  T
   7    -58.4349011 -0.303326E-07  0.404E-04    1.98      43.1  T
   8    -58.4349011 -0.165411E-08  0.160E-04    1.98     108.7  T
   9    -58.4349011 -0.115818E-09  0.352E-05    1.98     494.6  T
     SCC iter.                  ...        0 min,  0.016 sec
     gradient                   ...        0 min,  0.057 sec
 * total energy  :   -57.8305640 Eh     change       -0.3551644E-02 Eh
   gradient norm :     0.0359249 Eh/α   predicted    -0.2667818E-02 ( -24.88%)
   displ. norm   :     0.6747999 α      lambda       -0.8473568E-02
   maximum displ.:     0.2037044 α      in ANC's #80, #29, #11, ...

........................................................................
.............................. CYCLE   19 ..............................
........................................................................
   1    -58.4620249 -0.584620E+02  0.281E-01    2.53       0.0  T
   2    -58.4647281 -0.270318E-02  0.125E-01    2.23       1.0  T
   3    -58.4651586 -0.430564E-03  0.468E-02    2.23       1.0  T
   4    -58.4651763 -0.177162E-04  0.219E-02    2.19       1.0  T
   5    -58.4651775 -0.116424E-05  0.578E-03    2.18       3.0  T
   6    -58.4651779 -0.372968E-06  0.194E-03    2.18       9.0  T
   7    -58.4651780 -0.848895E-07  0.571E-04    2.19      30.5  T
   8    -58.4651780 -0.208643E-08  0.184E-04    2.19      94.7  T
   9    -58.4651780 -0.138670E-09  0.527E-05    2.19     330.4  T
     SCC iter.                  ...        0 min,  0.016 sec
     gradient                   ...        0 min,  0.057 sec
 * total energy  :   -57.8345397 Eh     change       -0.3975733E-02 Eh
   gradient norm :     0.0770417 Eh/α   predicted    -0.6166024E-02 (  55.09%)
   displ. norm   :     0.6323037 α      lambda       -0.8022095E-02
   maximum displ.:     0.4104581 α      in ANC's #3, #2, #7, ...

........................................................................
.............................. CYCLE   20 ..............................
........................................................................
   1    -58.4398709 -0.584399E+02  0.108E-01    2.38       0.0  T
   2    -58.4402769 -0.405956E-03  0.493E-02    2.25       1.0  T
   3    -58.4403218 -0.449465E-04  0.212E-02    2.25       1.0  T
   4    -58.4403236 -0.178287E-05  0.980E-03    2.23       1.8  T
   5    -58.4403238 -0.253422E-06  0.263E-03    2.23       6.6  T
   6    -58.4403240 -0.107342E-06  0.612E-04    2.23      28.5  T
   7    -58.4403240 -0.100475E-07  0.202E-04    2.23      86.0  T
   8    -58.4403240 -0.472561E-09  0.898E-05    2.23     193.8  T
   9    -58.4403240 -0.406075E-10  0.200E-05    2.23     870.8  T
     SCC iter.                  ...        0 min,  0.016 sec
     gradient                   ...        0 min,  0.057 sec
 * total energy  :   -57.8379666 Eh     change       -0.3426921E-02 Eh
   gradient norm :     0.0672193 Eh/α   predicted    -0.5614696E-02 (  63.84%)
   displ. norm   :     0.5819191 α      lambda       -0.1046033E-01
   maximum displ.:     0.1945321 α      in ANC's #24, #6, #59, ...
 * RMSD in coord.:     1.3126235 α      energy gain  -0.4877063E-01 Eh

generating ANC from model Hessian ...
Using Lindh-Hessian (1995)
 Shifting diagonal of input Hessian by   9.869154779664492E-003
 Lowest  eigenvalues of input Hessian
    0.000000    0.000000    0.000000    0.000000    0.000000    0.000000
    0.010000    0.010122    0.010595    0.011489    0.011794    0.012095
    0.013413    0.013611    0.013725    0.015766    0.018734    0.019741
 Highest eigenvalues
    1.892813    1.948104    2.055245    2.139776    2.348383    2.367464
 

........................................................................
.............................. CYCLE   21 ..............................
........................................................................
   1    -58.4092741 -0.584093E+02  0.128E-01    1.91       0.0  T
   2    -58.4097323 -0.458150E-03  0.725E-02    1.99       1.0  T
   3    -58.4098507 -0.118474E-03  0.307E-02    1.98       1.0  T
   4    -58.4098518 -0.109799E-05  0.113E-02    1.98       1.5  T
   5    -58.4098527 -0.823754E-06  0.210E-03    1.98       8.3  T
   6    -58.4098528 -0.100325E-06  0.669E-04    1.98      26.0  T
   7    -58.4098528 -0.569264E-08  0.227E-04    1.98      76.6  T
   8    -58.4098528 -0.408590E-09  0.671E-05    1.98     259.3  T
   9    -58.4098528 -0.448779E-10  0.171E-05    1.98    1018.3  T
     SCC iter.                  ...        0 min,  0.017 sec
     gradient                   ...        0 min,  0.057 sec
 * total energy  :   -57.8393249 Eh     change       -0.1358229E-02 Eh
   gradient norm :     0.0714395 Eh/α   predicted     0.0000000E+00 (-100.00%)
   displ. norm   :     0.3518357 α      lambda       -0.1210986E-01
   maximum displ.:     0.1330679 α      in ANC's #18, #7, #10, ...

........................................................................
.............................. CYCLE   22 ..............................
........................................................................
   1    -58.4452418 -0.584452E+02  0.990E-02    2.18       0.0  T
   2    -58.4454662 -0.224346E-03  0.392E-02    2.07       1.0  T
   3    -58.4454882 -0.220503E-04  0.221E-02    2.06       1.0  T
   4    -58.4454908 -0.251247E-05  0.851E-03    2.04       2.0  T
   5    -58.4454909 -0.167975E-06  0.195E-03    2.04       8.9  T
   6    -58.4454910 -0.762523E-07  0.627E-04    2.04      27.7  T
   7    -58.4454910 -0.103709E-07  0.153E-04    2.04     113.9  T
   8    -58.4454910 -0.279243E-09  0.648E-05    2.04     268.6  T
     SCC iter.                  ...        0 min,  0.015 sec
     gradient                   ...        0 min,  0.057 sec
 * total energy  :   -57.8483595 Eh     change       -0.9034684E-02 Eh
   gradient norm :     0.0333278 Eh/α   predicted    -0.6806977E-02 ( -24.66%)
   displ. norm   :     0.5045383 α      lambda       -0.7697082E-02
   maximum displ.:     0.2317793 α      in ANC's #10, #7, #18, ...

........................................................................
.............................. CYCLE   23 ..............................
........................................................................
   1    -58.4677726 -0.584678E+02  0.853E-02    2.25       0.0  T
   2    -58.4679899 -0.217275E-03  0.346E-02    2.15       1.0  T
   3    -58.4680153 -0.253959E-04  0.159E-02    2.14       1.1  T
   4    -58.4680166 -0.127726E-05  0.740E-03    2.12       2.4  T
   5    -58.4680167 -0.736700E-07  0.173E-03    2.11      10.1  T
   6    -58.4680167 -0.418813E-07  0.554E-04    2.11      31.4  T
   7    -58.4680167 -0.601475E-08  0.122E-04    2.12     142.2  T
   8    -58.4680167 -0.200217E-09  0.447E-05    2.12     389.7  T
     SCC iter.                  ...        0 min,  0.015 sec
     gradient                   ...        0 min,  0.056 sec
 * total energy  :   -57.8533504 Eh     change       -0.4990824E-02 Eh
   gradient norm :     0.0239052 Eh/α   predicted    -0.4828221E-02 (  -3.26%)
   displ. norm   :     0.4386973 α      lambda       -0.3092509E-02
   maximum displ.:     0.2258255 α      in ANC's #7, #10, #21, ...

........................................................................
.............................. CYCLE   24 ..............................
........................................................................
   1    -58.4714133 -0.584714E+02  0.328E-02    2.18       0.0  T
   2    -58.4714615 -0.481227E-04  0.149E-02    2.14       1.2  T
   3    -58.4714678 -0.632429E-05  0.425E-03    2.13       4.1  T
   4    -58.4714679 -0.118232E-06  0.268E-03    2.13       6.5  T
   5    -58.4714679 -0.194131E-07  0.854E-04    2.12      20.4  T
   6    -58.4714679 -0.590171E-08  0.251E-04    2.12      69.3  T
   7    -58.4714679 -0.928566E-09  0.430E-05    2.12     404.9  T
   8    -58.4714679 -0.218989E-10  0.162E-05    2.12    1073.1  T
     SCC iter.                  ...        0 min,  0.015 sec
     gradient                   ...        0 min,  0.057 sec
 * total energy  :   -57.8556693 Eh     change       -0.2318948E-02 Eh
   gradient norm :     0.0186475 Eh/α   predicted    -0.1844173E-02 ( -20.47%)
   displ. norm   :     0.4886245 α      lambda       -0.2273712E-02
   maximum displ.:     0.2870143 α      in ANC's #10, #7, #8, ...

........................................................................
.............................. CYCLE   25 ..............................
........................................................................
   1    -58.4699965 -0.584700E+02  0.183E-02    2.13       0.0  T
   2    -58.4700124 -0.158443E-04  0.934E-03    2.11       1.9  T
   3    -58.4700141 -0.174322E-05  0.376E-03    2.11       4.6  T
   4    -58.4700142 -0.423293E-07  0.200E-03    2.10       8.7  T
   5    -58.4700142 -0.754287E-08  0.557E-04    2.10      31.3  T
   6    -58.4700142 -0.255908E-08  0.153E-04    2.10     113.6  T
   7    -58.4700142 -0.472689E-09  0.276E-05    2.10     630.5  T
     SCC iter.                  ...        0 min,  0.013 sec
     gradient                   ...        0 min,  0.056 sec
 * total energy  :   -57.8572487 Eh     change       -0.1579428E-02 Eh
   gradient norm :     0.0103223 Eh/α   predicted    -0.1408283E-02 ( -10.84%)
   displ. norm   :     0.4195770 α      lambda       -0.1049547E-02
   maximum displ.:     0.2428724 α      in ANC's #7, #10, #8, ...

........................................................................
.............................. CYCLE   26 ..............................
........................................................................
   1    -58.4692537 -0.584693E+02  0.104E-02    2.09       0.0  T
   2    -58.4692581 -0.433920E-05  0.532E-03    2.08       3.3  T
   3    -58.4692586 -0.545908E-06  0.222E-03    2.08       7.8  T
   4    -58.4692586 -0.123859E-07  0.923E-04    2.08      18.9  T
   5    -58.4692586 -0.149048E-08  0.306E-04    2.08      56.8  T
   6    -58.4692586 -0.955943E-09  0.797E-05    2.08     218.4  T
   7    -58.4692586 -0.118625E-09  0.168E-05    2.08    1038.3  T
     SCC iter.                  ...        0 min,  0.013 sec
     gradient                   ...        0 min,  0.056 sec
 * total energy  :   -57.8580112 Eh     change       -0.7624659E-03 Eh
   gradient norm :     0.0091404 Eh/α   predicted    -0.6171580E-03 ( -19.06%)
   displ. norm   :     0.4385264 α      lambda       -0.7678252E-03
   maximum displ.:     0.2620080 α      in ANC's #7, #10, #6, ...

........................................................................
.............................. CYCLE   27 ..............................
........................................................................
   1    -58.4707219 -0.584707E+02  0.103E-02    2.06       0.0  T
   2    -58.4707249 -0.302802E-05  0.453E-03    2.06       3.8  T
   3    -58.4707253 -0.408734E-06  0.207E-03    2.06       8.4  T
   4    -58.4707254 -0.212160E-07  0.856E-04    2.05      20.3  T
   5    -58.4707254 -0.195254E-08  0.272E-04    2.05      64.0  T
   6    -58.4707254 -0.493273E-09  0.892E-05    2.05     195.1  T
   7    -58.4707254 -0.107029E-09  0.193E-05    2.05     902.6  T
     SCC iter.                  ...        0 min,  0.013 sec
     gradient                   ...        0 min,  0.056 sec
 * total energy  :   -57.8585943 Eh     change       -0.5830855E-03 Eh
   gradient norm :     0.0084997 Eh/α   predicted    -0.4577481E-03 ( -21.50%)
   displ. norm   :     0.5107108 α      lambda       -0.6948581E-03
   maximum displ.:     0.2945551 α      in ANC's #7, #10, #6, ...

........................................................................
.............................. CYCLE   28 ..............................
........................................................................
   1    -58.4705999 -0.584706E+02  0.123E-02    2.05       0.0  T
   2    -58.4706034 -0.340480E-05  0.504E-03    2.04       3.5  T
   3    -58.4706037 -0.368208E-06  0.261E-03    2.04       6.7  T
   4    -58.4706038 -0.339533E-07  0.927E-04    2.04      18.8  T
   5    -58.4706038 -0.284210E-08  0.264E-04    2.04      66.0  T
   6    -58.4706038 -0.646615E-09  0.952E-05    2.04     182.9  T
   7    -58.4706038 -0.921361E-10  0.217E-05    2.04     803.4  T
     SCC iter.                  ...        0 min,  0.013 sec
     gradient                   ...        0 min,  0.056 sec
 * total energy  :   -57.8590873 Eh     change       -0.4929531E-03 Eh
   gradient norm :     0.0088333 Eh/α   predicted    -0.4380506E-03 ( -11.14%)
   displ. norm   :     0.4548515 α      lambda       -0.5134835E-03
   maximum displ.:     0.2514974 α      in ANC's #7, #10, #6, ...

........................................................................
.............................. CYCLE   29 ..............................
........................................................................
   1    -58.4724167 -0.584724E+02  0.102E-02    2.02       0.0  T
   2    -58.4724189 -0.218082E-05  0.426E-03    2.02       4.1  T
   3    -58.4724191 -0.160178E-06  0.226E-03    2.02       7.7  T
   4    -58.4724191 -0.230877E-07  0.737E-04    2.02      23.6  T
   5    -58.4724191 -0.295089E-08  0.229E-04    2.02      75.9  T
   6    -58.4724191 -0.406928E-09  0.803E-05    2.02     216.7  T
   7    -58.4724191 -0.649365E-10  0.231E-05    2.02     752.7  T
     SCC iter.                  ...        0 min,  0.013 sec
     gradient                   ...        0 min,  0.056 sec
 * total energy  :   -57.8594726 Eh     change       -0.3853770E-03 Eh
   gradient norm :     0.0083140 Eh/α   predicted    -0.3098928E-03 ( -19.59%)
   displ. norm   :     0.5850422 α      lambda       -0.5267808E-03
   maximum displ.:     0.3053681 α      in ANC's #7, #6, #10, ...

........................................................................
.............................. CYCLE   30 ..............................
........................................................................
   1    -58.4714369 -0.584714E+02  0.107E-02    2.02       0.0  T
   2    -58.4714409 -0.395637E-05  0.445E-03    2.02       3.9  T
   3    -58.4714412 -0.335002E-06  0.201E-03    2.02       8.7  T
   4    -58.4714413 -0.202931E-07  0.796E-04    2.02      21.9  T
   5    -58.4714413 -0.325760E-08  0.218E-04    2.02      79.9  T
   6    -58.4714413 -0.299430E-09  0.927E-05    2.02     187.8  T
   7    -58.4714413 -0.720064E-10  0.275E-05    2.02     634.0  T
     SCC iter.                  ...        0 min,  0.013 sec
     gradient                   ...        0 min,  0.056 sec
 * total energy  :   -57.8597992 Eh     change       -0.3265214E-03 Eh
   gradient norm :     0.0083010 Eh/α   predicted    -0.3535523E-03 (   8.28%)
   displ. norm   :     0.2275824 α      lambda       -0.3311133E-03
   maximum displ.:     0.1076070 α      in ANC's #6, #2, #7, ...

........................................................................
.............................. CYCLE   31 ..............................
........................................................................
   1    -58.4753508 -0.584754E+02  0.113E-02    2.04       0.0  T
   2    -58.4753526 -0.180391E-05  0.520E-03    2.04       3.3  T
   3    -58.4753527 -0.118009E-06  0.280E-03    2.04       6.2  T
   4    -58.4753527 -0.304213E-07  0.700E-04    2.04      24.9  T
   5    -58.4753528 -0.546932E-08  0.185E-04    2.04      94.0  T
   6    -58.4753528 -0.536794E-09  0.531E-05    2.04     327.6  T
     SCC iter.                  ...        0 min,  0.011 sec
     gradient                   ...        0 min,  0.055 sec
 * total energy  :   -57.8600412 Eh     change       -0.2420709E-03 Eh
   gradient norm :     0.0065082 Eh/α   predicted    -0.1741383E-03 ( -28.06%)
   displ. norm   :     0.5312078 α      lambda       -0.5828454E-03
   maximum displ.:     0.2560843 α      in ANC's #6, #2, #9, ...

........................................................................
.............................. CYCLE   32 ..............................
........................................................................
   1    -58.4742350 -0.584742E+02  0.164E-02    2.06       0.0  T
   2    -58.4742413 -0.630626E-05  0.714E-03    2.07       2.4  T
   3    -58.4742417 -0.445995E-06  0.401E-03    2.07       4.3  T
   4    -58.4742418 -0.352753E-07  0.125E-03    2.07      13.9  T
   5    -58.4742418 -0.125610E-07  0.307E-04    2.07      56.6  T
   6    -58.4742418 -0.182934E-08  0.115E-04    2.07     150.8  T
   7    -58.4742418 -0.121439E-09  0.366E-05    2.07     475.6  T
     SCC iter.                  ...        0 min,  0.013 sec
     gradient                   ...        0 min,  0.055 sec
 * total energy  :   -57.8604318 Eh     change       -0.3906252E-03 Eh
   gradient norm :     0.0117111 Eh/α   predicted    -0.3736661E-03 (  -4.34%)
   displ. norm   :     0.5132674 α      lambda       -0.4894706E-03
   maximum displ.:     0.2581451 α      in ANC's #6, #2, #9, ...

........................................................................
.............................. CYCLE   33 ..............................
........................................................................
   1    -58.4700485 -0.584700E+02  0.121E-02    2.06       0.0  T
   2    -58.4700511 -0.268433E-05  0.527E-03    2.07       3.3  T
   3    -58.4700513 -0.186397E-06  0.292E-03    2.07       6.0  T
   4    -58.4700514 -0.379718E-07  0.852E-04    2.07      20.4  T
   5    -58.4700514 -0.526600E-08  0.270E-04    2.07      64.4  T
   6    -58.4700514 -0.102293E-08  0.796E-05    2.07     218.6  T
   7    -58.4700514 -0.757581E-10  0.227E-05    2.07     766.8  T
     SCC iter.                  ...        0 min,  0.013 sec
     gradient                   ...        0 min,  0.056 sec
 * total energy  :   -57.8608230 Eh     change       -0.3911209E-03 Eh
   gradient norm :     0.0130925 Eh/α   predicted    -0.3092141E-03 ( -20.94%)
   displ. norm   :     0.4782019 α      lambda       -0.6006887E-03
   maximum displ.:     0.2439779 α      in ANC's #6, #2, #9, ...

........................................................................
.............................. CYCLE   34 ..............................
........................................................................
   1    -58.4695103 -0.584695E+02  0.107E-02    2.06       0.0  T
   2    -58.4695121 -0.179332E-05  0.554E-03    2.07       3.1  T
   3    -58.4695123 -0.205577E-06  0.301E-03    2.07       5.8  T
   4    -58.4695123 -0.841539E-07  0.777E-04    2.07      22.4  T
   5    -58.4695123 -0.279243E-08  0.215E-04    2.07      80.9  T
   6    -58.4695123 -0.493721E-09  0.678E-05    2.07     256.7  T
   7    -58.4695123 -0.337366E-10  0.200E-05    2.07     871.7  T
     SCC iter.                  ...        0 min,  0.013 sec
     gradient                   ...        0 min,  0.056 sec
 * total energy  :   -57.8612429 Eh     change       -0.4199777E-03 Eh
   gradient norm :     0.0110698 Eh/α   predicted    -0.3690305E-03 ( -12.13%)
   displ. norm   :     0.5817781 α      lambda       -0.4720701E-03
   maximum displ.:     0.2874748 α      in ANC's #6, #2, #7, ...

........................................................................
.............................. CYCLE   35 ..............................
........................................................................
   1    -58.4657872 -0.584658E+02  0.122E-02    2.05       0.0  T
   2    -58.4657892 -0.199804E-05  0.651E-03    2.06       2.7  T
   3    -58.4657894 -0.198077E-06  0.337E-03    2.06       5.2  T
   4    -58.4657896 -0.118618E-06  0.819E-04    2.06      21.3  T
   5    -58.4657896 -0.317803E-08  0.255E-04    2.06      68.4  T
   6    -58.4657896 -0.100248E-08  0.827E-05    2.06     210.4  T
   7    -58.4657896 -0.582716E-10  0.165E-05    2.06    1052.8  T
     SCC iter.                  ...        0 min,  0.014 sec
     gradient                   ...        0 min,  0.055 sec
 * total energy  :   -57.8615247 Eh     change       -0.2817993E-03 Eh
   gradient norm :     0.0126267 Eh/α   predicted    -0.3159252E-03 (  12.11%)
   displ. norm   :     0.3106572 α      lambda       -0.7454417E-03
   maximum displ.:     0.1911500 α      in ANC's #1, #2, #6, ...

........................................................................
.............................. CYCLE   36 ..............................
........................................................................
   1    -58.4800122 -0.584800E+02  0.282E-02    2.08       0.0  T
   2    -58.4800373 -0.251554E-04  0.121E-02    2.08       1.4  T
   3    -58.4800387 -0.134374E-05  0.644E-03    2.08       2.7  T
   4    -58.4800388 -0.743761E-07  0.276E-03    2.08       6.3  T
   5    -58.4800388 -0.635637E-07  0.417E-04    2.08      41.8  T
   6    -58.4800388 -0.369481E-08  0.126E-04    2.08     138.0  T
   7    -58.4800388 -0.205283E-09  0.444E-05    2.08     391.7  T
     SCC iter.                  ...        0 min,  0.013 sec
     gradient                   ...        0 min,  0.055 sec
 * total energy  :   -57.8617323 Eh     change       -0.2075731E-03 Eh
   gradient norm :     0.0168068 Eh/α   predicted    -0.4086925E-03 (  96.89%)
   displ. norm   :     0.3782688 α      lambda       -0.4902309E-03
   maximum displ.:     0.1777096 α      in ANC's #6, #7, #2, ...

........................................................................
.............................. CYCLE   37 ..............................
........................................................................
   1    -58.4738007 -0.584738E+02  0.137E-02    2.07       0.0  T
   2    -58.4738060 -0.524762E-05  0.541E-03    2.08       3.2  T
   3    -58.4738062 -0.184718E-06  0.293E-03    2.08       5.9  T
   4    -58.4738062 -0.771860E-08  0.109E-03    2.08      15.9  T
   5    -58.4738062 -0.997464E-08  0.226E-04    2.08      77.0  T
   6    -58.4738062 -0.701768E-09  0.728E-05    2.08     239.2  T
   7    -58.4738062 -0.731717E-10  0.240E-05    2.08     724.0  T
     SCC iter.                  ...        0 min,  0.013 sec
     gradient                   ...        0 min,  0.056 sec
 * total energy  :   -57.8620743 Eh     change       -0.3420184E-03 Eh
   gradient norm :     0.0091618 Eh/α   predicted    -0.2801898E-03 ( -18.08%)
   displ. norm   :     0.2550307 α      lambda       -0.3116831E-03
   maximum displ.:     0.1362527 α      in ANC's #1, #6, #2, ...

........................................................................
.............................. CYCLE   38 ..............................
........................................................................
   1    -58.4728410 -0.584728E+02  0.130E-02    2.10       0.0  T
   2    -58.4728487 -0.770706E-05  0.569E-03    2.10       3.1  T
   3    -58.4728492 -0.484062E-06  0.275E-03    2.10       6.3  T
   4    -58.4728492 -0.632609E-08  0.152E-03    2.10      11.5  T
   5    -58.4728492 -0.135364E-07  0.218E-04    2.10      79.8  T
   6    -58.4728492 -0.643908E-09  0.693E-05    2.10     251.1  T
   7    -58.4728492 -0.738964E-10  0.243E-05    2.10     715.3  T
     SCC iter.                  ...        0 min,  0.013 sec
     gradient                   ...        0 min,  0.056 sec
 * total energy  :   -57.8622827 Eh     change       -0.2083636E-03 Eh
   gradient norm :     0.0063910 Eh/α   predicted    -0.1659799E-03 ( -20.34%)
   displ. norm   :     0.4095420 α      lambda       -0.2505143E-03
   maximum displ.:     0.2296181 α      in ANC's #1, #6, #2, ...

........................................................................
.............................. CYCLE   39 ..............................
........................................................................
   1    -58.4727505 -0.584728E+02  0.632E-03    2.10       0.0  T
   2    -58.4727515 -0.939464E-06  0.264E-03    2.10       6.6  T
   3    -58.4727516 -0.898145E-07  0.135E-03    2.10      12.9  T
   4    -58.4727516 -0.885061E-08  0.422E-04    2.10      41.2  T
   5    -58.4727516 -0.348571E-09  0.131E-04    2.10     132.9  T
   6    -58.4727516 -0.746567E-10  0.346E-05    2.10     502.9  T
     SCC iter.                  ...        0 min,  0.012 sec
     gradient                   ...        0 min,  0.055 sec
 * total energy  :   -57.8624786 Eh     change       -0.1958812E-03 Eh
   gradient norm :     0.0073945 Eh/α   predicted    -0.1462684E-03 ( -25.33%)
   displ. norm   :     0.4546364 α      lambda       -0.3159916E-03
   maximum displ.:     0.2991885 α      in ANC's #1, #2, #6, ...

........................................................................
.............................. CYCLE   40 ..............................
........................................................................
   1    -58.4760845 -0.584761E+02  0.779E-03    2.11       0.0  T
   2    -58.4760852 -0.705755E-06  0.390E-03    2.11       4.5  T
   3    -58.4760853 -0.728187E-07  0.202E-03    2.11       8.6  T
   4    -58.4760853 -0.232347E-07  0.520E-04    2.11      33.5  T
   5    -58.4760853 -0.149677E-08  0.171E-04    2.11     101.6  T
   6    -58.4760853 -0.484413E-09  0.529E-05    2.11     329.1  T
     SCC iter.                  ...        0 min,  0.012 sec
     gradient                   ...        0 min,  0.055 sec
 * total energy  :   -57.8627030 Eh     change       -0.2244534E-03 Eh
   gradient norm :     0.0062561 Eh/α   predicted    -0.1906569E-03 ( -15.06%)
   displ. norm   :     0.5291557 α      lambda       -0.2685515E-03
   maximum displ.:     0.3560714 α      in ANC's #1, #2, #6, ...

........................................................................
.............................. CYCLE   41 ..............................
........................................................................
   1    -58.4755843 -0.584756E+02  0.933E-03    2.12       0.0  T
   2    -58.4755864 -0.202440E-05  0.435E-03    2.12       4.0  T
   3    -58.4755865 -0.166883E-06  0.231E-03    2.12       7.5  T
   4    -58.4755866 -0.297766E-07  0.741E-04    2.13      23.5  T
   5    -58.4755866 -0.280286E-08  0.259E-04    2.13      67.3  T
   6    -58.4755866 -0.879425E-09  0.674E-05    2.13     258.2  T
   7    -58.4755866 -0.606164E-10  0.195E-05    2.13     892.4  T
     SCC iter.                  ...        0 min,  0.014 sec
     gradient                   ...        0 min,  0.055 sec
 * total energy  :   -57.8629083 Eh     change       -0.2052589E-03 Eh
   gradient norm :     0.0070105 Eh/α   predicted    -0.1718754E-03 ( -16.26%)
   displ. norm   :     0.5797578 α      lambda       -0.3267747E-03
   maximum displ.:     0.4251174 α      in ANC's #1, #2, #6, ...

........................................................................
.............................. CYCLE   42 ..............................
........................................................................
   1    -58.4774666 -0.584775E+02  0.102E-02    2.13       0.0  T
   2    -58.4774687 -0.210063E-05  0.461E-03    2.14       3.8  T
   3    -58.4774689 -0.141996E-06  0.251E-03    2.14       6.9  T
   4    -58.4774689 -0.228135E-07  0.724E-04    2.14      24.0  T
   5    -58.4774689 -0.234393E-08  0.275E-04    2.14      63.4  T
   6    -58.4774689 -0.826269E-09  0.845E-05    2.14     206.0  T
   7    -58.4774689 -0.971454E-10  0.170E-05    2.14    1022.2  T
     SCC iter.                  ...        0 min,  0.014 sec
     gradient                   ...        0 min,  0.056 sec
 * total energy  :   -57.8631475 Eh     change       -0.2392382E-03 Eh
   gradient norm :     0.0081007 Eh/α   predicted    -0.2183066E-03 (  -8.75%)
   displ. norm   :     0.6024778 α      lambda       -0.3995434E-03
   maximum displ.:     0.4611180 α      in ANC's #1, #2, #8, ...
 * RMSD in coord.:     1.4619520 α      energy gain  -0.2518090E-01 Eh

generating ANC from model Hessian ...
Using Lindh-Hessian (1995)
 Shifting diagonal of input Hessian by   9.839183416586317E-003
 Lowest  eigenvalues of input Hessian
    0.000000    0.000000    0.000000    0.000000    0.000000    0.000000
    0.010000    0.010066    0.010263    0.010441    0.010577    0.010698
    0.012009    0.013494    0.013755    0.015100    0.018972    0.020142
 Highest eigenvalues
    1.999278    2.028631    2.201246    2.226903    2.388062    2.446677
 

........................................................................
.............................. CYCLE   43 ..............................
........................................................................
   1    -58.4773296 -0.584773E+02  0.148E-02    2.16       0.0  T
   2    -58.4773358 -0.619290E-05  0.707E-03    2.17       2.5  T
   3    -58.4773361 -0.368264E-06  0.402E-03    2.17       4.3  T
   4    -58.4773362 -0.394989E-07  0.121E-03    2.17      14.4  T
   5    -58.4773362 -0.117320E-07  0.394E-04    2.17      44.2  T
   6    -58.4773362 -0.277912E-08  0.951E-05    2.17     183.1  T
   7    -58.4773362 -0.149932E-09  0.247E-05    2.17     703.8  T
     SCC iter.                  ...        0 min,  0.014 sec
     gradient                   ...        0 min,  0.055 sec
 * total energy  :   -57.8633718 Eh     change       -0.2242819E-03 Eh
   gradient norm :     0.0102294 Eh/α   predicted     0.0000000E+00 (-100.00%)
   displ. norm   :     0.0765914 α      lambda       -0.2440338E-03
   maximum displ.:     0.0381587 α      in ANC's #20, #1, #17, ...

........................................................................
.............................. CYCLE   44 ..............................
........................................................................
   1    -58.4782589 -0.584783E+02  0.733E-03    2.16       0.0  T
   2    -58.4782602 -0.129761E-05  0.348E-03    2.16       5.0  T
   3    -58.4782602 -0.479224E-07  0.201E-03    2.16       8.7  T
   4    -58.4782602 -0.294128E-08  0.472E-04    2.16      36.9  T
   5    -58.4782602 -0.235308E-08  0.971E-05    2.16     179.2  T
   6    -58.4782602 -0.235403E-09  0.331E-05    2.16     526.6  T
     SCC iter.                  ...        0 min,  0.012 sec
     gradient                   ...        0 min,  0.055 sec
 * total energy  :   -57.8635472 Eh     change       -0.1753844E-03 Eh
   gradient norm :     0.0032619 Eh/α   predicted    -0.1227333E-03 ( -30.02%)
   displ. norm   :     0.1280602 α      lambda       -0.1673039E-03
   maximum displ.:     0.0711058 α      in ANC's #1, #5, #20, ...

........................................................................
.............................. CYCLE   45 ..............................
........................................................................
   1    -58.4784426 -0.584784E+02  0.588E-03    2.15       0.0  T
   2    -58.4784433 -0.668771E-06  0.262E-03    2.15       6.7  T
   3    -58.4784433 -0.263057E-07  0.143E-03    2.16      12.2  T
   4    -58.4784433 -0.253509E-08  0.380E-04    2.16      45.8  T
   5    -58.4784433 -0.107534E-08  0.977E-05    2.16     178.2  T
   6    -58.4784433 -0.117673E-09  0.319E-05    2.16     545.9  T
     SCC iter.                  ...        0 min,  0.012 sec
     gradient                   ...        0 min,  0.055 sec
 * total energy  :   -57.8636639 Eh     change       -0.1167277E-03 Eh
   gradient norm :     0.0034178 Eh/α   predicted    -0.8503400E-04 ( -27.15%)
   displ. norm   :     0.1550123 α      lambda       -0.1149117E-03
   maximum displ.:     0.0915875 α      in ANC's #1, #5, #13, ...

........................................................................
.............................. CYCLE   46 ..............................
........................................................................
   1    -58.4780712 -0.584781E+02  0.397E-03    2.16       0.0  T
   2    -58.4780714 -0.201615E-06  0.154E-03    2.16      11.3  T
   3    -58.4780714 -0.135875E-07  0.726E-04    2.16      24.0  T
   4    -58.4780714 -0.264975E-08  0.227E-04    2.16      76.7  T
   5    -58.4780714 -0.244228E-09  0.889E-05    2.16     195.8  T
   6    -58.4780714 -0.326779E-10  0.239E-05    2.16     726.9  T
     SCC iter.                  ...        0 min,  0.012 sec
     gradient                   ...        0 min,  0.055 sec
 * total energy  :   -57.8637548 Eh     change       -0.9091880E-04 Eh
   gradient norm :     0.0048180 Eh/α   predicted    -0.5902058E-04 ( -35.08%)
   displ. norm   :     0.2396470 α      lambda       -0.1530784E-03
   maximum displ.:     0.1429244 α      in ANC's #1, #5, #12, ...

........................................................................
.............................. CYCLE   47 ..............................
........................................................................
   1    -58.4771671 -0.584772E+02  0.526E-03    2.16       0.0  T
   2    -58.4771674 -0.341636E-06  0.227E-03    2.17       7.7  T
   3    -58.4771675 -0.307751E-07  0.985E-04    2.17      17.7  T
   4    -58.4771675 -0.765668E-08  0.339E-04    2.17      51.3  T
   5    -58.4771675 -0.323951E-09  0.138E-04    2.17     126.1  T
   6    -58.4771675 -0.102247E-09  0.340E-05    2.17     511.6  T
     SCC iter.                  ...        0 min,  0.012 sec
     gradient                   ...        0 min,  0.055 sec
 * total energy  :   -57.8638735 Eh     change       -0.1186646E-03 Eh
   gradient norm :     0.0054061 Eh/α   predicted    -0.8093525E-04 ( -31.79%)
   displ. norm   :     0.2743415 α      lambda       -0.1645898E-03
   maximum displ.:     0.1699534 α      in ANC's #1, #12, #5, ...

........................................................................
.............................. CYCLE   48 ..............................
........................................................................
   1    -58.4762584 -0.584763E+02  0.537E-03    2.18       0.0  T
   2    -58.4762588 -0.420432E-06  0.261E-03    2.18       6.7  T
   3    -58.4762588 -0.402904E-07  0.110E-03    2.18      15.8  T
   4    -58.4762588 -0.721092E-08  0.395E-04    2.18      44.1  T
   5    -58.4762588 -0.313307E-09  0.112E-04    2.19     155.5  T
   6    -58.4762588 -0.523883E-10  0.238E-05    2.19     732.3  T
     SCC iter.                  ...        0 min,  0.012 sec
     gradient                   ...        0 min,  0.055 sec
 * total energy  :   -57.8639983 Eh     change       -0.1248032E-03 Eh
   gradient norm :     0.0058072 Eh/α   predicted    -0.8849032E-04 ( -29.10%)
   displ. norm   :     0.2564005 α      lambda       -0.1804926E-03
   maximum displ.:     0.1708014 α      in ANC's #1, #12, #5, ...

........................................................................
.............................. CYCLE   49 ..............................
........................................................................
   1    -58.4766428 -0.584766E+02  0.492E-03    2.19       0.0  T
   2    -58.4766432 -0.388512E-06  0.249E-03    2.20       7.0  T
   3    -58.4766432 -0.335784E-07  0.118E-03    2.20      14.7  T
   4    -58.4766432 -0.924003E-08  0.405E-04    2.20      43.0  T
   5    -58.4766432 -0.649237E-09  0.153E-04    2.20     113.4  T
   6    -58.4766432 -0.320746E-09  0.380E-05    2.20     457.8  T
     SCC iter.                  ...        0 min,  0.012 sec
     gradient                   ...        0 min,  0.055 sec
 * total energy  :   -57.8641380 Eh     change       -0.1396609E-03 Eh
   gradient norm :     0.0047962 Eh/α   predicted    -0.9618815E-04 ( -31.13%)
   displ. norm   :     0.2984730 α      lambda       -0.1765298E-03
   maximum displ.:     0.2027600 α      in ANC's #1, #12, #3, ...

........................................................................
.............................. CYCLE   50 ..............................
........................................................................
   1    -58.4771052 -0.584771E+02  0.479E-03    2.20       0.0  T
   2    -58.4771057 -0.486377E-06  0.227E-03    2.21       7.7  T
   3    -58.4771058 -0.539251E-07  0.117E-03    2.21      14.9  T
   4    -58.4771058 -0.136203E-07  0.411E-04    2.21      42.4  T
   5    -58.4771058 -0.665786E-09  0.164E-04    2.21     106.1  T
   6    -58.4771058 -0.109537E-09  0.393E-05    2.21     443.2  T
     SCC iter.                  ...        0 min,  0.012 sec
     gradient                   ...        0 min,  0.055 sec
 * total energy  :   -57.8642791 Eh     change       -0.1411723E-03 Eh
   gradient norm :     0.0042122 Eh/α   predicted    -0.9612845E-04 ( -31.91%)
   displ. norm   :     0.3596903 α      lambda       -0.1777295E-03
   maximum displ.:     0.2462059 α      in ANC's #1, #3, #6, ...

........................................................................
.............................. CYCLE   51 ..............................
........................................................................
   1    -58.4772247 -0.584772E+02  0.506E-03    2.21       0.0  T
   2    -58.4772254 -0.700777E-06  0.232E-03    2.22       7.5  T
   3    -58.4772255 -0.839526E-07  0.119E-03    2.22      14.7  T
   4    -58.4772255 -0.137999E-07  0.452E-04    2.22      38.5  T
   5    -58.4772255 -0.839627E-09  0.173E-04    2.22     100.7  T
   6    -58.4772255 -0.610143E-10  0.391E-05    2.22     445.0  T
     SCC iter.                  ...        0 min,  0.011 sec
     gradient                   ...        0 min,  0.055 sec
 * total energy  :   -57.8644176 Eh     change       -0.1384190E-03 Eh
   gradient norm :     0.0038612 Eh/α   predicted    -0.1003627E-03 ( -27.49%)
   displ. norm   :     0.2979172 α      lambda       -0.1538048E-03
   maximum displ.:     0.2099691 α      in ANC's #1, #3, #4, ...

........................................................................
.............................. CYCLE   52 ..............................
........................................................................
   1    -58.4796337 -0.584796E+02  0.633E-03    2.22       0.0  T
   2    -58.4796342 -0.460692E-06  0.311E-03    2.22       5.6  T
   3    -58.4796342 -0.403848E-07  0.166E-03    2.22      10.5  T
   4    -58.4796342 -0.161216E-07  0.401E-04    2.22      43.5  T
   5    -58.4796342 -0.129013E-08  0.131E-04    2.22     132.8  T
   6    -58.4796342 -0.165834E-09  0.303E-05    2.22     573.8  T
     SCC iter.                  ...        0 min,  0.012 sec
     gradient                   ...        0 min,  0.055 sec
 * total energy  :   -57.8645189 Eh     change       -0.1012966E-03 Eh
   gradient norm :     0.0043701 Eh/α   predicted    -0.8373026E-04 ( -17.34%)
   displ. norm   :     0.4337653 α      lambda       -0.1643543E-03
   maximum displ.:     0.2917505 α      in ANC's #1, #3, #5, ...

........................................................................
.............................. CYCLE   53 ..............................
........................................................................
   1    -58.4759153 -0.584759E+02  0.102E-02    2.22       0.0  T
   2    -58.4759161 -0.796998E-06  0.513E-03    2.22       3.4  T
   3    -58.4759161 -0.273456E-07  0.213E-03    2.23       8.2  T
   4    -58.4759161 -0.220500E-07  0.589E-04    2.23      29.6  T
   5    -58.4759161 -0.443506E-08  0.172E-04    2.23     101.0  T
   6    -58.4759161 -0.271235E-09  0.505E-05    2.23     344.5  T
     SCC iter.                  ...        0 min,  0.012 sec
     gradient                   ...        0 min,  0.055 sec
 * total energy  :   -57.8645629 Eh     change       -0.4400547E-04 Eh
   gradient norm :     0.0059352 Eh/α   predicted    -0.9772568E-04 ( 122.08%)
   displ. norm   :     0.0856966 α      lambda       -0.1406019E-03
   maximum displ.:     0.0440723 α      in ANC's #6, #12, #13, ...

........................................................................
.............................. CYCLE   54 ..............................
........................................................................
   1    -58.4795924 -0.584796E+02  0.728E-03    2.23       0.0  T
   2    -58.4795928 -0.392850E-06  0.386E-03    2.23       4.5  T
   3    -58.4795928 -0.106676E-07  0.186E-03    2.23       9.4  T
   4    -58.4795928 -0.362304E-07  0.424E-04    2.23      41.0  T
   5    -58.4795928 -0.165932E-08  0.107E-04    2.23     163.4  T
   6    -58.4795928 -0.171262E-09  0.293E-05    2.23     593.9  T
     SCC iter.                  ...        0 min,  0.012 sec
     gradient                   ...        0 min,  0.055 sec
 * total energy  :   -57.8646492 Eh     change       -0.8632199E-04 Eh
   gradient norm :     0.0023581 Eh/α   predicted    -0.7081843E-04 ( -17.96%)
   displ. norm   :     0.1573016 α      lambda       -0.6691035E-04
   maximum displ.:     0.1018086 α      in ANC's #1, #3, #2, ...

........................................................................
.............................. CYCLE   55 ..............................
........................................................................
   1    -58.4803671 -0.584804E+02  0.330E-03    2.23       0.0  T
   2    -58.4803673 -0.272283E-06  0.162E-03    2.23      10.8  T
   3    -58.4803674 -0.410383E-07  0.897E-04    2.22      19.4  T
   4    -58.4803674 -0.307755E-08  0.312E-04    2.22      55.7  T
   5    -58.4803674 -0.297462E-09  0.857E-05    2.22     203.2  T
   6    -58.4803674 -0.693632E-10  0.228E-05    2.22     761.9  T
     SCC iter.                  ...        0 min,  0.012 sec
     gradient                   ...        0 min,  0.055 sec
 * total energy  :   -57.8646996 Eh     change       -0.5044844E-04 Eh
   gradient norm :     0.0029114 Eh/α   predicted    -0.3428313E-04 ( -32.04%)
   displ. norm   :     0.1980568 α      lambda       -0.7109859E-04
   maximum displ.:     0.1277875 α      in ANC's #3, #1, #2, ...

........................................................................
.............................. CYCLE   56 ..............................
........................................................................
   1    -58.4805532 -0.584806E+02  0.446E-03    2.22       0.0  T
   2    -58.4805537 -0.458337E-06  0.202E-03    2.22       8.6  T
   3    -58.4805538 -0.880366E-07  0.949E-04    2.22      18.4  T
   4    -58.4805538 -0.736572E-08  0.338E-04    2.22      51.5  T
   5    -58.4805538 -0.103562E-09  0.107E-04    2.22     163.3  T
   6    -58.4805538 -0.665352E-10  0.265E-05    2.22     655.7  T
     SCC iter.                  ...        0 min,  0.012 sec
     gradient                   ...        0 min,  0.055 sec
 * total energy  :   -57.8647516 Eh     change       -0.5198661E-04 Eh
   gradient norm :     0.0029721 Eh/α   predicted    -0.3694750E-04 ( -28.93%)
   displ. norm   :     0.2284958 α      lambda       -0.6596225E-04
   maximum displ.:     0.1489233 α      in ANC's #3, #1, #2, ...

........................................................................
.............................. CYCLE   57 ..............................
........................................................................
   1    -58.4795511 -0.584796E+02  0.477E-03    2.21       0.0  T
   2    -58.4795514 -0.309388E-06  0.234E-03    2.21       7.4  T
   3    -58.4795514 -0.483318E-07  0.123E-03    2.21      14.2  T
   4    -58.4795515 -0.125814E-07  0.369E-04    2.21      47.2  T
   5    -58.4795515 -0.221377E-09  0.111E-04    2.21     156.5  T
   6    -58.4795515 -0.142343E-09  0.250E-05    2.21     695.6  T
     SCC iter.                  ...        0 min,  0.012 sec
     gradient                   ...        0 min,  0.056 sec
 * total energy  :   -57.8647960 Eh     change       -0.4435167E-04 Eh
   gradient norm :     0.0033859 Eh/α   predicted    -0.3470370E-04 ( -21.75%)
   displ. norm   :     0.1773687 α      lambda       -0.4728989E-04
   maximum displ.:     0.1140380 α      in ANC's #3, #1, #2, ...

........................................................................
.............................. CYCLE   58 ..............................
........................................................................
   1    -58.4791338 -0.584791E+02  0.338E-03    2.20       0.0  T
   2    -58.4791339 -0.983119E-07  0.165E-03    2.20      10.6  T
   3    -58.4791339 -0.846130E-08  0.585E-04    2.20      29.8  T
   4    -58.4791339 -0.197181E-08  0.222E-04    2.20      78.3  T
   5    -58.4791339 -0.163531E-09  0.588E-05    2.20     296.0  T
   6    -58.4791339 -0.261267E-10  0.155E-05    2.20    1122.1  T
     SCC iter.                  ...        0 min,  0.012 sec
     gradient                   ...        0 min,  0.055 sec
 * total energy  :   -57.8648334 Eh     change       -0.3739261E-04 Eh
   gradient norm :     0.0027281 Eh/α   predicted    -0.2439357E-04 ( -34.76%)
   displ. norm   :     0.2864338 α      lambda       -0.6758486E-04
[...]
H           -0.36387783185956        2.26380017903802       -1.84555877899517
H           -0.45134556227673        0.56077123437979       -1.44474962016183
H           -1.55179247418133        1.23939819990040       -2.68698281290434
H           -3.62729523643629        1.79193382170645       -1.85244403130135
H           -3.94131653612984        2.06544403188624       -0.19476946877686
 
 Bond Distances (Angstroems)
 ---------------------------
C1-O2=1.4346         C1-H18=1.0927        C1-H19=1.0873        C1-H20=1.0928        O2-C1=1.4346         O2-C3=1.3420         
C3-O2=1.3420         C3-O4=1.2069         C3-C5=1.4884         O4-C3=1.2069         C5-C3=1.4884         C5-C6=1.3693         
C5-N17=1.3792        C6-C5=1.3693         C6-O7=1.3345         C6-C8=1.4625         O7-C6=1.3345         O7-H21=0.9750        
C8-C6=1.4625         C8-O9=1.2202         C8-N10=1.3743        O9-C8=1.2202         N10-C8=1.3743        N10-C11=1.3633       
N10-H22=1.0078       C11-N10=1.3633       C11-C12=1.4908       C11-N17=1.2922       C12-C11=1.4908       C12-H23=1.0903       
C12-H24=1.0900       C12-H25=1.0865       C13-C14=1.4748       C13-C15=1.4750       C13-N16=1.2907       C14-C13=1.4748       
C14-H26=1.0940       C14-H27=1.0916       C14-H28=1.0872       C15-C13=1.4750       C15-H29=1.0916       C15-H30=1.0943       
C15-H31=1.0872       N16-C13=1.2907       N16-H32=1.0070       N16-H33=1.0071       N17-C5=1.3792        N17-C11=1.2922       
H18-C1=1.0927        H19-C1=1.0873        H20-C1=1.0928        H21-O7=0.9750        H22-N10=1.0078       H23-C12=1.0903       
H24-C12=1.0900       H25-C12=1.0865       H26-C14=1.0940       H27-C14=1.0916       H28-C14=1.0872       H29-C15=1.0916       
H30-C15=1.0943       H31-C15=1.0872       H32-N16=1.0070       H33-N16=1.0071       
 C  H  Rav=1.0905 sigma=0.0027  Rmin=1.0865  Rmax=1.0943    12
 C  C  Rav=1.4601 sigma=0.0417  Rmin=1.3693  Rmax=1.4908     6
 N  H  Rav=1.0073 sigma=0.0004  Rmin=1.0070  Rmax=1.0078     3
 N  C  Rav=1.3399 sigma=0.0399  Rmin=1.2907  Rmax=1.3792     5
 O  H  Rav=0.9750 sigma=0.0000  Rmin=0.9750  Rmax=0.9750     1
 O  C  Rav=1.3077 sigma=0.0846  Rmin=1.2069  Rmax=1.4346     5
 
 selected bond angles (degree)
 --------------------
H18-C1-O2=109.94               H19-C1-O2=106.53               H19-C1-H18=110.31              H20-C1-O2=110.01               
H20-C1-H18=109.66              H20-C1-H19=110.35              C3-O2-C1=115.32                O4-C3-O2=122.50                
C5-C3-O2=112.73                C5-C3-O4=124.78                C6-C5-C3=122.37                N17-C5-C3=117.01               
N17-C5-C6=120.62               O7-C6-C5=124.12                C8-C6-C5=120.27                C8-C6-O7=115.61                
H21-O7-C6=109.14               O9-C8-C6=123.23                N10-C8-C6=113.77               N10-C8-O9=123.00               
C11-N10-C8=123.19              H22-N10-C8=117.29              H22-N10-C11=119.53             
 
 selected dihedral angles (degree)
 ---------------------------------
C3-O2-C1-H18=297.30           C3-O2-C1-H19=177.77           C3-O2-C1-H20= 58.16           O4-C3-O2-C1=359.97            
C5-C3-O2-C1=180.00            C6-C5-C3-O2=179.35            C6-C5-C3-O4=359.39            N17-C5-C3-O2=359.31           
N17-C5-C3-O4=179.34           O7-C6-C5-C3=  0.07            O7-C6-C5-N17=180.12           C8-C6-C5-C3=180.17            
C8-C6-C5-N17=  0.22           H21-O7-C6-C5=180.11           H21-O7-C6-C8=  0.00           O9-C8-C6-C5=180.09            
O9-C8-C6-O7=  0.18            N10-C8-C6-C5=  0.07           N10-C8-C6-O7=180.17           C11-N10-C8-C6=359.67          
C11-N10-C8-O9=179.66          H22-N10-C8-C6=179.78          H22-N10-C8-O9=359.77          
           -------------------------------------------------
          |                Final Singlepoint                |
           -------------------------------------------------

          ...................................................
          :                      SETUP                      :
          :.................................................:
          :  # basis functions                 100          :
          :  # atomic orbitals                 100          :
          :  # shells                           66          :
          :  # electrons                        94          :
          :  # halogen bonds                     0          :
          :  max. iterations                   250          :
          :  Hamiltonian                  GFN1-xTB          :
          :  restarted?                      false          :
          :  GBSA solvation                   true          :
          :  PC potential                    false          :
          :  electronic temp.          300.0000000     K    :
          :  accuracy                    1.0000000          :
          :  -> integral cutoff          0.2500000E+02      :
          :  -> integral neglect         0.1000000E-07      :
          :  -> SCF convergence          0.1000000E-05 Eh   :
          :  -> wf. convergence          0.2000000E-04 e    :
          :  Broyden damping             0.4000000          :
          ...................................................

 iter      E             dE          RMSdq      gap      omega  full diag
   1    -58.4826460 -0.584826E+02  0.961E-06    2.29       0.0  T
   2    -58.4826460 -0.810019E-12  0.448E-06    2.29    3881.8  T
   3    -58.4826460 -0.241585E-12  0.243E-06    2.29    7177.4  T

   *** convergence criteria satisfied after 3 iterations ***

         #    Occupation            Energy/Eh            Energy/eV
      -------------------------------------------------------------
         1        2.0000           -0.8701006             -23.6766
       ...           ...                  ...                  ...
        41        2.0000           -0.5240072             -14.2590
        42        2.0000           -0.5064231             -13.7805
        43        2.0000           -0.4960400             -13.4979
        44        2.0000           -0.4931114             -13.4182
        45        2.0000           -0.4719305             -12.8419
        46        2.0000           -0.4604080             -12.5283
        47        2.0000           -0.4391583             -11.9501 (HOMO)
        48                         -0.3550753              -9.6621 (LUMO)
        49                         -0.3321577              -9.0385
        50                         -0.2919782              -7.9451
        51                         -0.2482224              -6.7545
        52                         -0.1741864              -4.7399
       ...                                ...                  ...
       100                          0.7349753              19.9997
      -------------------------------------------------------------
                  HL-Gap            0.0840830 Eh            2.2880 eV
             Fermi-level           -0.3971168 Eh          -10.8061 eV

 SCC (total)                   0 d,  0 h,  0 min,  0.087 sec
 SCC setup                      ...        0 min,  0.001 sec (  1.547%)
 Dispersion                     ...        0 min,  0.000 sec (  0.230%)
 classical contributions        ...        0 min,  0.000 sec (  0.084%)
 integral evaluation            ...        0 min,  0.024 sec ( 27.583%)
 iterations                     ...        0 min,  0.006 sec (  6.990%)
 molecular gradient             ...        0 min,  0.054 sec ( 62.869%)
 printout                       ...        0 min,  0.001 sec (  0.653%)

         :::::::::::::::::::::::::::::::::::::::::::::::::::::
         ::                     SUMMARY                     ::
         :::::::::::::::::::::::::::::::::::::::::::::::::::::
         :: total energy             -57.868075631830 Eh    ::
         :: total w/o Gsasa/hb       -57.841531383869 Eh    ::
         :: gradient norm              0.000694807016 Eh/a0 ::
         :: HOMO-LUMO gap              2.288013615074 eV    ::
         ::.................................................::
         :: SCC energy               -58.482646029037 Eh    ::
         :: -> electrostatic           0.338479139228 Eh    ::
         :: -> Gsolv                  -0.124465955130 Eh    ::
         ::    -> Gelec               -0.097921707168 Eh    ::
         ::    -> Gsasa               -0.018791905402 Eh    ::
         ::    -> Ghb                 -0.015376621564 Eh    ::
         ::    -> Gshift               0.007624279005 Eh    ::
         :: repulsion energy           0.633408078229 Eh    ::
         :: dispersion energy         -0.018837681022 Eh    ::
         :: halogen bond corr.         0.000000000000 Eh    ::
         :: add. restraining           0.000000000000 Eh    ::
         :: total charge               1.000000000000 e     ::
         :::::::::::::::::::::::::::::::::::::::::::::::::::::

           -------------------------------------------------
          |                Property Printout                |
           -------------------------------------------------

    * Orbital Energies and Occupations

         #    Occupation            Energy/Eh            Energy/eV
      -------------------------------------------------------------
         1        2.0000           -0.8701006             -23.6766
       ...           ...                  ...                  ...
        35        2.0000           -0.5570990             -15.1594
        36        2.0000           -0.5493153             -14.9476
        37        2.0000           -0.5465177             -14.8715
        38        2.0000           -0.5448639             -14.8265
        39        2.0000           -0.5412185             -14.7273
        40        2.0000           -0.5289094             -14.3924
        41        2.0000           -0.5240072             -14.2590
        42        2.0000           -0.5064231             -13.7805
        43        2.0000           -0.4960400             -13.4979
        44        2.0000           -0.4931114             -13.4182
        45        2.0000           -0.4719305             -12.8419
        46        2.0000           -0.4604080             -12.5283
        47        2.0000           -0.4391583             -11.9501 (HOMO)
        48                         -0.3550753              -9.6621 (LUMO)
        49                         -0.3321577              -9.0385
        50                         -0.2919782              -7.9451
        51                         -0.2482224              -6.7545
        52                         -0.1741864              -4.7399
        53                         -0.1663763              -4.5273
        54                         -0.1652554              -4.4968
        55                         -0.1631729              -4.4402
        56                         -0.1524250              -4.1477
        57                         -0.1425928              -3.8801
        58                         -0.1188720              -3.2347
       ...                                ...                  ...
       100                          0.7349753              19.9997
      -------------------------------------------------------------
                  HL-Gap            0.0840830 Eh            2.2880 eV
             Fermi-level           -0.3971168 Eh          -10.8061 eV

  Mulliken/CM5 charges         n(s)   n(p)   n(d)
     1C     0.16123  0.03957   0.983  2.855  0.000
     2O    -0.42464 -0.51565   1.693  4.732  0.000
     3C     0.57606  0.64184   0.969  2.454  0.000
     4O    -0.54935 -0.59579   1.723  4.827  0.000
     5C     0.07838  0.15389   1.041  2.880  0.000
     6C     0.23431  0.26845   1.027  2.739  0.000
     7O    -0.49632 -0.68857   1.693  4.804  0.000
     8C     0.44810  0.54964   0.984  2.568  0.000
     9O    -0.57158 -0.61759   1.726  4.846  0.000
    10N    -0.29142 -0.63860   1.437  3.854  0.000
    11C     0.30659  0.44549   1.013  2.681  0.000
    12C    -0.11702 -0.25219   1.018  3.099  0.000
    13C     0.26913  0.32069   1.098  2.633  0.000
    14C    -0.11432 -0.25434   1.023  3.092  0.000
    15C    -0.11477 -0.25480   1.023  3.092  0.000
    16N    -0.28334 -0.76192   1.441  3.843  0.000
    17N    -0.38620 -0.58165   1.528  3.858  0.000
    18H     0.05873  0.12040   0.941  0.000  0.000
    19H     0.04759  0.10832   0.952  0.000  0.000
    20H     0.05978  0.12192   0.940  0.000  0.000
    21H     0.41367  0.59219   0.586  0.000  0.000
    22H     0.29797  0.49741   0.702  0.000  0.000
    23H     0.08028  0.13537   0.920  0.000  0.000
    24H     0.07987  0.13503   0.920  0.000  0.000
    25H     0.05356  0.11287   0.946  0.000  0.000
    26H     0.09455  0.15883   0.905  0.000  0.000
    27H     0.10373  0.15930   0.896  0.000  0.000
    28H     0.08104  0.13718   0.919  0.000  0.000
    29H     0.10400  0.15947   0.896  0.000  0.000
    30H     0.09451  0.15902   0.905  0.000  0.000
    31H     0.08094  0.13709   0.919  0.000  0.000
    32H     0.31240  0.50354   0.688  0.000  0.000
    33H     0.31252  0.50358   0.687  0.000  0.000

Wiberg/Mayer (AO) data.
largest (>0.10) Wiberg bond orders for each atom

 ---------------------------------------------------------------------------
     #   Z sym  total        # sym  WBO       # sym  WBO       # sym  WBO
 ---------------------------------------------------------------------------
     1   6 C    3.867 --    19 H    0.985    18 H    0.979    20 H    0.979
                             2 O    0.893
     2   8 O    2.194 --     3 C    1.089     1 C    0.893     4 O    0.130
     3   6 C    3.850 --     4 O    1.671     2 O    1.089     5 C    1.007
     4   8 O    1.937 --     3 C    1.671     2 O    0.130
     5   6 C    3.962 --     6 C    1.504    17 N    1.164     3 C    1.007
     6   6 C    3.921 --     5 C    1.504     7 O    1.117     8 C    1.057
     7   8 O    2.095 --     6 C    1.117    21 H    0.805
     8   6 C    3.910 --     9 O    1.587    10 N    1.136     6 C    1.057
     9   8 O    1.910 --     8 C    1.587    10 N    0.133
    10   7 N    3.464 --    11 C    1.172     8 C    1.136    22 H    0.877
                             9 O    0.133
    11   6 C    3.930 --    17 N    1.573    10 N    1.172    12 C    1.026
    12   6 C    3.989 --    11 C    1.026    25 H    0.984    24 H    0.964
                            23 H    0.963
    13   6 C    3.856 --    16 N    1.628    15 C    1.070    14 C    1.070
    14   6 C    3.980 --    13 C    1.070    28 H    0.978    27 H    0.934
                            26 H    0.934
    15   6 C    3.980 --    13 C    1.070    31 H    0.978    29 H    0.934
                            30 H    0.933
    16   7 N    3.507 --    13 C    1.628    32 H    0.874    33 H    0.873
    17   7 N    3.060 --    11 C    1.573     5 C    1.164
    18   1 H    1.006 --     1 C    0.979
    19   1 H    1.012 --     1 C    0.985
    20   1 H    1.006 --     1 C    0.979
    21   1 H    0.843 --     7 O    0.805
    22   1 H    0.915 --    10 N    0.877
    23   1 H    0.994 --    12 C    0.963
    24   1 H    0.994 --    12 C    0.964
    25   1 H    1.004 --    12 C    0.984
    26   1 H    1.020 --    14 C    0.934
    27   1 H    0.994 --    14 C    0.934
    28   1 H    0.991 --    14 C    0.978
    29   1 H    0.994 --    15 C    0.934
    30   1 H    1.021 --    15 C    0.933
    31   1 H    0.991 --    15 C    0.978
    32   1 H    0.904 --    16 N    0.874
    33   1 H    0.904 --    16 N    0.873
 ---------------------------------------------------------------------------

Topologies differ in total number of bonds
Writing topology from bond orders to xtbtopo.mol

 dipole moment from electron density (au)
     X       Y       Z   
  -6.9569   2.3296  -1.7714  total (Debye):   19.184

           -------------------------------------------------
          |                Geometry Summary                 |
           -------------------------------------------------

      molecular mass/u    :      242.2521403
   center of mass at/Å    :        0.6301180      -0.5139760       0.2094866
  moments of inertia/u·Å² :        0.8181920E+03   0.1533881E+04   0.2232785E+04
rotational constants/cm⁻¹ :        0.2060352E-01   0.1099019E-01   0.7550048E-02

 * 28 selected distances

     #   Z          #   Z                                           value/Å
     1   6 C        2   8 O                                       1.4345777
     2   8 O        3   6 C                                       1.3419970
     3   6 C        4   8 O                                       1.2069208
     5   6 C        6   6 C                                       1.3693273
     6   6 C        7   8 O                                       1.3345322
     8   6 C        9   8 O                                       1.2202329
     8   6 C       10   7 N                                       1.3743130
    10   7 N       11   6 C                                       1.3632817
    13   6 C       14   6 C                                       1.4748231
    13   6 C       15   6 C                                       1.4750360 (max)
    13   6 C       16   7 N                                       1.2906877
    11   6 C       17   7 N                                       1.2922365
     1   6 C       18   1 H                                       1.0927295
     1   6 C       19   1 H                                       1.0873372
     1   6 C       20   1 H                                       1.0927502
     7   8 O       21   1 H                                       0.9750459 (min)
    10   7 N       22   1 H                                       1.0077934
    12   6 C       23   1 H                                       1.0903350
    12   6 C       24   1 H                                       1.0899907
    12   6 C       25   1 H                                       1.0865040
    14   6 C       26   1 H                                       1.0940422
    14   6 C       27   1 H                                       1.0916134
    14   6 C       28   1 H                                       1.0872496
    15   6 C       29   1 H                                       1.0916242
    15   6 C       30   1 H                                       1.0943249
    15   6 C       31   1 H                                       1.0872381
    16   7 N       32   1 H                                       1.0069831
    16   7 N       33   1 H                                       1.0071125

 * 6 distinct bonds (by element types)

   Z      Z             #   av. dist./Å        max./Å        min./Å
   1 H    6 C          12     1.0904783     1.0943249     1.0865040
   6 C    6 C           3     1.4397288     1.4750360     1.3693273
   1 H    7 N           3     1.0072963     1.0077934     1.0069831
   6 C    7 N           4     1.3301297     1.3743130     1.2906877
   1 H    8 O           1     0.9750459     0.9750459     0.9750459
   6 C    8 O           5     1.3076521     1.4345777     1.2069208


optimized geometry written to: xtbopt.xyz


           -------------------------------------------------
          | TOTAL ENERGY              -57.868075631830 Eh   |
          | GRADIENT NORM               0.000694807016 Eh/α |
          | HOMO-LUMO GAP               2.288013615074 eV   |
           -------------------------------------------------

------------------------------------------------------------------------
 * finished run on 2023/06/20 at 15:08:00.108     
------------------------------------------------------------------------
 total:
 * wall-time:     0 d,  0 h,  0 min, 14.204 sec
 *  cpu-time:     0 d,  0 h,  0 min, 14.103 sec
 * ratio c/w:     0.993 speedup
 SCF:
 * wall-time:     0 d,  0 h,  0 min,  0.098 sec
 *  cpu-time:     0 d,  0 h,  0 min,  0.097 sec
 * ratio c/w:     0.992 speedup
 ANC optimizer:
 * wall-time:     0 d,  0 h,  0 min, 14.054 sec
 *  cpu-time:     0 d,  0 h,  0 min, 13.968 sec
 * ratio c/w:     0.994 speedup

