42
 energy: -83.008966772794 gnorm: 0.000858515230 xtb: 6.5.1 (579679a)
C           -2.65979347588230        1.78219548141269       -1.96243704608257
O           -2.55622356621830        0.49009386624039       -1.34254277849292
C           -3.40638569339603        0.15338005759827       -0.39873035864224
O           -4.36662813917047        0.78213215283749       -0.04617257860376
C           -2.98959985555898       -1.19791935475603        0.26032555758391
C           -4.12646176468365       -1.70191386690586        1.14872883897408
N           -1.85035679385836       -0.83874614135132        1.08116332315819
C           -0.66865776956616       -0.99092524955071        0.65217681721361
C            0.51303628809499       -0.59396617299556        1.51398205550864
C            1.14622755043318       -1.86090782630179        2.09627391298359
C            0.06860730672383        0.36080583926219        2.62476231662545
N            1.51269986063957        0.05470741783488        0.66328563983513
C            1.20245763025341        1.13250536372405       -0.09356656955170
O            0.07008312557823        1.55338748668309       -0.26181457063977
C            2.38759008850886        1.74518167422129       -0.73697423233671
N            2.42081988049844        2.76483297758065       -1.53787404838892
N            3.72742201849342        2.96599347417986       -1.86418790026999
C            4.41304251588309        2.05758339082160       -1.24186822831470
C            5.87653235920791        1.84885316091397       -1.26572502460206
O            3.62461300967234        1.25239685602923       -0.51108061668031
N           -0.34604362874911       -1.57133741558960       -0.56638570393997
C           -1.24534227243100       -2.16585950971766       -1.39782105707250
O           -0.92571297716729       -2.68187655235321       -2.44541435095071
C           -2.68609096660490       -2.15715194556490       -0.87011111318970
O           -3.52959801511961       -2.86203561793076       -1.36295470805356
H           -3.32497807152866        2.42800449396132       -1.38644474292349
H           -1.65290722274736        2.19886592393557       -1.99117157339680
H           -3.04465110712727        1.65482864177758       -2.97577889255513
H           -3.80531701278123       -2.59476710257575        1.68020335193178
H           -4.39034959126338       -0.93073771914012        1.86947600257303
H           -4.99506680192913       -1.93845876026045        0.53638779900788
H            1.47594700924154       -2.52070101565508        1.29589791450502
H            2.00362233953906       -1.59496090085869        2.71118518003990
H            0.41880966218332       -2.38656416325973        2.71275158636234
H           -0.40641596268580        1.24145758096573        2.19412215756581
H           -0.64638597156580       -0.14521586192474        3.27123039781555
H            0.93179233143138        0.66651353103286        3.21155347320434
H            2.48024360749282       -0.16569198726199        0.82594566009057
H            6.34634906999621        2.61177833446974       -1.88191795276009
H            6.27401293007614        1.89789213366003       -0.25227565883255
H            6.10388462777244        0.86141549853212       -1.66740451984662
H            0.62517344830869       -1.60507017370717       -0.83648275883968
