47
 energy: -80.197200987695 gnorm: 0.000526856246 xtb: 6.5.1 (579679a)
C           -3.34287494231588        0.29703986615284       -2.40463963506443
N           -2.37992218752042       -0.21681167561094       -1.43582240073078
C           -2.38891654472040        0.06709829872816       -0.08776434497015
C           -3.46721432226127        0.93376862151071        0.56758403549598
C           -3.19247477037484        2.42119395546451        0.29898239965628
C           -4.90152342046713        0.54607284047421        0.15926109539757
N           -3.33292977627765        0.73961286970613        2.01388372026321
N           -1.46251483024496       -0.37298433453285        0.70027461163253
C           -0.43686316474189       -1.16502418321510        0.26817910313932
C            0.64121156425176       -1.56240748723021        1.37415145780011
C            0.62275818171163       -3.13297724453827        1.45222675832057
O            0.46313058706973       -0.97525262417200        2.51839522040548
N            2.00582834732126       -1.23051236344765        0.74007876292986
C            2.19111916707714        0.21567157451737        0.67244630519163
C            3.64901084416336        0.57949063517725        0.52739085520453
C            4.64365245687959       -0.27740458438601        0.99706166071005
C            5.98533233943856        0.05957267922903        0.89217848092935
C            6.31098700676985        1.27145495406375        0.31016873965995
F            7.61308151977118        1.61054911533798        0.20268656618910
C            5.35574501992790        2.14796395575105       -0.17035916742331
C            4.01856489399604        1.79076864723014       -0.05638366365011
C           -0.42770877898051       -1.53972074746344       -1.04485760368515
O            0.51657437423226       -2.36591202657231       -1.59422544813540
C           -1.42079832047676       -1.06831977407608       -1.96946496714236
O           -1.41891547545194       -1.37833635352136       -3.16974431866317
H           -4.23540917153306       -0.32797036240524       -2.41850238130478
H           -2.87792188944477        0.26416640757020       -3.39061840100468
H           -3.61061789241411        1.32328423569068       -2.17729853123438
H           -3.97874921204522        3.02373711356335        0.75156911544637
H           -3.16255958056574        2.64101625521598       -0.76556837384284
H           -2.23645772275677        2.70119843802204        0.74236485432942
H           -5.21817316758394        1.04789991450990       -0.75131825626791
H           -5.58615804042577        0.84497578916622        0.95224835235967
H           -4.98561493328191       -0.53114559527000        0.02322095024936
H           -3.99593083996047        1.35093861090772        2.46969124365398
H           -3.60729964791141       -0.21125755004092        2.23566205024866
H            1.38570189719876       -3.44395087114577        2.16572457617985
H            0.82001176668054       -3.59865838539390        0.48942309438712
H           -0.35289057710186       -3.45217224638725        1.81650898493487
H            2.02586726475325       -1.60651564873747       -0.20547624778565
H            1.81865506925395        0.64836049829074        1.61616141550787
H            1.61477284124263        0.67284052289108       -0.14947799987306
H            4.35664807592597       -1.22634547184026        1.44111474721819
H            6.76529862347824       -0.59982105089757        1.25143015364448
H            5.65302044234171        3.08392622840974       -0.62528062968977
H            3.25703670694081        2.46606428164454       -0.43218169422307
H            0.30643121843198       -2.46516472837154       -2.53826124637321
