16
 energy: -34.172776484963 gnorm: 0.000914718947 xtb: 6.5.1 (579679a)
C           -1.05427635408668        1.59884168035819       -0.16852393892461
C           -0.60846730931232        0.13470345692849       -0.06493549974244
C           -1.64857800418096       -0.71511998283612        0.67626701431245
N           -0.39968211193140       -0.41310355787298       -1.41652454002908
N            0.82211521359845       -0.76813644863157       -1.52445205079101
C            1.49741988612432       -0.52432009146082       -0.38287924955966
C            2.83358398048603       -0.80166433199934       -0.19411911149152
O            3.65148215166226       -1.29225430029382       -0.96075756999714
Cl           3.41773648796593       -0.35001747622967        1.48787369997437
O            0.65422120353485        0.04518903481160        0.57710495440312
H           -1.99188302727412        1.65878022499997       -0.71684702600917
H           -1.19058534438839        2.01877365811328        0.82607884398123
H           -0.29426384990317        2.17293185654455       -0.69612520739527
H           -1.30081090953607       -1.74529176254279        0.73278371350676
H           -2.59475576715609       -0.68661749644357        0.14035369735710
H           -1.79325624560242       -0.33269246344544        1.68470327040452
