42
 energy: -82.971597363202 gnorm: 0.000494982230 xtb: 6.5.1 (579679a)
C           -6.58139209555845       -1.40631578010725       -1.50066425096203
O           -5.40124963670399       -0.63398950991742       -1.68403060109126
C           -4.44393713487360       -0.78181082553314       -0.74042492366266
O           -4.60438671901720       -1.54144161770404        0.20587786511314
C           -3.24913444429550        0.02794652171321       -0.95527353532885
N           -2.31009634995649       -0.13661790143617        0.04174761045988
C           -1.20380186940827        0.50458327849382        0.01253066988688
C           -0.20609305873232        0.35431299647049        1.14037201241477
C           -0.57926422151261       -0.85061562380046        2.00549132482813
C           -0.15623669358151        1.65230451540939        1.95623511672866
N            1.12181555676854        0.11746489489780        0.51796629998456
C            2.26007479343762       -0.02743454402345        1.14725876700653
O            2.28310615953876        0.01932751990889        2.44837242567059
C            3.48926663239554       -0.12677381009577        3.21235069291624
C            3.44209056677696       -0.23936873011378        0.34713263919808
N            4.68363596201503       -0.40829188492272        0.71634373983096
N            5.40773351824658       -0.57288164736271       -0.40669827425830
C            4.57836554496687       -0.49862658982338       -1.41215993470907
C            4.88787419149256       -0.62570025873730       -2.84866589717782
O            3.32275516214035       -0.28947635546675       -0.99691687530266
N           -0.89474138370844        1.39592953985092       -0.99726927753997
C           -1.73306749337318        1.65397390473193       -2.05952042095302
O           -1.39100281910863        2.45507777895291       -2.92016540720329
C           -3.04859646486482        0.90262766298114       -2.05781444076332
O           -3.84032787600833        1.09844499379269       -2.99298691386809
H           -7.23694867148976       -1.19189499044075       -2.34398497284343
H           -6.34364912598770       -2.47415544211200       -1.47667990552213
H           -7.07888433964761       -1.13427664902062       -0.56455983594279
H           -0.51532423798251       -1.76360366505735        1.41571017731216
H            0.07968622553068       -0.93021033151480        2.86549976552509
H           -1.60581547568063       -0.72582119016070        2.34897334375144
H            0.49440185887959        1.54718811396420        2.82004832783118
H            0.20759188499772        2.46866047071936        1.33559718049079
H           -1.16243471925266        1.88740006777239        2.30106814319087
H            1.16081348527324        0.05931786542123       -0.49221638047655
H            3.93703858360417       -1.10308203873478        3.02054297101952
H            4.19639134064419        0.66075461084918        2.94855571933783
H            3.18597661769110       -0.03944470843003        4.25389806075493
H            5.95812064290851       -0.76369745885706       -2.98245612451207
H            4.35161969370570       -1.47852600468879       -3.26654290269753
H            4.56024817609746        0.26805404888314       -3.38020289208214
H           -0.02222276636479        1.89265677323967       -0.98234008635838
