      -----------------------------------------------------------      
     |                   =====================                   |     
     |                           x T B                           |     
     |                   =====================                   |     
     |                         S. Grimme                         |     
     |          Mulliken Center for Theoretical Chemistry        |     
     |                    University of Bonn                     |     
      -----------------------------------------------------------      

   * xtb version 6.5.1 (579679a) compiled by 'ehlert@majestix' on 2022-07-11

   xtb is free software: you can redistribute it and/or modify it under
   the terms of the GNU Lesser General Public License as published by
   the Free Software Foundation, either version 3 of the License, or
   (at your option) any later version.
   
   xtb is distributed in the hope that it will be useful,
   but WITHOUT ANY WARRANTY; without even the implied warranty of
   MERCHANTABILITY or FITNESS FOR A PARTICULAR PURPOSE.  See the
   GNU Lesser General Public License for more details.
   
   Cite this work as:
   * C. Bannwarth, E. Caldeweyher, S. Ehlert, A. Hansen, P. Pracht,
     J. Seibert, S. Spicher, S. Grimme, WIREs Comput. Mol. Sci., 2020, 11,
     e01493. DOI: 10.1002/wcms.1493
   
   for GFN2-xTB:
   * C. Bannwarth, S. Ehlert and S. Grimme., J. Chem. Theory Comput., 2019,
     15, 1652-1671. DOI: 10.1021/acs.jctc.8b01176
   for GFN1-xTB:
   * S. Grimme, C. Bannwarth, P. Shushkov, J. Chem. Theory Comput., 2017,
     13, 1989-2009. DOI: 10.1021/acs.jctc.7b00118
   for GFN0-xTB:
   * P. Pracht, E. Caldeweyher, S. Ehlert, S. Grimme, ChemRxiv, 2019, preprint.
     DOI: 10.26434/chemrxiv.8326202.v1
   for GFN-FF:
   * S. Spicher and S. Grimme, Angew. Chem. Int. Ed., 2020, 59, 15665-15673.
     DOI: 10.1002/anie.202004239
   
   for ALPB and GBSA implicit solvation:
   * S. Ehlert, M. Stahn, S. Spicher, S. Grimme, J. Chem. Theory Comput.,
     2021, 17, 4250-4261. DOI: 10.1021/acs.jctc.1c00471
   
   for DFT-D4:
   * E. Caldeweyher, C. Bannwarth and S. Grimme, J. Chem. Phys., 2017,
     147, 034112. DOI: 10.1063/1.4993215
   * E. Caldeweyher, S. Ehlert, A. Hansen, H. Neugebauer, S. Spicher,
     C. Bannwarth and S. Grimme, J. Chem. Phys., 2019, 150, 154122.
     DOI: 10.1063/1.5090222
   * E. Caldeweyher, J.-M. Mewes, S. Ehlert and S. Grimme, Phys. Chem. Chem. Phys.
     2020, 22, 8499-8512. DOI: 10.1039/D0CP00502A
   
   for sTDA-xTB:
   * S. Grimme and C. Bannwarth, J. Chem. Phys., 2016, 145, 054103.
     DOI: 10.1063/1.4959605
   
   in the mass-spec context:
   * V. Asgeirsson, C. Bauer and S. Grimme, Chem. Sci., 2017, 8, 4879.
     DOI: 10.1039/c7sc00601b
   * J. Koopman and S. Grimme, ACS Omega 2019, 4, 12, 15120-15133.
     DOI: 10.1021/acsomega.9b02011
   
   for metadynamics refer to:
   * S. Grimme, J. Chem. Theory Comput., 2019, 155, 2847-2862
     DOI: 10.1021/acs.jctc.9b00143
   
   for SPH calculations refer to:
   * S. Spicher and S. Grimme, J. Chem. Theory Comput., 2021, 17, 1701-1714
     DOI: 10.1021/acs.jctc.0c01306
   
   with help from (in alphabetical order)
   P. Atkinson, C. Bannwarth, F. Bohle, G. Brandenburg, E. Caldeweyher
   M. Checinski, S. Dohm, S. Ehlert, S. Ehrlich, I. Gerasimov, C. Hölzer
   A. Katbashev, J. Koopman, C. Lavigne, S. Lehtola, F. März, M. Müller,
   F. Musil, H. Neugebauer, J. Pisarek, C. Plett, P. Pracht, F. Pultar,
   J. Seibert, P. Shushkov, S. Spicher, M. Stahn, M. Steiner, T. Strunk,
   J. Stückrath, T. Rose, and J. Unsleber
   
 * started run on 2023/06/21 at 17:18:50.040     

           -------------------------------------------------
          |                Calculation Setup                |
           -------------------------------------------------

          program call               : /lustre/hpc/kemi/ree/PhD/git/ReactivityQM/dep/xtb-6.5.1/bin/xtb --gfn 1 /lustre/hpc/kemi/ree/PhD/git/ReactivityQM/calculations/R02methylcation/reac01prodE09/conf17/R02methylcation_reac01prodE09_conf17_gfn1.xyz --opt --vfukui --chrg -2 --uhf 0 --alpb DMSO
          hostname                   : node317
          coordinate file            : /lustre/hpc/kemi/ree/PhD/git/ReactivityQM/calculations/R02methylcation/reac01prodE09/conf17/R02methylcation_reac01prodE09_conf17_gfn1.xyz
          omp threads                :                     1

   ID    Z sym.   atoms
    1    6 C      1, 3, 5, 7-10, 12, 14, 16, 17, 20, 22, 24
    2    8 O      2, 4, 13, 15, 23, 25
    3    7 N      6, 11, 18, 19, 21
    4    1 H      26-42

           -------------------------------------------------
          |                 G F N 1 - x T B                 |
           -------------------------------------------------

        Reference                      10.1021/acs.jctc.7b00118
      * Hamiltonian:
        H0-scaling (s, p, d)           1.850000    2.250000    2.000000
        zeta-weighting                 0.000000
      * Dispersion:
        s8                             2.400000
        a1                             0.630000
        a2                             5.000000
        s9                             0.000000
      * Repulsion:
        kExp                           1.500000
        rExp                           1.000000
      * Coulomb:
        alpha                          2.000000
        third order                    atomic
        anisotropic                    false
      * Halogen bond correction:
        rad-scale                      1.300000
        damping                        0.440000

      * Solvation model:               ALPB
        Solvent                        DMSO
        Parameter file                 internal GFN1-xTB/ALPB
        Dielectric constant                4.6680E+01
        Reference state                gsolv [1 M gas/solution]
        Free energy shift                  7.6243E-03 Eh       4.7843E+00 kcal/mol
        Temperature                        2.9815E+02 K
        Density                            1.1000E+00 kg/L
        Solvent mass                       7.8130E+01 g/mol
        Interaction kernel             P16
        Born radius scaling (c1)           1.7672E+00
        Born radii integrator          GBOBC
        Born offset                        0.0000E+00 a0       0.0000E+00 AA
        H-bond correction              true
        Ion screening                  false
        Surface tension                    1.0000E-05 Eh       1.5569E+01 dyn/cm
        Grid points                               230 per atom

          ...................................................
          :                      SETUP                      :
          :.................................................:
          :  # basis functions                 134          :
          :  # atomic orbitals                 134          :
          :  # shells                           84          :
          :  # electrons                       136          :
          :  # halogen bonds                     0          :
          :  max. iterations                   250          :
          :  Hamiltonian                  GFN1-xTB          :
          :  restarted?                      false          :
          :  GBSA solvation                   true          :
          :  PC potential                    false          :
          :  electronic temp.          300.0000000     K    :
          :  accuracy                    1.0000000          :
          :  -> integral cutoff          0.2500000E+02      :
          :  -> integral neglect         0.1000000E-07      :
          :  -> SCF convergence          0.1000000E-05 Eh   :
          :  -> wf. convergence          0.2000000E-04 e    :
          :  Broyden damping             0.4000000          :
          ...................................................

 iter      E             dE          RMSdq      gap      omega  full diag
   1    -84.0345372 -0.840345E+02  0.876E+00    0.19       0.0  T
   2    -83.9194598  0.115077E+00  0.547E+00    0.36       1.0  T
   3    -81.2782577  0.264120E+01  0.506E+00    0.25       1.0  T
   4    -84.2034759 -0.292522E+01  0.190E+00    1.33       1.0  T
   5    -84.3139890 -0.110513E+00  0.714E-01    1.34       1.0  T
   6    -84.3283909 -0.144019E-01  0.385E-01    0.88       1.0  T
   7    -84.3313138 -0.292289E-02  0.245E-01    0.42       1.0  T
   8    -84.3354900 -0.417624E-02  0.109E-01    0.16       1.0  T
   9    -84.3327501  0.273996E-02  0.176E-01    0.08       1.0  T
  10    -84.3328903 -0.140222E-03  0.176E-01    0.27       1.0  T
  11    -84.3363265 -0.343618E-02  0.458E-02    0.14       1.0  T
  12    -84.3366119 -0.285445E-03  0.510E-03    0.12       3.0  T
  13    -84.3365599  0.520232E-04  0.197E-02    0.13       1.0  T
  14    -84.3365332  0.266454E-04  0.239E-02    0.11       1.0  T
  15    -84.3366132 -0.799283E-04  0.504E-04    0.12      30.6  T
  16    -84.3366129  0.316000E-06  0.163E-03    0.12       9.5  T
  17    -84.3366132 -0.346476E-06  0.116E-04    0.12     133.5  T
  18    -84.3366132 -0.166892E-09  0.105E-04    0.12     146.3  T

   *** convergence criteria satisfied after 18 iterations ***

         #    Occupation            Energy/Eh            Energy/eV
      -------------------------------------------------------------
         1        2.0000           -0.7836599             -21.3245
       ...           ...                  ...                  ...
        62        2.0000           -0.3945648             -10.7367
        63        2.0000           -0.3818771             -10.3914
        64        2.0000           -0.3719944             -10.1225
        65        2.0000           -0.3600913              -9.7986
        66        2.0000           -0.3529243              -9.6036
        67        2.0000           -0.3390842              -9.2269
        68        1.8254           -0.2531038              -6.8873 (HOMO)
        69        0.1746           -0.2486437              -6.7659 (LUMO)
        70                         -0.2171098              -5.9079
        71                         -0.2154882              -5.8637
        72                         -0.1744640              -4.7474
        73                         -0.1235606              -3.3623
       ...                                ...                  ...
       134                          0.7976300              21.7046
      -------------------------------------------------------------
                  HL-Gap            0.0044601 Eh            0.1214 eV
             Fermi-level           -0.2508737 Eh           -6.8266 eV

 SCC (total)                   0 d,  0 h,  0 min,  0.183 sec
 SCC setup                      ...        0 min,  0.002 sec (  1.123%)
 Dispersion                     ...        0 min,  0.000 sec (  0.220%)
 classical contributions        ...        0 min,  0.000 sec (  0.070%)
 integral evaluation            ...        0 min,  0.037 sec ( 20.080%)
 iterations                     ...        0 min,  0.063 sec ( 34.516%)
 molecular gradient             ...        0 min,  0.079 sec ( 43.434%)
 printout                       ...        0 min,  0.001 sec (  0.532%)

         :::::::::::::::::::::::::::::::::::::::::::::::::::::
         ::                     SUMMARY                     ::
         :::::::::::::::::::::::::::::::::::::::::::::::::::::
         :: total energy             -83.597596226613 Eh    ::
         :: total w/o Gsasa/hb       -83.576988203158 Eh    ::
         :: gradient norm              0.156137052082 Eh/a0 ::
         :: HOMO-LUMO gap              0.121365559958 eV    ::
         ::.................................................::
         :: SCC energy               -84.336613202806 Eh    ::
         :: -> electrostatic           0.679916434665 Eh    ::
         :: -> Gsolv                  -0.265166906821 Eh    ::
         ::    -> Gelec               -0.244558883366 Eh    ::
         ::    -> Gsasa               -0.025215258935 Eh    ::
         ::    -> Ghb                 -0.003017043524 Eh    ::
         ::    -> Gshift               0.007624279005 Eh    ::
         :: repulsion energy           0.764068805673 Eh    ::
         :: dispersion energy         -0.025051829479 Eh    ::
         :: halogen bond corr.         0.000000000000 Eh    ::
         :: add. restraining           0.000000000000 Eh    ::
         :: total charge              -2.000000000000 e     ::
         :::::::::::::::::::::::::::::::::::::::::::::::::::::

      ----------------------------------------------------------- 
     |                   =====================                   |
     |                        A N C O P T                        |
     |                   =====================                   |
     |               Approximate Normal Coordinate               |
     |                Rational Function Optimizer                |
      ----------------------------------------------------------- 

          ...................................................
          :                      SETUP                      :
          :.................................................:
          :   optimization level            normal          :
          :   max. optcycles                   200          :
          :   ANC micro-cycles                  20          :
          :   degrees of freedom               120          :
          :.................................................:
          :   RF solver                   davidson          :
          :   write xtbopt.log                true          :
          :   linear?                        false          :
          :   energy convergence         0.5000000E-05 Eh   :
          :   grad. convergence          0.1000000E-02 Eh/α :
          :   maximium RF displ.         1.0000000          :
          :   Hlow (freq-cutoff)         0.1000000E-01      :
          :   Hmax (freq-cutoff)         5.0000000          :
          :   S6 in model hess.         20.0000000          :
          ...................................................

generating ANC from model Hessian ...
Using Lindh-Hessian (1995)
 Shifting diagonal of input Hessian by   9.822720779936541E-003
 Lowest  eigenvalues of input Hessian
    0.000000    0.000000    0.000000    0.000000    0.000000    0.000000
    0.010000    0.010161    0.010272    0.010852    0.011865    0.012346
    0.012710    0.014043    0.014411    0.015766    0.015870    0.016052
 Highest eigenvalues
    2.026306    2.063348    2.180359    2.229212    2.290186    2.389470
 

........................................................................
.............................. CYCLE    1 ..............................
........................................................................
   1    -84.3366132 -0.843366E+02  0.834E-05    0.12       0.0  T
   2    -84.3366132  0.505452E-07  0.604E-04    0.12      25.6  T
   3    -84.3366132 -0.515313E-07  0.186E-06    0.12    8306.9  T
   4    -84.3366132 -0.255795E-12  0.188E-06    0.12    8189.6  T
     SCC iter.                  ...        0 min,  0.014 sec
     gradient                   ...        0 min,  0.080 sec
 * total energy  :   -83.5975962 Eh     change       -0.1632316E-08 Eh
   gradient norm :     0.1561261 Eh/α   predicted     0.0000000E+00 (-100.00%)
   displ. norm   :     0.2382216 α      lambda       -0.1961830E-01
   maximum displ.:     0.0635696 α      in ANC's #55, #30, #63, ...

........................................................................
.............................. CYCLE    2 ..............................
........................................................................
   1    -84.3444915 -0.843445E+02  0.165E-01    0.38       0.0  T
   2    -84.2310371  0.113454E+00  0.889E-01    0.01       1.0  T
   3    -84.3450304 -0.113993E+00  0.136E-01    0.32       1.0  T
   4    -84.3454329 -0.402462E-03  0.111E-01    0.28       1.0  T
   5    -84.3462164 -0.783474E-03  0.739E-02    0.21       1.0  T
   6    -84.3468532 -0.636882E-03  0.264E-02    0.16       1.0  T
   7    -84.3469434 -0.901509E-04  0.234E-03    0.15       6.6  T
   8    -84.3469424  0.103319E-05  0.316E-03    0.15       4.9  T
   9    -84.3469430 -0.650116E-06  0.200E-03    0.15       7.7  T
  10    -84.3469435 -0.514791E-06  0.490E-04    0.15      31.5  T
  11    -84.3469436 -0.267216E-07  0.185E-04    0.15      83.5  T
  12    -84.3469436 -0.446076E-08  0.887E-06    0.15    1739.0  T
     SCC iter.                  ...        0 min,  0.042 sec
     gradient                   ...        0 min,  0.080 sec
 * total energy  :   -83.6116713 Eh     change       -0.1407506E-01 Eh
   gradient norm :     0.0703453 Eh/α   predicted    -0.1037061E-01 ( -26.32%)
   displ. norm   :     0.2867627 α      lambda       -0.8684289E-02
   maximum displ.:     0.0785371 α      in ANC's #30, #25, #7, ...

........................................................................
.............................. CYCLE    3 ..............................
........................................................................
   1    -84.3576798 -0.843577E+02  0.124E-01    0.45       0.0  T
   2    -84.3584553 -0.775523E-03  0.582E-02    0.21       1.0  T
   3    -84.3585937 -0.138370E-03  0.226E-02    0.21       1.0  T
   4    -84.3585961 -0.241568E-05  0.142E-02    0.20       1.1  T
   5    -84.3585863  0.981434E-05  0.118E-02    0.22       1.3  T
   6    -84.3585973 -0.110104E-04  0.649E-03    0.20       2.4  T
   7    -84.3586013 -0.408529E-05  0.810E-04    0.20      19.1  T
   8    -84.3586014 -0.200822E-07  0.602E-04    0.20      25.6  T
   9    -84.3586014 -0.333399E-07  0.221E-04    0.20      69.7  T
  10    -84.3586014 -0.607257E-08  0.539E-05    0.20     286.3  T
  11    -84.3586014 -0.239140E-09  0.164E-05    0.20     943.4  T
     SCC iter.                  ...        0 min,  0.039 sec
     gradient                   ...        0 min,  0.080 sec
 * total energy  :   -83.6168031 Eh     change       -0.5131850E-02 Eh
   gradient norm :     0.0252455 Eh/α   predicted    -0.4701148E-02 (  -8.39%)
   displ. norm   :     0.2423842 α      lambda       -0.1853411E-02
   maximum displ.:     0.0981085 α      in ANC's #11, #6, #7, ...

........................................................................
.............................. CYCLE    4 ..............................
........................................................................
   1    -84.3600210 -0.843600E+02  0.501E-02    0.33       0.0  T
   2    -84.3601463 -0.125276E-03  0.319E-02    0.24       1.0  T
   3    -84.3601829 -0.366366E-04  0.112E-02    0.25       1.4  T
   4    -84.3601831 -0.173363E-06  0.489E-03    0.24       3.2  T
   5    -84.3601834 -0.277711E-06  0.105E-03    0.25      14.7  T
   6    -84.3601834 -0.280048E-07  0.511E-04    0.25      30.2  T
   7    -84.3601834 -0.154810E-07  0.147E-04    0.25     104.7  T
   8    -84.3601834 -0.338645E-09  0.481E-05    0.25     320.9  T
     SCC iter.                  ...        0 min,  0.028 sec
     gradient                   ...        0 min,  0.080 sec
 * total energy  :   -83.6183641 Eh     change       -0.1561007E-02 Eh
   gradient norm :     0.0270329 Eh/α   predicted    -0.9812149E-03 ( -37.14%)
   displ. norm   :     0.5878224 α      lambda       -0.4080988E-02
   maximum displ.:     0.2854882 α      in ANC's #11, #6, #27, ...

........................................................................
.............................. CYCLE    5 ..............................
........................................................................
   1    -84.3591336 -0.843591E+02  0.123E-01    0.55       0.0  T
   2    -84.3596792 -0.545594E-03  0.819E-02    0.49       1.0  T
   3    -84.3598588 -0.179562E-03  0.339E-02    0.49       1.0  T
   4    -84.3598591 -0.352021E-06  0.644E-03    0.48       2.4  T
   5    -84.3598594 -0.239369E-06  0.119E-03    0.48      12.9  T
   6    -84.3598594 -0.477544E-07  0.486E-04    0.48      31.7  T
   7    -84.3598594 -0.329624E-08  0.194E-04    0.48      79.6  T
   8    -84.3598594 -0.386038E-09  0.432E-05    0.48     357.0  T
     SCC iter.                  ...        0 min,  0.029 sec
     gradient                   ...        0 min,  0.080 sec
 * total energy  :   -83.6215180 Eh     change       -0.3153866E-02 Eh
   gradient norm :     0.0399124 Eh/α   predicted    -0.2745548E-02 ( -12.95%)
   displ. norm   :     0.5236977 α      lambda       -0.3770007E-02
   maximum displ.:     0.2891082 α      in ANC's #11, #27, #6, ...

........................................................................
.............................. CYCLE    6 ..............................
........................................................................
   1    -84.3574364 -0.843574E+02  0.150E-01    0.74       0.0  T
   2    -84.3582226 -0.786136E-03  0.962E-02    0.72       1.0  T
   3    -84.3584280 -0.205479E-03  0.437E-02    0.73       1.0  T
   4    -84.3584284 -0.374682E-06  0.692E-03    0.74       2.2  T
   5    -84.3584287 -0.287141E-06  0.109E-03    0.74      14.2  T
   6    -84.3584287 -0.416495E-07  0.424E-04    0.74      36.4  T
   7    -84.3584287 -0.322630E-08  0.211E-04    0.74      73.0  T
   8    -84.3584287 -0.482160E-09  0.355E-05    0.74     435.1  T
   9    -84.3584287 -0.199947E-10  0.140E-05    0.74    1100.0  T
     SCC iter.                  ...        0 min,  0.031 sec
     gradient                   ...        0 min,  0.080 sec
 * total energy  :   -83.6238948 Eh     change       -0.2376753E-02 Eh
   gradient norm :     0.0455603 Eh/α   predicted    -0.2402024E-02 (   1.06%)
   displ. norm   :     0.2320969 α      lambda       -0.3669574E-02
   maximum displ.:     0.1296013 α      in ANC's #11, #27, #31, ...

........................................................................
.............................. CYCLE    7 ..............................
........................................................................
   1    -84.3658756 -0.843659E+02  0.709E-02    0.66       0.0  T
   2    -84.3660225 -0.146853E-03  0.372E-02    0.66       1.0  T
   3    -84.3660549 -0.324247E-04  0.167E-02    0.66       1.0  T
   4    -84.3660554 -0.530067E-06  0.447E-03    0.66       3.5  T
   5    -84.3660555 -0.586442E-07  0.649E-04    0.66      23.8  T
   6    -84.3660555 -0.549242E-08  0.258E-04    0.66      59.9  T
   7    -84.3660555 -0.896478E-09  0.109E-04    0.66     142.2  T
   8    -84.3660555 -0.134349E-09  0.150E-05    0.66    1027.0  T
     SCC iter.                  ...        0 min,  0.028 sec
     gradient                   ...        0 min,  0.080 sec
 * total energy  :   -83.6263512 Eh     change       -0.2456400E-02 Eh
   gradient norm :     0.0322955 Eh/α   predicted    -0.1933654E-02 ( -21.28%)
   displ. norm   :     0.4163740 α      lambda       -0.3544968E-02
   maximum displ.:     0.2652657 α      in ANC's #11, #21, #13, ...

........................................................................
.............................. CYCLE    8 ..............................
........................................................................
   1    -84.3662517 -0.843663E+02  0.468E-02    0.58       0.0  T
   2    -84.3663578 -0.106101E-03  0.273E-02    0.59       1.0  T
   3    -84.3663790 -0.211945E-04  0.101E-02    0.60       1.5  T
   4    -84.3663791 -0.102295E-06  0.388E-03    0.60       4.0  T
   5    -84.3663792 -0.490667E-07  0.564E-04    0.60      27.4  T
   6    -84.3663792 -0.802297E-08  0.192E-04    0.60      80.5  T
   7    -84.3663792 -0.756231E-09  0.816E-05    0.60     189.2  T
     SCC iter.                  ...        0 min,  0.025 sec
     gradient                   ...        0 min,  0.080 sec
 * total energy  :   -83.6287855 Eh     change       -0.2434365E-02 Eh
   gradient norm :     0.0240641 Eh/α   predicted    -0.2079775E-02 ( -14.57%)
   displ. norm   :     0.3758503 α      lambda       -0.2190592E-02
   maximum displ.:     0.2425795 α      in ANC's #11, #27, #26, ...

........................................................................
.............................. CYCLE    9 ..............................
........................................................................
   1    -84.3691987 -0.843692E+02  0.246E-02    0.58       0.0  T
   2    -84.3692276 -0.289267E-04  0.123E-02    0.59       1.3  T
   3    -84.3692308 -0.323655E-05  0.636E-03    0.58       2.4  T
   4    -84.3692309 -0.445875E-07  0.251E-03    0.58       6.2  T
   5    -84.3692309 -0.306957E-07  0.358E-04    0.58      43.1  T
   6    -84.3692309 -0.249841E-08  0.136E-04    0.58     113.5  T
   7    -84.3692309 -0.224532E-09  0.519E-05    0.58     297.1  T
     SCC iter.                  ...        0 min,  0.024 sec
     gradient                   ...        0 min,  0.080 sec
 * total energy  :   -83.6303444 Eh     change       -0.1558871E-02 Eh
   gradient norm :     0.0188353 Eh/α   predicted    -0.1250069E-02 ( -19.81%)
   displ. norm   :     0.4402057 α      lambda       -0.1563071E-02
   maximum displ.:     0.2697289 α      in ANC's #11, #27, #13, ...

........................................................................
.............................. CYCLE   10 ..............................
........................................................................
   1    -84.3686919 -0.843687E+02  0.395E-02    0.66       0.0  T
   2    -84.3687368 -0.449349E-04  0.241E-02    0.66       1.0  T
   3    -84.3687454 -0.861322E-05  0.126E-02    0.66       1.2  T
   4    -84.3687455 -0.978336E-07  0.228E-03    0.66       6.8  T
   5    -84.3687456 -0.269635E-07  0.261E-04    0.66      59.1  T
   6    -84.3687456 -0.189500E-08  0.110E-04    0.66     139.9  T
   7    -84.3687456 -0.154301E-09  0.505E-05    0.66     305.3  T
     SCC iter.                  ...        0 min,  0.019 sec
     gradient                   ...        0 min,  0.080 sec
 * total energy  :   -83.6313892 Eh     change       -0.1044780E-02 Eh
   gradient norm :     0.0193843 Eh/α   predicted    -0.9329976E-03 ( -10.70%)
   displ. norm   :     0.3959510 α      lambda       -0.1797485E-02
   maximum displ.:     0.1331769 α      in ANC's #11, #5, #29, ...

........................................................................
.............................. CYCLE   11 ..............................
........................................................................
   1    -84.3782048 -0.843782E+02  0.457E-02    0.62       0.0  T
   2    -84.3782560 -0.511602E-04  0.254E-02    0.60       1.0  T
   3    -84.3782576 -0.167964E-05  0.134E-02    0.60       1.2  T
   4    -84.3782580 -0.325469E-06  0.415E-03    0.59       3.7  T
   5    -84.3782582 -0.248971E-06  0.505E-04    0.59      30.6  T
   6    -84.3782582 -0.609478E-08  0.169E-04    0.59      91.5  T
   7    -84.3782582 -0.484377E-09  0.467E-05    0.59     330.5  T
     SCC iter.                  ...        0 min,  0.025 sec
     gradient                   ...        0 min,  0.078 sec
 * total energy  :   -83.6318164 Eh     change       -0.4272344E-03 Eh
   gradient norm :     0.0240546 Eh/α   predicted    -0.1039677E-02 ( 143.35%)
   displ. norm   :     0.2659975 α      lambda       -0.1404427E-02
   maximum displ.:     0.1463450 α      in ANC's #11, #10, #27, ...

........................................................................
.............................. CYCLE   12 ..............................
........................................................................
   1    -84.3746411 -0.843746E+02  0.445E-02    0.66       0.0  T
   2    -84.3747015 -0.604473E-04  0.278E-02    0.66       1.0  T
   3    -84.3747129 -0.113366E-04  0.149E-02    0.66       1.0  T
   4    -84.3747130 -0.845977E-07  0.142E-03    0.66      10.9  T
   5    -84.3747130 -0.267454E-07  0.324E-04    0.66      47.6  T
   6    -84.3747130 -0.225403E-08  0.141E-04    0.66     109.2  T
   7    -84.3747130 -0.224944E-09  0.574E-05    0.66     269.0  T
     SCC iter.                  ...        0 min,  0.024 sec
     gradient                   ...        0 min,  0.079 sec
 * total energy  :   -83.6326118 Eh     change       -0.7954160E-03 Eh
   gradient norm :     0.0167591 Eh/α   predicted    -0.7518980E-03 (  -5.47%)
   displ. norm   :     0.1257095 α      lambda       -0.5195217E-03
   maximum displ.:     0.0468699 α      in ANC's #17, #4, #19, ...

........................................................................
.............................. CYCLE   13 ..............................
........................................................................
   1    -84.3761938 -0.843762E+02  0.228E-02    0.70       0.0  T
   2    -84.3762124 -0.186414E-04  0.134E-02    0.70       1.2  T
   3    -84.3762154 -0.297829E-05  0.652E-03    0.70       2.4  T
   4    -84.3762154 -0.448212E-08  0.145E-03    0.70      10.6  T
   5    -84.3762154 -0.917605E-08  0.148E-04    0.70     104.3  T
   6    -84.3762154 -0.544276E-09  0.533E-05    0.70     289.7  T
     SCC iter.                  ...        0 min,  0.022 sec
     gradient                   ...        0 min,  0.080 sec
 * total energy  :   -83.6329512 Eh     change       -0.3393694E-03 Eh
   gradient norm :     0.0107022 Eh/α   predicted    -0.2638780E-03 ( -22.24%)
   displ. norm   :     0.2641631 α      lambda       -0.5071116E-03
   maximum displ.:     0.0946710 α      in ANC's #17, #5, #4, ...

........................................................................
.............................. CYCLE   14 ..............................
........................................................................
   1    -84.3754227 -0.843754E+02  0.132E-02    0.72       0.0  T
   2    -84.3754299 -0.715222E-05  0.666E-03    0.72       2.3  T
   3    -84.3754307 -0.855220E-06  0.291E-03    0.72       5.3  T
   4    -84.3754308 -0.114367E-07  0.110E-03    0.72      14.0  T
   5    -84.3754308 -0.495709E-08  0.179E-04    0.72      86.0  T
   6    -84.3754308 -0.183348E-09  0.575E-05    0.72     268.3  T
     SCC iter.                  ...        0 min,  0.023 sec
     gradient                   ...        0 min,  0.080 sec
 * total energy  :   -83.6332991 Eh     change       -0.3478611E-03 Eh
   gradient norm :     0.0089159 Eh/α   predicted    -0.2712568E-03 ( -22.02%)
   displ. norm   :     0.2611634 α      lambda       -0.3694716E-03
   maximum displ.:     0.0904211 α      in ANC's #17, #4, #5, ...

........................................................................
.............................. CYCLE   15 ..............................
........................................................................
   1    -84.3771027 -0.843771E+02  0.108E-02    0.72       0.0  T
   2    -84.3771057 -0.293617E-05  0.492E-03    0.72       3.1  T
   3    -84.3771060 -0.352731E-06  0.260E-03    0.72       5.9  T
   4    -84.3771060 -0.270512E-07  0.809E-04    0.72      19.1  T
   5    -84.3771060 -0.900428E-09  0.122E-04    0.72     126.4  T
   6    -84.3771060 -0.190667E-09  0.429E-05    0.72     360.0  T
     SCC iter.                  ...        0 min,  0.023 sec
     gradient                   ...        0 min,  0.080 sec
 * total energy  :   -83.6335392 Eh     change       -0.2401055E-03 Eh
   gradient norm :     0.0082697 Eh/α   predicted    -0.1973372E-03 ( -17.81%)
   displ. norm   :     0.3266450 α      lambda       -0.3227430E-03
   maximum displ.:     0.1183157 α      in ANC's #17, #4, #12, ...

........................................................................
.............................. CYCLE   16 ..............................
........................................................................
   1    -84.3748525 -0.843749E+02  0.117E-02    0.76       0.0  T
   2    -84.3748556 -0.311573E-05  0.650E-03    0.76       2.4  T
   3    -84.3748558 -0.116424E-06  0.330E-03    0.76       4.7  T
   4    -84.3748558 -0.165597E-07  0.919E-04    0.76      16.8  T
   5    -84.3748558 -0.134109E-07  0.166E-04    0.76      93.1  T
   6    -84.3748558 -0.339767E-09  0.480E-05    0.76     321.8  T
     SCC iter.                  ...        0 min,  0.022 sec
     gradient                   ...        0 min,  0.080 sec
 * total energy  :   -83.6337336 Eh     change       -0.1944521E-03 Eh
   gradient norm :     0.0084602 Eh/α   predicted    -0.1785921E-03 (  -8.16%)
   displ. norm   :     0.2301795 α      lambda       -0.2255789E-03
   maximum displ.:     0.0948585 α      in ANC's #2, #4, #17, ...

........................................................................
.............................. CYCLE   17 ..............................
........................................................................
   1    -84.3763688 -0.843764E+02  0.106E-02    0.75       0.0  T
   2    -84.3763724 -0.362671E-05  0.468E-03    0.75       3.3  T
   3    -84.3763729 -0.465370E-06  0.250E-03    0.75       6.2  T
   4    -84.3763729 -0.170680E-07  0.730E-04    0.75      21.1  T
   5    -84.3763729 -0.157905E-08  0.133E-04    0.75     116.0  T
   6    -84.3763729 -0.305562E-09  0.455E-05    0.75     339.5  T
     SCC iter.                  ...        0 min,  0.023 sec
     gradient                   ...        0 min,  0.080 sec
 * total energy  :   -83.6338880 Eh     change       -0.1543652E-03 Eh
   gradient norm :     0.0055550 Eh/α   predicted    -0.1187662E-03 ( -23.06%)
   displ. norm   :     0.2314564 α      lambda       -0.1644954E-03
   maximum displ.:     0.0987248 α      in ANC's #2, #3, #4, ...

........................................................................
.............................. CYCLE   18 ..............................
........................................................................
   1    -84.3764908 -0.843765E+02  0.670E-03    0.76       0.0  T
   2    -84.3764915 -0.614088E-06  0.300E-03    0.76       5.1  T
   3    -84.3764915 -0.410831E-07  0.159E-03    0.76       9.7  T
   4    -84.3764915 -0.156236E-07  0.420E-04    0.76      36.8  T
   5    -84.3764915 -0.201166E-08  0.813E-05    0.76     189.8  T
   6    -84.3764915 -0.953833E-10  0.278E-05    0.76     554.3  T
     SCC iter.                  ...        0 min,  0.021 sec
     gradient                   ...        0 min,  0.081 sec
 * total energy  :   -83.6339942 Eh     change       -0.1061711E-03 Eh
   gradient norm :     0.0058128 Eh/α   predicted    -0.8665726E-04 ( -18.38%)
   displ. norm   :     0.2146818 α      lambda       -0.1191601E-03
   maximum displ.:     0.1041547 α      in ANC's #2, #3, #4, ...

........................................................................
.............................. CYCLE   19 ..............................
........................................................................
   1    -84.3764363 -0.843764E+02  0.127E-02    0.77       0.0  T
   2    -84.3764431 -0.682307E-05  0.671E-03    0.77       2.3  T
   3    -84.3764444 -0.133631E-05  0.234E-03    0.77       6.6  T
   4    -84.3764444 -0.505320E-08  0.580E-04    0.77      26.6  T
   5    -84.3764444 -0.105778E-08  0.100E-04    0.77     153.9  T
   6    -84.3764444 -0.139451E-09  0.369E-05    0.77     418.7  T
     SCC iter.                  ...        0 min,  0.021 sec
     gradient                   ...        0 min,  0.080 sec
 * total energy  :   -83.6340761 Eh     change       -0.8198639E-04 Eh
   gradient norm :     0.0053122 Eh/α   predicted    -0.6232891E-04 ( -23.98%)
   displ. norm   :     0.2163638 α      lambda       -0.1159172E-03
   maximum displ.:     0.1108884 α      in ANC's #2, #3, #4, ...

........................................................................
.............................. CYCLE   20 ..............................
........................................................................
   1    -84.3768412 -0.843768E+02  0.964E-03    0.78       0.0  T
   2    -84.3768448 -0.355956E-05  0.596E-03    0.78       2.6  T
   3    -84.3768453 -0.574561E-06  0.298E-03    0.78       5.2  T
   4    -84.3768453  0.193381E-09  0.607E-04    0.78      25.4  T
   5    -84.3768453 -0.320320E-08  0.826E-05    0.78     186.7  T
   6    -84.3768453 -0.104521E-09  0.216E-05    0.78     712.8  T
     SCC iter.                  ...        0 min,  0.021 sec
     gradient                   ...        0 min,  0.080 sec
 * total energy  :   -83.6341606 Eh     change       -0.8446470E-04 Eh
   gradient norm :     0.0047552 Eh/α   predicted    -0.6067364E-04 ( -28.17%)
   displ. norm   :     0.3006345 α      lambda       -0.1348269E-03
   maximum displ.:     0.1554724 α      in ANC's #2, #3, #4, ...
 * RMSD in coord.:     0.6583832 α      energy gain  -0.3656438E-01 Eh

generating ANC from model Hessian ...
Using Lindh-Hessian (1995)
 Shifting diagonal of input Hessian by   9.796684861390204E-003
 Lowest  eigenvalues of input Hessian
    0.000000    0.000000    0.000000    0.000000    0.000000    0.000000
    0.010000    0.010139    0.010205    0.010844    0.011683    0.012329
    0.012562    0.013819    0.013846    0.014263    0.016141    0.016601
 Highest eigenvalues
    2.080533    2.103051    2.174839    2.204256    2.327527    2.357940
 

........................................................................
.............................. CYCLE   21 ..............................
........................................................................
   1    -84.3749994 -0.843750E+02  0.178E-02    0.81       0.0  T
   2    -84.3750109 -0.115266E-04  0.108E-02    0.81       1.4  T
   3    -84.3750129 -0.203642E-05  0.529E-03    0.81       2.9  T
   4    -84.3750129 -0.477898E-08  0.943E-04    0.80      16.4  T
   5    -84.3750129 -0.678330E-08  0.159E-04    0.80      97.0  T
   6    -84.3750129 -0.357829E-09  0.461E-05    0.80     334.4  T
     SCC iter.                  ...        0 min,  0.022 sec
     gradient                   ...        0 min,  0.080 sec
 * total energy  :   -83.6342424 Eh     change       -0.8182512E-04 Eh
   gradient norm :     0.0060036 Eh/α   predicted     0.0000000E+00 (-100.00%)
   displ. norm   :     0.0460229 α      lambda       -0.9509442E-04
   maximum displ.:     0.0197761 α      in ANC's #13, #3, #9, ...

........................................................................
.............................. CYCLE   22 ..............................
........................................................................
   1    -84.3763705 -0.843764E+02  0.427E-03    0.80       0.0  T
   2    -84.3763710 -0.522222E-06  0.246E-03    0.80       6.3  T
   3    -84.3763711 -0.367085E-07  0.136E-03    0.80      11.4  T
   4    -84.3763711 -0.418295E-08  0.357E-04    0.80      43.2  T
   5    -84.3763711 -0.167879E-08  0.529E-05    0.80     291.8  T
   6    -84.3763711 -0.761275E-10  0.147E-05    0.80    1047.3  T
     SCC iter.                  ...        0 min,  0.025 sec
     gradient                   ...        0 min,  0.080 sec
 * total energy  :   -83.6343123 Eh     change       -0.6986445E-04 Eh
   gradient norm :     0.0023432 Eh/α   predicted    -0.4776393E-04 ( -31.63%)
   displ. norm   :     0.0766911 α      lambda       -0.6881415E-04
   maximum displ.:     0.0334166 α      in ANC's #3, #13, #9, ...

........................................................................
.............................. CYCLE   23 ..............................
........................................................................
   1    -84.3771804 -0.843772E+02  0.471E-03    0.80       0.0  T
   2    -84.3771812 -0.772492E-06  0.307E-03    0.80       5.0  T
   3    -84.3771813 -0.903565E-07  0.170E-03    0.80       9.1  T
   4    -84.3771813 -0.147030E-08  0.412E-04    0.80      37.4  T
   5    -84.3771813 -0.135294E-08  0.484E-05    0.80     318.5  T
   6    -84.3771813 -0.497380E-10  0.146E-05    0.80    1054.6  T
     SCC iter.                  ...        0 min,  0.023 sec
     gradient                   ...        0 min,  0.080 sec
 * total energy  :   -83.6343565 Eh     change       -0.4419447E-04 Eh
   gradient norm :     0.0022103 Eh/α   predicted    -0.3461023E-04 ( -21.69%)
   displ. norm   :     0.0682715 α      lambda       -0.2969929E-04
   maximum displ.:     0.0343477 α      in ANC's #3, #13, #9, ...

........................................................................
.............................. CYCLE   24 ..............................
........................................................................
   1    -84.3771012 -0.843771E+02  0.362E-03    0.80       0.0  T
   2    -84.3771017 -0.494343E-06  0.239E-03    0.80       6.5  T
   3    -84.3771018 -0.714289E-07  0.128E-03    0.80      12.1  T
   4    -84.3771018  0.103611E-09  0.252E-04    0.80      61.2  T
   5    -84.3771018 -0.552433E-09  0.318E-05    0.80     485.0  T
   6    -84.3771018 -0.154330E-10  0.770E-06    0.80    2003.6  T
     SCC iter.                  ...        0 min,  0.022 sec
     gradient                   ...        0 min,  0.081 sec
 * total energy  :   -83.6343800 Eh     change       -0.2350301E-04 Eh
   gradient norm :     0.0024149 Eh/α   predicted    -0.1492027E-04 ( -36.52%)
   displ. norm   :     0.1405422 α      lambda       -0.5189899E-04
   maximum displ.:     0.0729570 α      in ANC's #3, #13, #11, ...

........................................................................
.............................. CYCLE   25 ..............................
........................................................................
   1    -84.3764701 -0.843765E+02  0.774E-03    0.80       0.0  T
   2    -84.3764725 -0.237687E-05  0.501E-03    0.80       3.1  T
   3    -84.3764728 -0.373990E-06  0.258E-03    0.80       6.0  T
   4    -84.3764728  0.974197E-09  0.463E-04    0.80      33.3  T
   5    -84.3764728 -0.221458E-08  0.543E-05    0.80     284.1  T
   6    -84.3764728 -0.370335E-10  0.149E-05    0.80    1035.1  T
     SCC iter.                  ...        0 min,  0.022 sec
     gradient                   ...        0 min,  0.081 sec
 * total energy  :   -83.6344176 Eh     change       -0.3761993E-04 Eh
   gradient norm :     0.0023194 Eh/α   predicted    -0.2646322E-04 ( -29.66%)
   displ. norm   :     0.1515429 α      lambda       -0.4538974E-04
   maximum displ.:     0.0823864 α      in ANC's #3, #13, #11, ...

........................................................................
.............................. CYCLE   26 ..............................
........................................................................
   1    -84.3757204 -0.843757E+02  0.812E-03    0.80       0.0  T
   2    -84.3757231 -0.275188E-05  0.514E-03    0.80       3.0  T
   3    -84.3757236 -0.456428E-06  0.252E-03    0.80       6.1  T
   4    -84.3757236  0.730068E-09  0.460E-04    0.80      33.5  T
   5    -84.3757236 -0.223899E-08  0.488E-05    0.80     316.1  T
   6    -84.3757236 -0.284786E-10  0.152E-05    0.80    1014.2  T
     SCC iter.                  ...        0 min,  0.022 sec
     gradient                   ...        0 min,  0.081 sec
 * total energy  :   -83.6344480 Eh     change       -0.3035712E-04 Eh
   gradient norm :     0.0028798 Eh/α   predicted    -0.2322034E-04 ( -23.51%)
   displ. norm   :     0.0891400 α      lambda       -0.3385655E-04
   maximum displ.:     0.0515065 α      in ANC's #3, #11, #13, ...

........................................................................
.............................. CYCLE   27 ..............................
........................................................................
   1    -84.3757739 -0.843758E+02  0.375E-03    0.80       0.0  T
   2    -84.3757746 -0.645388E-06  0.224E-03    0.80       6.9  T
   3    -84.3757747 -0.104829E-06  0.980E-04    0.80      15.7  T
   4    -84.3757747 -0.884484E-10  0.290E-04    0.80      53.1  T
   5    -84.3757747 -0.533248E-09  0.345E-05    0.80     447.3  T
   6    -84.3757747 -0.154472E-10  0.798E-06    0.80    1932.8  T
     SCC iter.                  ...        0 min,  0.022 sec
     gradient                   ...        0 min,  0.081 sec
 * total energy  :   -83.6344743 Eh     change       -0.2629012E-04 Eh
   gradient norm :     0.0027378 Eh/α   predicted    -0.1709745E-04 ( -34.97%)
   displ. norm   :     0.1027455 α      lambda       -0.4661078E-04
   maximum displ.:     0.0596282 α      in ANC's #3, #11, #24, ...

........................................................................
.............................. CYCLE   28 ..............................
........................................................................
   1    -84.3763462 -0.843763E+02  0.343E-03    0.80       0.0  T
   2    -84.3763467 -0.453949E-06  0.196E-03    0.80       7.9  T
   3    -84.3763468 -0.621692E-07  0.906E-04    0.80      17.0  T
   4    -84.3763468 -0.401414E-09  0.317E-04    0.80      48.6  T
   5    -84.3763468 -0.445695E-09  0.457E-05    0.80     338.0  T
   6    -84.3763468 -0.194973E-10  0.117E-05    0.80    1318.5  T
     SCC iter.                  ...        0 min,  0.022 sec
     gradient                   ...        0 min,  0.081 sec
 * total energy  :   -83.6345055 Eh     change       -0.3125304E-04 Eh
   gradient norm :     0.0020554 Eh/α   predicted    -0.2355230E-04 ( -24.64%)
   displ. norm   :     0.1044640 α      lambda       -0.2543709E-04
   maximum displ.:     0.0610233 α      in ANC's #3, #13, #11, ...

........................................................................
.............................. CYCLE   29 ..............................
........................................................................
   1    -84.3763214 -0.843763E+02  0.204E-03    0.80       0.0  T
   2    -84.3763215 -0.148499E-06  0.103E-03    0.80      15.0  T
   3    -84.3763215 -0.223514E-07  0.421E-04    0.80      36.7  T
   4    -84.3763215 -0.407425E-09  0.145E-04    0.80     106.3  T
   5    -84.3763215 -0.502354E-10  0.286E-05    0.80     539.2  T
     SCC iter.                  ...        0 min,  0.018 sec
     gradient                   ...        0 min,  0.081 sec
 * total energy  :   -83.6345251 Eh     change       -0.1955675E-04 Eh
   gradient norm :     0.0019855 Eh/α   predicted    -0.1286539E-04 ( -34.22%)
   displ. norm   :     0.2274517 α      lambda       -0.3751137E-04
   maximum displ.:     0.1270443 α      in ANC's #3, #13, #2, ...

........................................................................
.............................. CYCLE   30 ..............................
........................................................................
   1    -84.3763201 -0.843763E+02  0.405E-03    0.81       0.0  T
   2    -84.3763207 -0.628519E-06  0.209E-03    0.81       7.4  T
   3    -84.3763208 -0.761435E-07  0.940E-04    0.81      16.4  T
   4    -84.3763208 -0.184122E-08  0.378E-04    0.81      40.8  T
   5    -84.3763208 -0.722764E-09  0.657E-05    0.81     235.0  T
   6    -84.3763208 -0.382840E-10  0.204E-05    0.81     755.2  T
     SCC iter.                  ...        0 min,  0.022 sec
     gradient                   ...        0 min,  0.080 sec
 * total energy  :   -83.6345594 Eh     change       -0.3430244E-04 Eh
   gradient norm :     0.0031758 Eh/α   predicted    -0.1919930E-04 ( -44.03%)
   displ. norm   :     0.0876224 α      lambda       -0.2707886E-04
   maximum displ.:     0.0425636 α      in ANC's #3, #2, #13, ...

........................................................................
.............................. CYCLE   31 ..............................
........................................................................
   1    -84.3765027 -0.843765E+02  0.209E-03    0.81       0.0  T
   2    -84.3765029 -0.154585E-06  0.124E-03    0.81      12.4  T
   3    -84.3765029 -0.253219E-07  0.586E-04    0.81      26.3  T
   4    -84.3765029 -0.550102E-10  0.153E-04    0.81     101.1  T
   5    -84.3765029 -0.130228E-09  0.230E-05    0.81     671.1  T
     SCC iter.                  ...        0 min,  0.018 sec
     gradient                   ...        0 min,  0.080 sec
 * total energy  :   -83.6345826 Eh     change       -0.2319423E-04 Eh
   gradient norm :     0.0025681 Eh/α   predicted    -0.1364454E-04 ( -41.17%)
   displ. norm   :     0.3681237 α      lambda       -0.8136911E-04
   maximum displ.:     0.1892162 α      in ANC's #3, #2, #13, ...

........................................................................
.............................. CYCLE   32 ..............................
........................................................................
   1    -84.3739606 -0.843740E+02  0.902E-03    0.83       0.0  T
   2    -84.3739617 -0.103026E-05  0.516E-03    0.83       3.0  T
   3    -84.3739618 -0.109837E-06  0.254E-03    0.83       6.1  T
   4    -84.3739618 -0.355018E-07  0.475E-04    0.83      32.5  T
   5    -84.3739618 -0.106782E-08  0.933E-05    0.83     165.4  T
   6    -84.3739618 -0.697185E-10  0.219E-05    0.83     705.0  T
     SCC iter.                  ...        0 min,  0.022 sec
     gradient                   ...        0 min,  0.080 sec
 * total energy  :   -83.6345890 Eh     change       -0.6474891E-05 Eh
   gradient norm :     0.0070683 Eh/α   predicted    -0.4619902E-04 ( 613.51%)
   displ. norm   :     0.1193169 α      lambda       -0.1458169E-03
   maximum displ.:     0.0614002 α      in ANC's #3, #11, #13, ...

........................................................................
.............................. CYCLE   33 ..............................
........................................................................
   1    -84.3768624 -0.843769E+02  0.107E-02    0.83       0.0  T
   2    -84.3768632 -0.777593E-06  0.563E-03    0.83       2.7  T
   3    -84.3768633 -0.410087E-07  0.268E-03    0.83       5.8  T
   4    -84.3768633 -0.792520E-07  0.451E-04    0.83      34.2  T
   5    -84.3768633 -0.126022E-08  0.116E-04    0.83     133.5  T
   6    -84.3768633 -0.827924E-10  0.178E-05    0.83     867.0  T
     SCC iter.                  ...        0 min,  0.021 sec
     gradient                   ...        0 min,  0.081 sec
 * total energy  :   -83.6346358 Eh     change       -0.4674947E-04 Eh
   gradient norm :     0.0025868 Eh/α   predicted    -0.7395278E-04 (  58.19%)
   displ. norm   :     0.0733031 α      lambda       -0.2534417E-04
   maximum displ.:     0.0378861 α      in ANC's #3, #2, #13, ...

........................................................................
.............................. CYCLE   34 ..............................
........................................................................
   1    -84.3762850 -0.843763E+02  0.297E-03    0.83       0.0  T
   2    -84.3762851 -0.173850E-06  0.164E-03    0.83       9.4  T
   3    -84.3762852 -0.301316E-07  0.857E-04    0.83      18.0  T
   4    -84.3762852 -0.198557E-08  0.116E-04    0.83     133.3  T
   5    -84.3762852 -0.828067E-10  0.345E-05    0.83     447.6  T
     SCC iter.                  ...        0 min,  0.018 sec
     gradient                   ...        0 min,  0.081 sec
 * total energy  :   -83.6346552 Eh     change       -0.1936883E-04 Eh
   gradient norm :     0.0014880 Eh/α   predicted    -0.1273952E-04 ( -34.23%)
   displ. norm   :     0.2548083 α      lambda       -0.2956644E-04
   maximum displ.:     0.1192840 α      in ANC's #3, #2, #13, ...

........................................................................
.............................. CYCLE   35 ..............................
........................................................................
   1    -84.3747583 -0.843748E+02  0.707E-03    0.84       0.0  T
   2    -84.3747593 -0.921407E-06  0.387E-03    0.84       4.0  T
   3    -84.3747594 -0.151789E-06  0.205E-03    0.84       7.5  T
   4    -84.3747594 -0.149939E-07  0.298E-04    0.84      51.9  T
   5    -84.3747594 -0.417288E-09  0.739E-05    0.84     208.9  T
   6    -84.3747594 -0.421920E-10  0.206E-05    0.84     749.3  T
     SCC iter.                  ...        0 min,  0.021 sec
     gradient                   ...        0 min,  0.081 sec
 * total energy  :   -83.6346610 Eh     change       -0.5788753E-05 Eh
   gradient norm :     0.0047847 Eh/α   predicted    -0.1520726E-04 ( 162.70%)
   displ. norm   :     0.0707407 α      lambda       -0.3251443E-04
   maximum displ.:     0.0386923 α      in ANC's #3, #13, #2, ...

........................................................................
.............................. CYCLE   36 ..............................
........................................................................
   1    -84.3758750 -0.843759E+02  0.339E-03    0.84       0.0  T
   2    -84.3758750 -0.546230E-07  0.188E-03    0.84       8.2  T
   3    -84.3758750  0.453028E-09  0.727E-04    0.84      21.2  T
   4    -84.3758750 -0.852178E-08  0.157E-04    0.84      98.5  T
   5    -84.3758750 -0.103498E-09  0.245E-05    0.84     631.1  T
     SCC iter.                  ...        0 min,  0.018 sec
     gradient                   ...        0 min,  0.081 sec
 * total energy  :   -83.6346809 Eh     change       -0.1994715E-04 Eh
   gradient norm :     0.0021851 Eh/α   predicted    -0.1634918E-04 ( -18.04%)
   displ. norm   :     0.0359201 α      lambda       -0.1267593E-04
   maximum displ.:     0.0239424 α      in ANC's #2, #1, #4, ...

........................................................................
.............................. CYCLE   37 ..............................
........................................................................
   1    -84.3763628 -0.843764E+02  0.178E-03    0.84       0.0  T
   2    -84.3763629 -0.258543E-07  0.937E-04    0.84      16.5  T
   3    -84.3763629 -0.148712E-08  0.463E-04    0.84      33.4  T
   4    -84.3763629 -0.221631E-08  0.707E-05    0.84     218.3  T
   5    -84.3763629 -0.378861E-10  0.219E-05    0.84     703.4  T
     SCC iter.                  ...        0 min,  0.018 sec
     gradient                   ...        0 min,  0.081 sec
 * total energy  :   -83.6346904 Eh     change       -0.9525479E-05 Eh
   gradient norm :     0.0008467 Eh/α   predicted    -0.6344001E-05 ( -33.40%)
   displ. norm   :     0.1413449 α      lambda       -0.1488693E-04
   maximum displ.:     0.0932374 α      in ANC's #2, #1, #4, ...

........................................................................
.............................. CYCLE   38 ..............................
........................................................................
   1    -84.3769403 -0.843769E+02  0.216E-03    0.84       0.0  T
   2    -84.3769404 -0.546434E-07  0.114E-03    0.84      13.6  T
   3    -84.3769404 -0.436212E-08  0.602E-04    0.84      25.6  T
   4    -84.3769404 -0.305924E-08  0.100E-04    0.84     153.9  T
   5    -84.3769404 -0.684821E-10  0.247E-05    0.84     624.4  T
     SCC iter.                  ...        0 min,  0.017 sec
     gradient                   ...        0 min,  0.081 sec
 * total energy  :   -83.6347047 Eh     change       -0.1428085E-04 Eh
   gradient norm :     0.0011232 Eh/α   predicted    -0.7493462E-05 ( -47.53%)
   displ. norm   :     0.1716452 α      lambda       -0.1203723E-04
   maximum displ.:     0.1075415 α      in ANC's #2, #1, #4, ...

........................................................................
.............................. CYCLE   39 ..............................
........................................................................
   1    -84.3764345 -0.843764E+02  0.226E-03    0.84       0.0  T
   2    -84.3764346 -0.107183E-06  0.119E-03    0.84      12.9  T
   3    -84.3764346 -0.160391E-07  0.620E-04    0.84      24.9  T
   4    -84.3764346 -0.174967E-08  0.151E-04    0.84     102.0  T
   5    -84.3764346 -0.642331E-10  0.275E-05    0.84     561.2  T
     SCC iter.                  ...        0 min,  0.018 sec
     gradient                   ...        0 min,  0.080 sec
 * total energy  :   -83.6347168 Eh     change       -0.1212163E-04 Eh
   gradient norm :     0.0009000 Eh/α   predicted    -0.6077610E-05 ( -49.86%)
   displ. norm   :     0.1430222 α      lambda       -0.9485037E-05
   maximum displ.:     0.0954636 α      in ANC's #2, #1, #11, ...

........................................................................
.............................. CYCLE   40 ..............................
........................................................................
   1    -84.3761937 -0.843762E+02  0.286E-03    0.84       0.0  T
   2    -84.3761941 -0.358899E-06  0.162E-03    0.84       9.5  T
   3    -84.3761941 -0.682247E-07  0.649E-04    0.84      23.8  T
   4    -84.3761941 -0.720519E-09  0.186E-04    0.84      83.0  T
   5    -84.3761941 -0.638209E-10  0.306E-05    0.84     505.0  T
     SCC iter.                  ...        0 min,  0.018 sec
     gradient                   ...        0 min,  0.080 sec
 * total energy  :   -83.6347276 Eh     change       -0.1080957E-04 Eh
   gradient norm :     0.0013932 Eh/α   predicted    -0.4776040E-05 ( -55.82%)
   displ. norm   :     0.2270679 α      lambda       -0.1703137E-04
   maximum displ.:     0.1540973 α      in ANC's #2, #1, #11, ...

........................................................................
.............................. CYCLE   41 ..............................
........................................................................
   1    -84.3759068 -0.843759E+02  0.603E-03    0.83       0.0  T
   2    -84.3759084 -0.165037E-05  0.328E-03    0.83       4.7  T
   3    -84.3759088 -0.330233E-06  0.111E-03    0.83      13.9  T
   4    -84.3759088 -0.317584E-08  0.354E-04    0.83      43.6  T
   5    -84.3759088 -0.176854E-09  0.557E-05    0.83     277.3  T
   6    -84.3759088 -0.271143E-10  0.215E-05    0.83     716.5  T
     SCC iter.                  ...        0 min,  0.021 sec
     gradient                   ...        0 min,  0.080 sec
 * total energy  :   -83.6347437 Eh     change       -0.1603727E-04 Eh
   gradient norm :     0.0021359 Eh/α   predicted    -0.8673415E-05 ( -45.92%)
   displ. norm   :     0.0866081 α      lambda       -0.1466937E-04
   maximum displ.:     0.0541021 α      in ANC's #2, #1, #11, ...

........................................................................
.............................. CYCLE   42 ..............................
........................................................................
   1    -84.3764182 -0.843764E+02  0.329E-03    0.83       0.0  T
   2    -84.3764185 -0.348900E-06  0.178E-03    0.83       8.7  T
   3    -84.3764186 -0.673093E-07  0.803E-04    0.83      19.2  T
   4    -84.3764186 -0.958593E-09  0.168E-04    0.83      92.1  T
   5    -84.3764186 -0.794671E-10  0.313E-05    0.83     492.9  T
     SCC iter.                  ...        0 min,  0.018 sec
     gradient                   ...        0 min,  0.080 sec
 * total energy  :   -83.6347543 Eh     change       -0.1062676E-04 Eh
   gradient norm :     0.0011997 Eh/α   predicted    -0.7392065E-05 ( -30.44%)
   displ. norm   :     0.3606194 α      lambda       -0.2423192E-04
   maximum displ.:     0.2535714 α      in ANC's #2, #1, #13, ...
 * RMSD in coord.:     0.3590201 α      energy gain  -0.5936913E-03 Eh

generating ANC from model Hessian ...
Using Lindh-Hessian (1995)
 Shifting diagonal of input Hessian by   9.800156578805761E-003
 Lowest  eigenvalues of input Hessian
    0.000000    0.000000    0.000000    0.000000    0.000000    0.000000
    0.010000    0.010143    0.010220    0.010807    0.011668    0.012283
    0.012611    0.013825    0.013957    0.014314    0.016099    0.016587
 Highest eigenvalues
    2.080258    2.100088    2.167975    2.206028    2.330195    2.355506
 

........................................................................
.............................. CYCLE   43 ..............................
........................................................................
   1    -84.3756958 -0.843757E+02  0.994E-03    0.82       0.0  T
   2    -84.3756997 -0.390421E-05  0.530E-03    0.82       2.9  T
   3    -84.3757005 -0.808628E-06  0.188E-03    0.82       8.2  T
   4    -84.3757005 -0.711070E-08  0.493E-04    0.82      31.3  T
   5    -84.3757005 -0.489649E-09  0.949E-05    0.82     162.5  T
   6    -84.3757005 -0.565450E-10  0.324E-05    0.82     476.2  T
     SCC iter.                  ...        0 min,  0.021 sec
     gradient                   ...        0 min,  0.081 sec
 * total energy  :   -83.6347724 Eh     change       -0.1812553E-04 Eh
   gradient norm :     0.0025724 Eh/α   predicted     0.0000000E+00 (-100.00%)
   displ. norm   :     0.0268739 α      lambda       -0.6522538E-05
   maximum displ.:     0.0114776 α      in ANC's #5, #10, #4, ...

........................................................................
.............................. CYCLE   44 ..............................
........................................................................
   1    -84.3766991 -0.843767E+02  0.267E-03    0.81       0.0  T
   2    -84.3766993 -0.201883E-06  0.139E-03    0.81      11.1  T
   3    -84.3766993 -0.343024E-07  0.704E-04    0.81      21.9  T
   4    -84.3766993 -0.736748E-09  0.126E-04    0.81     122.1  T
   5    -84.3766993 -0.102617E-09  0.278E-05    0.81     554.3  T
     SCC iter.                  ...        0 min,  0.018 sec
     gradient                   ...        0 min,  0.081 sec
 * total energy  :   -83.6347878 Eh     change       -0.1535091E-04 Eh
   gradient norm :     0.0009479 Eh/α   predicted    -0.9833308E-05 ( -35.94%)
   displ. norm   :     0.1068272 α      lambda       -0.2700101E-04
   maximum displ.:     0.0462201 α      in ANC's #5, #4, #10, ...

........................................................................
.............................. CYCLE   45 ..............................
........................................................................
   1    -84.3782915 -0.843783E+02  0.527E-03    0.81       0.0  T
   2    -84.3782923 -0.835467E-06  0.268E-03    0.81       5.8  T
   3    -84.3782924 -0.106047E-06  0.146E-03    0.81      10.6  T
   4    -84.3782924 -0.428729E-08  0.302E-04    0.81      51.2  T
   5    -84.3782924 -0.564441E-09  0.668E-05    0.81     231.0  T
   6    -84.3782924 -0.661515E-10  0.141E-05    0.81    1091.7  T
     SCC iter.                  ...        0 min,  0.021 sec
     gradient                   ...        0 min,  0.081 sec
 * total energy  :   -83.6348090 Eh     change       -0.2118905E-04 Eh
   gradient norm :     0.0025989 Eh/α   predicted    -0.1356931E-04 ( -35.96%)
   displ. norm   :     0.0410011 α      lambda       -0.1159095E-04
   maximum displ.:     0.0198259 α      in ANC's #4, #5, #7, ...

........................................................................
.............................. CYCLE   46 ..............................
........................................................................
   1    -84.3780096 -0.843780E+02  0.131E-03    0.81       0.0  T
   2    -84.3780097 -0.583609E-07  0.792E-04    0.81      19.5  T
   3    -84.3780097 -0.111829E-07  0.370E-04    0.81      41.7  T
   4    -84.3780097 -0.742659E-10  0.625E-05    0.81     246.7  T
   5    -84.3780097 -0.273701E-10  0.177E-05    0.81     872.8  T
     SCC iter.                  ...        0 min,  0.018 sec
     gradient                   ...        0 min,  0.081 sec
 * total energy  :   -83.6348195 Eh     change       -0.1051457E-04 Eh
   gradient norm :     0.0020506 Eh/α   predicted    -0.5866240E-05 ( -44.21%)
   displ. norm   :     0.1421312 α      lambda       -0.3520735E-04
   maximum displ.:     0.0710577 α      in ANC's #4, #7, #5, ...

........................................................................
.............................. CYCLE   47 ..............................
........................................................................
   1    -84.3769379 -0.843769E+02  0.492E-03    0.81       0.0  T
   2    -84.3769388 -0.855803E-06  0.295E-03    0.81       5.2  T
   3    -84.3769390 -0.178408E-06  0.130E-03    0.81      11.9  T
   4    -84.3769390 -0.113944E-08  0.203E-04    0.81      76.1  T
   5    -84.3769390 -0.238984E-09  0.609E-05    0.81     253.5  T
   6    -84.3769390 -0.233342E-10  0.129E-05    0.81    1194.7  T
     SCC iter.                  ...        0 min,  0.021 sec
     gradient                   ...        0 min,  0.080 sec
 * total energy  :   -83.6348420 Eh     change       -0.2256852E-04 Eh
   gradient norm :     0.0007831 Eh/α   predicted    -0.1796510E-04 ( -20.40%)
   displ. norm   :     0.1098148 α      lambda       -0.9388767E-05
   maximum displ.:     0.0612016 α      in ANC's #4, #2, #7, ...

........................................................................
.............................. CYCLE   48 ..............................
........................................................................
   1    -84.3765608 -0.843766E+02  0.343E-03    0.81       0.0  T
   2    -84.3765612 -0.418394E-06  0.204E-03    0.81       7.5  T
   3    -84.3765613 -0.877691E-07  0.878E-04    0.81      17.6  T
   4    -84.3765613 -0.682562E-09  0.157E-04    0.81      98.2  T
   5    -84.3765613 -0.124729E-09  0.428E-05    0.81     360.9  T
     SCC iter.                  ...        0 min,  0.018 sec
     gradient                   ...        0 min,  0.080 sec
 * total energy  :   -83.6348520 Eh     change       -0.9961771E-05 Eh
   gradient norm :     0.0013472 Eh/α   predicted    -0.4722334E-05 ( -52.60%)
   displ. norm   :     0.0893716 α      lambda       -0.1089037E-04
   maximum displ.:     0.0519653 α      in ANC's #4, #2, #6, ...

........................................................................
.............................. CYCLE   49 ..............................
........................................................................
   1    -84.3768667 -0.843769E+02  0.278E-03    0.81       0.0  T
   2    -84.3768669 -0.258735E-06  0.152E-03    0.81      10.1  T
   3    -84.3768670 -0.476165E-07  0.665E-04    0.81      23.2  T
   4    -84.3768670 -0.680288E-09  0.173E-04    0.81      89.2  T
   5    -84.3768670 -0.111697E-09  0.374E-05    0.81     412.1  T
     SCC iter.                  ...        0 min,  0.018 sec
     gradient                   ...        0 min,  0.080 sec
 * total energy  :   -83.6348657 Eh     change       -0.1371236E-04 Eh
   gradient norm :     0.0012330 Eh/α   predicted    -0.5464814E-05 ( -60.15%)
   displ. norm   :     0.1609624 α      lambda       -0.1734153E-04
   maximum displ.:     0.0918127 α      in ANC's #4, #2, #6, ...

........................................................................
.............................. CYCLE   50 ..............................
........................................................................
   1    -84.3771267 -0.843771E+02  0.414E-03    0.80       0.0  T
   2    -84.3771271 -0.473772E-06  0.229E-03    0.80       6.7  T
   3    -84.3771272 -0.888404E-07  0.110E-03    0.80      14.0  T
   4    -84.3771272 -0.251522E-08  0.236E-04    0.80      65.3  T
   5    -84.3771272 -0.198028E-09  0.531E-05    0.80     290.4  T
   6    -84.3771272 -0.322871E-10  0.187E-05    0.80     825.6  T
     SCC iter.                  ...        0 min,  0.021 sec
     gradient                   ...        0 min,  0.080 sec
 * total energy  :   -83.6348842 Eh     change       -0.1851871E-04 Eh
   gradient norm :     0.0008750 Eh/α   predicted    -0.8771480E-05 ( -52.63%)
   displ. norm   :     0.1286352 α      lambda       -0.9319640E-05
   maximum displ.:     0.0792280 α      in ANC's #2, #4, #13, ...

........................................................................
.............................. CYCLE   51 ..............................
........................................................................
   1    -84.3773807 -0.843774E+02  0.312E-03    0.80       0.0  T
   2    -84.3773810 -0.225194E-06  0.167E-03    0.80       9.2  T
   3    -84.3773810 -0.422783E-07  0.836E-04    0.80      18.5  T
   4    -84.3773810 -0.180788E-08  0.167E-04    0.80      92.1  T
   5    -84.3773810 -0.948717E-10  0.336E-05    0.80     459.0  T
     SCC iter.                  ...        0 min,  0.018 sec
     gradient                   ...        0 min,  0.080 sec
 * total energy  :   -83.6348954 Eh     change       -0.1112729E-04 Eh
   gradient norm :     0.0007198 Eh/α   predicted    -0.4695396E-05 ( -57.80%)
   displ. norm   :     0.1228798 α      lambda       -0.9217262E-05
   maximum displ.:     0.0800238 α      in ANC's #2, #4, #13, ...

........................................................................
.............................. CYCLE   52 ..............................
........................................................................
   1    -84.3775544 -0.843776E+02  0.254E-03    0.79       0.0  T
   2    -84.3775545 -0.960203E-07  0.136E-03    0.79      11.3  T
   3    -84.3775545 -0.138815E-07  0.739E-04    0.79      20.9  T
   4    -84.3775545 -0.239343E-08  0.135E-04    0.79     114.3  T
   5    -84.3775545 -0.108031E-09  0.299E-05    0.79     516.9  T
     SCC iter.                  ...        0 min,  0.018 sec
     gradient                   ...        0 min,  0.081 sec
 * total energy  :   -83.6349067 Eh     change       -0.1134836E-04 Eh
   gradient norm :     0.0006378 Eh/α   predicted    -0.4640082E-05 ( -59.11%)
   displ. norm   :     0.1205410 α      lambda       -0.1023068E-04
   maximum displ.:     0.0823528 α      in ANC's #2, #4, #10, ...

........................................................................
.............................. CYCLE   53 ..............................
........................................................................
   1    -84.3776513 -0.843777E+02  0.232E-03    0.78       0.0  T
   2    -84.3776514 -0.953158E-07  0.125E-03    0.78      12.4  T
   3    -84.3776515 -0.106028E-07  0.695E-04    0.78      22.2  T
   4    -84.3776515 -0.200869E-08  0.126E-04    0.78     122.4  T
   5    -84.3776515 -0.151957E-09  0.295E-05    0.78     522.7  T
     SCC iter.                  ...        0 min,  0.018 sec
     gradient                   ...        0 min,  0.081 sec
 * total energy  :   -83.6349185 Eh     change       -0.1180977E-04 Eh
   gradient norm :     0.0007447 Eh/α   predicted    -0.5150454E-05 ( -56.39%)
   displ. norm   :     0.0901808 α      lambda       -0.7098363E-05
   maximum displ.:     0.0658598 α      in ANC's #2, #4, #10, ...

........................................................................
.............................. CYCLE   54 ..............................
........................................................................
   1    -84.3776943 -0.843777E+02  0.190E-03    0.78       0.0  T
   2    -84.3776944 -0.110182E-06  0.101E-03    0.78      15.3  T
   3    -84.3776944 -0.197805E-07  0.502E-04    0.78      30.7  T
   4    -84.3776944 -0.310990E-09  0.862E-05    0.78     179.1  T
   5    -84.3776944 -0.398188E-10  0.196E-05    0.78     788.1  T
     SCC iter.                  ...        0 min,  0.018 sec
     gradient                   ...        0 min,  0.080 sec
 * total energy  :   -83.6349270 Eh     change       -0.8497804E-05 Eh
   gradient norm :     0.0005834 Eh/α   predicted    -0.3563413E-05 ( -58.07%)
   displ. norm   :     0.0552034 α      lambda       -0.4058827E-05
   maximum displ.:     0.0437810 α      in ANC's #2, #4, #3, ...

........................................................................
.............................. CYCLE   55 ..............................
........................................................................
   1    -84.3776719 -0.843777E+02  0.810E-04    0.78       0.0  T
   2    -84.3776720 -0.144637E-07  0.485E-04    0.78      31.8  T
   3    -84.3776720 -0.257704E-08  0.256E-04    0.78      60.4  T
   4    -84.3776720 -0.869136E-10  0.354E-05    0.78     435.6  T
   5    -84.3776720 -0.145519E-10  0.770E-06    0.78    2003.6  T
     SCC iter.                  ...        0 min,  0.018 sec
     gradient                   ...        0 min,  0.080 sec
 * total energy  :   -83.6349321 Eh     change       -0.5117654E-05 Eh
   gradient norm :     0.0003991 Eh/α   predicted    -0.2036963E-05 ( -60.20%)
   displ. norm   :     0.0372076 α      lambda       -0.3001902E-05
   maximum displ.:     0.0311233 α      in ANC's #2, #3, #12, ...

........................................................................
.............................. CYCLE   56 ..............................
........................................................................
   1    -84.3776846 -0.843777E+02  0.784E-04    0.78       0.0  T
   2    -84.3776846 -0.272969E-07  0.486E-04    0.78      31.7  T
   3    -84.3776846 -0.539546E-08  0.193E-04    0.78      79.9  T
   4    -84.3776846 -0.315197E-10  0.499E-05    0.78     309.5  T
     SCC iter.                  ...        0 min,  0.014 sec
     gradient                   ...        0 min,  0.079 sec
 * total energy  :   -83.6349361 Eh     change       -0.3942461E-05 Eh
   gradient norm :     0.0002462 Eh/α   predicted    -0.1504289E-05 ( -61.84%)
   displ. norm   :     0.0371041 α      lambda       -0.2998907E-05
   maximum displ.:     0.0295879 α      in ANC's #2, #3, #12, ...

   *** GEOMETRY OPTIMIZATION CONVERGED AFTER 56 ITERATIONS ***

------------------------------------------------------------------------
 total energy gain   :        -0.0373399 Eh      -23.4311 kcal/mol
 total RMSD          :         0.8256154 a0        0.4369 Å
 total power (kW/mol):        -1.7506389 (step)  -12.3890 (real)
------------------------------------------------------------------------

 ANCopt (total)                0 d,  0 h,  0 min,  7.913 sec
 optimizer setup                ...        0 min,  0.001 sec (  0.013%)
 model hessian                  ...        0 min,  0.075 sec (  0.946%)
 ANC generation                 ...        0 min,  0.007 sec (  0.087%)
 coordinate transformation      ...        0 min,  0.002 sec (  0.023%)
 single point calculation       ...        0 min,  7.797 sec ( 98.527%)
 optimization log               ...        0 min,  0.016 sec (  0.203%)
 hessian update                 ...        0 min,  0.002 sec (  0.021%)
 rational function              ...        0 min,  0.009 sec (  0.116%)

================
 final structure:
================
42
 xtb: 6.5.1 (579679a)
C           -5.94425198443307       -1.50504602911873        0.38660614013860
O           -4.73583529013214       -0.76913055014133        0.29358423502009
C           -4.75553544152736        0.29404106982308       -0.57540117659679
O           -5.77529732525173        0.55062930344283       -1.20095796507603
C           -3.48770077512408        0.99514027563737       -0.62612817135784
N           -2.49761162972832        0.48602845256586        0.19923882549671
C           -1.33367389456462        1.02272930265443        0.22245275353760
C           -0.25287092472966        0.54746831011028        1.17765367991186
C           -0.33197137309709        1.45474572893712        2.41917522031663
C           -0.51252985469152       -0.91650143625787        1.56476861311411
N            1.02913551481733        0.71823632841906        0.48871428879008
C            2.21762203064976        0.19231209216909        1.15440021501025
O            2.33083614401786        0.26010925748233        2.42009912703336
C            3.10500830284579       -0.42018082884177        0.31917497429317
O            3.02438462764276       -0.39958855656855       -1.10659636557279
C            4.25152215061728       -0.73728886186314       -1.51664864713963
C            4.50947334011991       -0.81771322104422       -2.98264995925869
N            5.12911337119273       -0.96833009124119       -0.61637972058869
N            4.49011148016215       -0.76096271426747        0.65890374769376
C            4.58402013780860       -2.01494270496354        1.42274380521925
N           -1.02542589545713        2.12130174915593       -0.55334947663222
C           -1.90362307817124        2.73337377431432       -1.40087224751657
O           -1.54542904197511        3.71360650600448       -2.05707083130734
C           -3.28904897512945        2.12943384126774       -1.45692902994406
O           -4.13972663158488        2.64988668529463       -2.20631105516442
H           -5.77171985666496       -2.31833409061496        1.09067287522497
H           -6.22732381929546       -1.91696343951687       -0.58784665994366
H           -6.76080825831763       -0.87198377603255        0.74992096040486
H           -1.34731401321837        1.44183909295812        2.81675411039975
H            0.35277653046626        1.11215084920646        3.19279546782149
H           -0.07166943029780        2.47754366336360        2.14667542710567
H           -1.52628654653687       -1.01919072340767        1.95222334010532
H           -0.40718296492759       -1.55947671450909        0.69100943126967
H            0.19556228606152       -1.23469141419241        2.32878601057178
H            0.96858926198764        0.29832215338042       -0.43623182359219
H            3.83146130505178       -1.53716436234283       -3.44099354191332
H            5.53673898760987       -1.12760764352518       -3.15813188255305
H            4.33968173826513        0.15262836449120       -3.44947146906525
H            5.63600215307177       -2.24626484907420        1.58644119618871
H            4.10386787648815       -2.84657399967377        0.89640627207531
H            4.09049528152608       -1.85077457753263        2.38068863201649
H           -0.08356751557480        2.48718778409156       -0.50888232554197
 
 Bond Distances (Angstroems)
 ---------------------------
C1-O2=1.4179         C1-H26=1.0895        C1-H27=1.0952        C1-H28=1.0952        O2-C1=1.4179         O2-C3=1.3733         
C3-O2=1.3733         C3-O4=1.2235         C3-C5=1.4497         O4-C3=1.2235         C5-C3=1.4497         C5-N6=1.3859         
C5-C24=1.4200        N6-C5=1.3859         N6-C7=1.2819         C7-N6=1.2819         C7-C8=1.5187         C7-N21=1.3798        
C8-C7=1.5187         C8-C9=1.5397         C8-C10=1.5364        C8-N11=1.4654        C9-C8=1.5397         C9-H29=1.0905        
C9-H30=1.0885        C9-H31=1.0900        C10-C8=1.5364        C10-H32=1.0901       C10-H33=1.0899       C10-H34=1.0892       
N11-C8=1.4654        N11-C12=1.4602       N11-H35=1.0176       C12-N11=1.4602       C12-O13=1.2726       C12-C14=1.3639       
O13-C12=1.2726       C14-C12=1.3639       C14-O15=1.4282       C14-N19=1.4663       O15-C14=1.4282       O15-C16=1.3372       
C16-O15=1.3372       C16-C17=1.4907       C16-N18=1.2783       C17-C16=1.4907       C17-H36=1.0897       C17-H37=1.0872       
C17-H38=1.0901       N18-C16=1.2783       N18-N19=1.4414       N19-C14=1.4663       N19-N18=1.4414       N19-C20=1.4713       
C20-N19=1.4713       C20-H39=1.0895       C20-H40=1.0951       C20-H41=1.0900       N21-C7=1.3798        N21-C22=1.3653       
N21-H42=1.0114       C22-N21=1.3653       C22-O23=1.2328       C22-C24=1.5124       O23-C22=1.2328       C24-C5=1.4200        
C24-C22=1.5124       C24-O25=1.2474       O25-C24=1.2474       H26-C1=1.0895        H27-C1=1.0952        H28-C1=1.0952        
H29-C9=1.0905        H30-C9=1.0885        H31-C9=1.0900        H32-C10=1.0901       H33-C10=1.0899       H34-C10=1.0892       
H35-N11=1.0176       H36-C17=1.0897       H37-C17=1.0872       H38-C17=1.0901       H39-C20=1.0895       H40-C20=1.0951       
H41-C20=1.0900       H42-N21=1.0114       
 C  H  Rav=1.0906 sigma=0.0024  Rmin=1.0872  Rmax=1.0952    15
 C  C  Rav=1.4789 sigma=0.0585  Rmin=1.3639  Rmax=1.5397     8
 N  H  Rav=1.0145 sigma=0.0031  Rmin=1.0114  Rmax=1.0176     2
 N  C  Rav=1.3949 sigma=0.0728  Rmin=1.2783  Rmax=1.4713     9
 N  N  Rav=1.4414 sigma=0.0000  Rmin=1.4414  Rmax=1.4414     1
 O  C  Rav=1.3166 sigma=0.0781  Rmin=1.2235  Rmax=1.4282     8
 
 selected bond angles (degree)
 --------------------
H26-C1-O2=107.15               H27-C1-O2=110.92               H27-C1-H26=109.58              H28-C1-O2=110.93               
H28-C1-H26=109.58              H28-C1-H27=108.65              C3-O2-C1=115.54                O4-C3-O2=119.86                
C5-C3-O2=112.58                C5-C3-O4=127.56                N6-C5-C3=115.23                C24-C5-C3=121.95               
C24-C5-N6=122.82               C7-N6-C5=120.37                C8-C7-N6=121.77                N21-C7-N6=121.74               
N21-C7-C8=116.35               C9-C8-C7=106.63                C10-C8-C7=109.66               C10-C8-C9=110.46               
N11-C8-C7=106.88               N11-C8-C9=110.82               N11-C8-C10=112.17              H29-C9-C8=109.56               
H30-C9-C8=110.81               H30-C9-H29=108.84              H31-C9-C8=109.82               H31-C9-H29=108.94              
H31-C9-H30=108.83              H32-C10-C8=109.66              H33-C10-C8=110.11              H33-C10-H32=108.62             
H34-C10-C8=110.20              H34-C10-H32=109.13             H34-C10-H33=109.10             
 
 selected dihedral angles (degree)
 ---------------------------------
C3-O2-C1-H26=178.93           C3-O2-C1-H27= 59.36           C3-O2-C1-H28=298.51           O4-C3-O2-C1=  0.26            
C5-C3-O2-C1=180.34            N6-C5-C3-O2=359.68            N6-C5-C3-O4=179.77            C24-C5-C3-O2=180.24           
C24-C5-C3-O4=  0.32           C7-N6-C5-C3=179.32            C7-N6-C5-C24=358.76           C8-C7-N6-C5=176.05            
N21-C7-N6-C5=  0.57           C9-C8-C7-N6=265.50            C9-C8-C7-N21= 81.20           C10-C8-C7-N6= 25.11           
C10-C8-C7-N21=200.82          N11-C8-C7-N6=146.93           N11-C8-C7-N21=322.63          H29-C9-C8-C7= 54.41           
H29-C9-C8-C10=295.32          H29-C9-C8-N11=170.38          H30-C9-C8-C7=174.52           H30-C9-C8-C10= 55.43          
H30-C9-C8-N11=290.49          H31-C9-C8-C7=294.79           H31-C9-C8-C10=175.70          H31-C9-C8-N11= 50.76          
H32-C10-C8-C7=306.06          H32-C10-C8-C9= 63.29          H32-C10-C8-N11=187.46         H33-C10-C8-C7= 65.52          
H33-C10-C8-C9=182.76          H33-C10-C8-N11=306.92         H34-C10-C8-C7=185.91          H34-C10-C8-C9=303.14          
H34-C10-C8-N11= 67.31         
           -------------------------------------------------
          |                Final Singlepoint                |
           -------------------------------------------------

          ...................................................
          :                      SETUP                      :
          :.................................................:
          :  # basis functions                 134          :
          :  # atomic orbitals                 134          :
          :  # shells                           84          :
          :  # electrons                       136          :
          :  # halogen bonds                     0          :
          :  max. iterations                   250          :
          :  Hamiltonian                  GFN1-xTB          :
          :  restarted?                      false          :
          :  GBSA solvation                   true          :
          :  PC potential                    false          :
          :  electronic temp.          300.0000000     K    :
          :  accuracy                    1.0000000          :
          :  -> integral cutoff          0.2500000E+02      :
          :  -> integral neglect         0.1000000E-07      :
          :  -> SCF convergence          0.1000000E-05 Eh   :
          :  -> wf. convergence          0.2000000E-04 e    :
          :  Broyden damping             0.4000000          :
          ...................................................

 iter      E             dE          RMSdq      gap      omega  full diag
   1    -84.3776846 -0.843777E+02  0.653E-06    0.78       0.0  T
   2    -84.3776846 -0.511591E-12  0.286E-06    0.78    5401.3  T
   3    -84.3776846  0.184741E-12  0.113E-06    0.78   13703.1  T

   *** convergence criteria satisfied after 3 iterations ***

         #    Occupation            Energy/Eh            Energy/eV
      -------------------------------------------------------------
         1        2.0000           -0.7888929             -21.4669
       ...           ...                  ...                  ...
        62        2.0000           -0.4006130             -10.9012
        63        2.0000           -0.3819345             -10.3930
        64        2.0000           -0.3798070             -10.3351
        65        2.0000           -0.3656797              -9.9507
        66        2.0000           -0.3570174              -9.7149
        67        2.0000           -0.3519725              -9.5777
        68        2.0000           -0.2878489              -7.8328 (HOMO)
        69        0.0000           -0.2592169              -7.0537 (LUMO)
        70                         -0.2208910              -6.0108
        71                         -0.2053679              -5.5883
        72                         -0.1855873              -5.0501
        73                         -0.1292793              -3.5179
       ...                                ...                  ...
       134                          0.7700066              20.9529
      -------------------------------------------------------------
                  HL-Gap            0.0286320 Eh            0.7791 eV
             Fermi-level           -0.2735329 Eh           -7.4432 eV

 SCC (total)                   0 d,  0 h,  0 min,  0.118 sec
 SCC setup                      ...        0 min,  0.002 sec (  1.457%)
 Dispersion                     ...        0 min,  0.000 sec (  0.277%)
 classical contributions        ...        0 min,  0.000 sec (  0.092%)
 integral evaluation            ...        0 min,  0.034 sec ( 29.253%)
 iterations                     ...        0 min,  0.011 sec (  9.417%)
 molecular gradient             ...        0 min,  0.069 sec ( 58.726%)
 printout                       ...        0 min,  0.001 sec (  0.740%)

         :::::::::::::::::::::::::::::::::::::::::::::::::::::
         ::                     SUMMARY                     ::
         :::::::::::::::::::::::::::::::::::::::::::::::::::::
         :: total energy             -83.634936083475 Eh    ::
         :: total w/o Gsasa/hb       -83.614751043772 Eh    ::
         :: gradient norm              0.000246482145 Eh/a0 ::
         :: HOMO-LUMO gap              0.779116384017 eV    ::
         ::.................................................::
         :: SCC energy               -84.377684583546 Eh    ::
         :: -> electrostatic           0.676242222227 Eh    ::
         :: -> Gsolv                  -0.260625236447 Eh    ::
         ::    -> Gelec               -0.240440196745 Eh    ::
         ::    -> Gsasa               -0.024831243008 Eh    ::
         ::    -> Ghb                 -0.002978075698 Eh    ::
         ::    -> Gshift               0.007624279005 Eh    ::
         :: repulsion energy           0.768209548927 Eh    ::
         :: dispersion energy         -0.025461048856 Eh    ::
         :: halogen bond corr.         0.000000000000 Eh    ::
         :: add. restraining           0.000000000000 Eh    ::
         :: total charge              -2.000000000000 e     ::
         :::::::::::::::::::::::::::::::::::::::::::::::::::::

           -------------------------------------------------
          |                Property Printout                |
           -------------------------------------------------

    * Orbital Energies and Occupations

         #    Occupation            Energy/Eh            Energy/eV
      -------------------------------------------------------------
         1        2.0000           -0.7888929             -21.4669
       ...           ...                  ...                  ...
        56        2.0000           -0.4468784             -12.1602
        57        2.0000           -0.4419432             -12.0259
        58        2.0000           -0.4276618             -11.6373
        59        2.0000           -0.4243662             -11.5476
        60        2.0000           -0.4190022             -11.4016
        61        2.0000           -0.4112702             -11.1912
        62        2.0000           -0.4006130             -10.9012
        63        2.0000           -0.3819345             -10.3930
        64        2.0000           -0.3798070             -10.3351
        65        2.0000           -0.3656797              -9.9507
        66        2.0000           -0.3570174              -9.7149
        67        2.0000           -0.3519725              -9.5777
        68        2.0000           -0.2878489              -7.8328 (HOMO)
        69        0.0000           -0.2592169              -7.0537 (LUMO)
        70                         -0.2208910              -6.0108
        71                         -0.2053679              -5.5883
        72                         -0.1855873              -5.0501
        73                         -0.1292793              -3.5179
        74                         -0.1203213              -3.2741
        75                         -0.1179386              -3.2093
        76                         -0.0970987              -2.6422
        77                         -0.0921494              -2.5075
        78                         -0.0902799              -2.4566
        79                         -0.0876955              -2.3863
       ...                                ...                  ...
       134                          0.7700066              20.9529
      -------------------------------------------------------------
                  HL-Gap            0.0286320 Eh            0.7791 eV
             Fermi-level           -0.2735329 Eh           -7.4432 eV

  Mulliken/CM5 charges         n(s)   n(p)   n(d)
     1C     0.17438  0.05532   0.969  2.857  0.000
     2O    -0.44952 -0.52961   1.694  4.756  0.000
     3C     0.54065  0.60426   0.980  2.480  0.000
     4O    -0.61899 -0.66382   1.734  4.885  0.000
     5C    -0.02351  0.05177   1.038  2.986  0.000
     6N    -0.40084 -0.58475   1.535  3.866  0.000
     7C     0.24459  0.39483   1.015  2.741  0.000
     8C     0.15844  0.19771   1.060  2.782  0.000
     9C    -0.08650 -0.22547   1.013  3.073  0.000
    10C    -0.09224 -0.23117   1.012  3.080  0.000
    11N    -0.44247 -0.77564   1.481  3.961  0.000
    12C     0.34945  0.43524   0.978  2.672  0.000
    13O    -0.74263 -0.78725   1.752  4.991  0.000
    14C     0.11237  0.19921   0.998  2.889  0.000
    15O    -0.43473 -0.49027   1.709  4.726  0.000
    16C     0.39173  0.50331   0.987  2.621  0.000
    17C    -0.11200 -0.24887   1.009  3.103  0.000
    18N    -0.37471 -0.49727   1.587  3.787  0.000
    19N    -0.21708 -0.38073   1.526  3.691  0.000
    20C     0.05517 -0.02715   0.988  2.957  0.000
    21N    -0.30950 -0.65311   1.436  3.874  0.000
    22C     0.42016  0.52438   1.010  2.570  0.000
    23O    -0.62676 -0.66367   1.738  4.889  0.000
    24C     0.28247  0.32752   1.034  2.684  0.000
    25O    -0.64441 -0.68209   1.745  4.899  0.000
    26H     0.02952  0.08977   0.970  0.000  0.000
    27H     0.03027  0.09204   0.970  0.000  0.000
    28H     0.02934  0.09088   0.971  0.000  0.000
    29H     0.01114  0.06640   0.989  0.000  0.000
    30H     0.04176  0.10299   0.958  0.000  0.000
    31H     0.01786  0.07585   0.982  0.000  0.000
    32H     0.01870  0.07701   0.981  0.000  0.000
    33H     0.02192  0.07895   0.978  0.000  0.000
    34H     0.03460  0.09285   0.965  0.000  0.000
    35H     0.19470  0.39925   0.805  0.000  0.000
    36H     0.05261  0.10727   0.947  0.000  0.000
    37H     0.04220  0.09844   0.958  0.000  0.000
    38H     0.05101  0.10549   0.949  0.000  0.000
    39H     0.00482  0.06926   0.995  0.000  0.000
    40H     0.00309  0.06694   0.997  0.000  0.000
    41H     0.01702  0.08204   0.983  0.000  0.000
    42H     0.24592  0.45190   0.754  0.000  0.000

Wiberg/Mayer (AO) data.
largest (>0.10) Wiberg bond orders for each atom

 ---------------------------------------------------------------------------
     #   Z sym  total        # sym  WBO       # sym  WBO       # sym  WBO
 ---------------------------------------------------------------------------
     1   6 C    3.904 --    26 H    0.987    28 H    0.980    27 H    0.980
                             2 O    0.932
     2   8 O    2.132 --     3 C    1.016     1 C    0.932     4 O    0.106
     3   6 C    3.848 --     4 O    1.582     5 C    1.131     2 O    1.016
     4   8 O    1.860 --     3 C    1.582     2 O    0.106
     5   6 C    3.919 --    24 C    1.273     6 N    1.145     3 C    1.131
                            25 O    0.130
     6   7 N    3.021 --     7 C    1.633     5 C    1.145
     7   6 C    3.926 --     6 N    1.633    21 N    1.095     8 C    0.976
     8   6 C    3.966 --    10 C    0.989     9 C    0.980     7 C    0.976
                            11 N    0.965
     9   6 C    3.993 --    29 H    0.989    31 H    0.987     8 C    0.980
                            30 H    0.976
    10   6 C    3.996 --     8 C    0.989    33 H    0.987    32 H    0.985
                            34 H    0.984
    11   7 N    3.075 --     8 C    0.965    12 C    0.947    35 H    0.941
    12   6 C    3.932 --    14 C    1.519    13 O    1.336    11 N    0.947
    13   8 O    1.701 --    12 C    1.336    14 C    0.172
    14   6 C    3.659 --    12 C    1.519    19 N    0.947    15 O    0.873
                            13 O    0.172
    15   8 O    2.190 --    16 C    1.087    14 C    0.873    18 N    0.133
    16   6 C    3.906 --    18 N    1.709    15 O    1.087    17 C    1.014
    17   6 C    3.995 --    16 C    1.014    37 H    0.987    36 H    0.973
                            38 H    0.973
    18   7 N    2.947 --    16 C    1.709    19 N    0.987    15 O    0.133
    19   7 N    3.064 --    18 N    0.987    20 C    0.969    14 C    0.947
    20   6 C    3.981 --    39 H    0.989    41 H    0.986    40 H    0.984
                            19 N    0.969
    21   7 N    3.438 --    22 C    1.179     7 C    1.095    42 H    0.893
                            23 O    0.136
    22   6 C    3.883 --    23 O    1.559    21 N    1.179    24 C    0.971
    23   8 O    1.838 --    22 C    1.559    21 N    0.136
    24   6 C    3.944 --    25 O    1.510     5 C    1.273    22 C    0.971
    25   8 O    1.813 --    24 C    1.510     5 C    0.130
    26   1 H    1.017 --     1 C    0.987
    27   1 H    1.015 --     1 C    0.980
    28   1 H    1.015 --     1 C    0.980
    29   1 H    1.009 --     9 C    0.989
    30   1 H    1.032 --     9 C    0.976
    31   1 H    1.012 --     9 C    0.987
    32   1 H    1.019 --    10 C    0.985
    33   1 H    1.008 --    10 C    0.987
    34   1 H    1.016 --    10 C    0.984
    35   1 H    0.982 --    11 N    0.941
    36   1 H    1.003 --    17 C    0.973
    37   1 H    1.006 --    17 C    0.987
    38   1 H    1.004 --    17 C    0.973
    39   1 H    1.025 --    20 C    0.989
    40   1 H    1.021 --    20 C    0.984
    41   1 H    1.034 --    20 C    0.986
    42   1 H    0.964 --    21 N    0.893
 ---------------------------------------------------------------------------

Topologies differ in total number of bonds
Writing topology from bond orders to xtbtopo.mol

 dipole moment from electron density (au)
     X       Y       Z   
   2.9540  -5.4849   0.7298  total (Debye):   15.943

           -------------------------------------------------
          |                Geometry Summary                 |
           -------------------------------------------------

      molecular mass/u    :      351.3152409
   center of mass at/Å    :       -0.2974282       0.4079600      -0.1412268
  moments of inertia/u·Å² :        0.1308770E+04   0.4964358E+04   0.5381850E+04
rotational constants/cm⁻¹ :        0.1288052E-01   0.3395733E-02   0.3132312E-02

 * 33 selected distances

     #   Z          #   Z                                           value/Å
     1   6 C        2   8 O                                       1.4179196
     2   8 O        3   6 C                                       1.3732654
     3   6 C        4   8 O                                       1.2235495
     6   7 N        7   6 C                                       1.2819275
     8   6 C        9   6 C                                       1.5397355 (max)
     8   6 C       10   6 C                                       1.5363882
     8   6 C       11   7 N                                       1.4653805
    12   6 C       14   6 C                                       1.3638928
    15   8 O       16   6 C                                       1.3371803
    16   6 C       17   6 C                                       1.4906935
    16   6 C       18   7 N                                       1.2782922
    19   7 N       20   6 C                                       1.4713044
     7   6 C       21   7 N                                       1.3797636
    21   7 N       22   6 C                                       1.3653416
    22   6 C       23   8 O                                       1.2327839
     5   6 C       24   6 C                                       1.4199700
     1   6 C       26   1 H                                       1.0894563
     1   6 C       27   1 H                                       1.0951548
     1   6 C       28   1 H                                       1.0952305
     9   6 C       29   1 H                                       1.0904845
     9   6 C       30   1 H                                       1.0884574
     9   6 C       31   1 H                                       1.0900133
    10   6 C       32   1 H                                       1.0901234
    10   6 C       33   1 H                                       1.0899406
    10   6 C       34   1 H                                       1.0892025
    11   7 N       35   1 H                                       1.0176047
    17   6 C       36   1 H                                       1.0896740
    17   6 C       37   1 H                                       1.0872458
    17   6 C       38   1 H                                       1.0900984
    20   6 C       39   1 H                                       1.0894830
    20   6 C       40   1 H                                       1.0950745
    20   6 C       41   1 H                                       1.0900351
    21   7 N       42   1 H                                       1.0114086 (min)

 * 5 distinct bonds (by element types)

   Z      Z             #   av. dist./Å        max./Å        min./Å
   1 H    6 C          15     1.0906449     1.0952305     1.0872458
   6 C    6 C           5     1.4701360     1.5397355     1.3638928
   1 H    7 N           2     1.0145066     1.0176047     1.0114086
   6 C    7 N           6     1.3736683     1.4713044     1.2782922
   6 C    8 O           5     1.3169397     1.4179196     1.2235495


optimized geometry written to: xtbopt.xyz


           -------------------------------------------------
          | TOTAL ENERGY              -83.634936083475 Eh   |
          | GRADIENT NORM               0.000246482145 Eh/α |
          | HOMO-LUMO GAP               0.779116384017 eV   |
           -------------------------------------------------

------------------------------------------------------------------------
 * finished run on 2023/06/21 at 17:18:58.415     
------------------------------------------------------------------------
 total:
 * wall-time:     0 d,  0 h,  0 min,  8.375 sec
 *  cpu-time:     0 d,  0 h,  0 min,  8.254 sec
 * ratio c/w:     0.985 speedup
 SCF:
 * wall-time:     0 d,  0 h,  0 min,  0.184 sec
 *  cpu-time:     0 d,  0 h,  0 min,  0.181 sec
 * ratio c/w:     0.987 speedup
 ANC optimizer:
 * wall-time:     0 d,  0 h,  0 min,  8.051 sec
 *  cpu-time:     0 d,  0 h,  0 min,  8.021 sec
 * ratio c/w:     0.996 speedup

