      -----------------------------------------------------------      
     |                   =====================                   |     
     |                           x T B                           |     
     |                   =====================                   |     
     |                         S. Grimme                         |     
     |          Mulliken Center for Theoretical Chemistry        |     
     |                    University of Bonn                     |     
      -----------------------------------------------------------      

   * xtb version 6.5.1 (579679a) compiled by 'ehlert@majestix' on 2022-07-11

   xtb is free software: you can redistribute it and/or modify it under
   the terms of the GNU Lesser General Public License as published by
   the Free Software Foundation, either version 3 of the License, or
   (at your option) any later version.
   
   xtb is distributed in the hope that it will be useful,
   but WITHOUT ANY WARRANTY; without even the implied warranty of
   MERCHANTABILITY or FITNESS FOR A PARTICULAR PURPOSE.  See the
   GNU Lesser General Public License for more details.
   
   Cite this work as:
   * C. Bannwarth, E. Caldeweyher, S. Ehlert, A. Hansen, P. Pracht,
     J. Seibert, S. Spicher, S. Grimme, WIREs Comput. Mol. Sci., 2020, 11,
     e01493. DOI: 10.1002/wcms.1493
   
   for GFN2-xTB:
   * C. Bannwarth, S. Ehlert and S. Grimme., J. Chem. Theory Comput., 2019,
     15, 1652-1671. DOI: 10.1021/acs.jctc.8b01176
   for GFN1-xTB:
   * S. Grimme, C. Bannwarth, P. Shushkov, J. Chem. Theory Comput., 2017,
     13, 1989-2009. DOI: 10.1021/acs.jctc.7b00118
   for GFN0-xTB:
   * P. Pracht, E. Caldeweyher, S. Ehlert, S. Grimme, ChemRxiv, 2019, preprint.
     DOI: 10.26434/chemrxiv.8326202.v1
   for GFN-FF:
   * S. Spicher and S. Grimme, Angew. Chem. Int. Ed., 2020, 59, 15665-15673.
     DOI: 10.1002/anie.202004239
   
   for ALPB and GBSA implicit solvation:
   * S. Ehlert, M. Stahn, S. Spicher, S. Grimme, J. Chem. Theory Comput.,
     2021, 17, 4250-4261. DOI: 10.1021/acs.jctc.1c00471
   
   for DFT-D4:
   * E. Caldeweyher, C. Bannwarth and S. Grimme, J. Chem. Phys., 2017,
     147, 034112. DOI: 10.1063/1.4993215
   * E. Caldeweyher, S. Ehlert, A. Hansen, H. Neugebauer, S. Spicher,
     C. Bannwarth and S. Grimme, J. Chem. Phys., 2019, 150, 154122.
     DOI: 10.1063/1.5090222
   * E. Caldeweyher, J.-M. Mewes, S. Ehlert and S. Grimme, Phys. Chem. Chem. Phys.
     2020, 22, 8499-8512. DOI: 10.1039/D0CP00502A
   
   for sTDA-xTB:
   * S. Grimme and C. Bannwarth, J. Chem. Phys., 2016, 145, 054103.
     DOI: 10.1063/1.4959605
   
   in the mass-spec context:
   * V. Asgeirsson, C. Bauer and S. Grimme, Chem. Sci., 2017, 8, 4879.
     DOI: 10.1039/c7sc00601b
   * J. Koopman and S. Grimme, ACS Omega 2019, 4, 12, 15120-15133.
     DOI: 10.1021/acsomega.9b02011
   
   for metadynamics refer to:
   * S. Grimme, J. Chem. Theory Comput., 2019, 155, 2847-2862
     DOI: 10.1021/acs.jctc.9b00143
   
   for SPH calculations refer to:
   * S. Spicher and S. Grimme, J. Chem. Theory Comput., 2021, 17, 1701-1714
     DOI: 10.1021/acs.jctc.0c01306
   
   with help from (in alphabetical order)
   P. Atkinson, C. Bannwarth, F. Bohle, G. Brandenburg, E. Caldeweyher
   M. Checinski, S. Dohm, S. Ehlert, S. Ehrlich, I. Gerasimov, C. Hölzer
   A. Katbashev, J. Koopman, C. Lavigne, S. Lehtola, F. März, M. Müller,
   F. Musil, H. Neugebauer, J. Pisarek, C. Plett, P. Pracht, F. Pultar,
   J. Seibert, P. Shushkov, S. Spicher, M. Stahn, M. Steiner, T. Strunk,
   J. Stückrath, T. Rose, and J. Unsleber
   
 * started run on 2023/06/21 at 17:25:36.474     

           -------------------------------------------------
          |                Calculation Setup                |
           -------------------------------------------------

          program call               : /lustre/hpc/kemi/ree/PhD/git/ReactivityQM/dep/xtb-6.5.1/bin/xtb --gfn 1 /lustre/hpc/kemi/ree/PhD/git/ReactivityQM/calculations/R02oxygendeprot/reac01prodN10/conf14/R02oxygendeprot_reac01prodN10_conf14_gfn1.xyz --opt --vfukui --chrg 0 --uhf 0 --alpb DMSO
          hostname                   : node070
          coordinate file            : /lustre/hpc/kemi/ree/PhD/git/ReactivityQM/calculations/R02oxygendeprot/reac01prodN10/conf14/R02oxygendeprot_reac01prodN10_conf14_gfn1.xyz
          omp threads                :                     1

   ID    Z sym.   atoms
    1    6 C      1, 3, 5, 6, 8, 11-15, 17, 19, 22, 23
    2    8 O      2, 4, 7, 9, 18, 24
    3    7 N      10, 16, 20, 21, 25
    4    1 H      26-42

           -------------------------------------------------
          |                 G F N 1 - x T B                 |
           -------------------------------------------------

        Reference                      10.1021/acs.jctc.7b00118
      * Hamiltonian:
        H0-scaling (s, p, d)           1.850000    2.250000    2.000000
        zeta-weighting                 0.000000
      * Dispersion:
        s8                             2.400000
        a1                             0.630000
        a2                             5.000000
        s9                             0.000000
      * Repulsion:
        kExp                           1.500000
        rExp                           1.000000
      * Coulomb:
        alpha                          2.000000
        third order                    atomic
        anisotropic                    false
      * Halogen bond correction:
        rad-scale                      1.300000
        damping                        0.440000

      * Solvation model:               ALPB
        Solvent                        DMSO
        Parameter file                 internal GFN1-xTB/ALPB
        Dielectric constant                4.6680E+01
        Reference state                gsolv [1 M gas/solution]
        Free energy shift                  7.6243E-03 Eh       4.7843E+00 kcal/mol
        Temperature                        2.9815E+02 K
        Density                            1.1000E+00 kg/L
        Solvent mass                       7.8130E+01 g/mol
        Interaction kernel             P16
        Born radius scaling (c1)           1.7672E+00
        Born radii integrator          GBOBC
        Born offset                        0.0000E+00 a0       0.0000E+00 AA
        H-bond correction              true
        Ion screening                  false
        Surface tension                    1.0000E-05 Eh       1.5569E+01 dyn/cm
        Grid points                               230 per atom

          ...................................................
          :                      SETUP                      :
          :.................................................:
          :  # basis functions                 134          :
          :  # atomic orbitals                 134          :
          :  # shells                           84          :
          :  # electrons                       134          :
          :  # halogen bonds                     0          :
          :  max. iterations                   250          :
          :  Hamiltonian                  GFN1-xTB          :
          :  restarted?                      false          :
          :  GBSA solvation                   true          :
          :  PC potential                    false          :
          :  electronic temp.          300.0000000     K    :
          :  accuracy                    1.0000000          :
          :  -> integral cutoff          0.2500000E+02      :
          :  -> integral neglect         0.1000000E-07      :
          :  -> SCF convergence          0.1000000E-05 Eh   :
          :  -> wf. convergence          0.2000000E-04 e    :
          :  Broyden damping             0.4000000          :
          ...................................................

 iter      E             dE          RMSdq      gap      omega  full diag
   1    -83.3473559 -0.833474E+02  0.841E+00    1.89       0.0  T
   2    -83.7045602 -0.357204E+00  0.505E+00    1.53       1.0  T
   3    -83.6938710  0.106892E-01  0.180E+00    1.60       1.0  T
   4    -83.7259872 -0.321162E-01  0.161E-01    1.58       1.0  T
   5    -83.7267949 -0.807694E-03  0.442E-02    1.59       1.0  T
   6    -83.7268385 -0.435613E-04  0.161E-02    1.60       1.0  T
   7    -83.7268440 -0.558423E-05  0.380E-03    1.60       4.1  T
   8    -83.7268443 -0.242040E-06  0.730E-04    1.61      21.1  T
   9    -83.7268443 -0.108612E-07  0.354E-04    1.61      43.6  T
  10    -83.7268443 -0.124327E-08  0.965E-05    1.61     160.0  T
  11    -83.7268443 -0.149313E-09  0.282E-05    1.61     547.4  T

   *** convergence criteria satisfied after 11 iterations ***

         #    Occupation            Energy/Eh            Energy/eV
      -------------------------------------------------------------
         1        2.0000           -0.8659566             -23.5639
       ...           ...                  ...                  ...
        61        2.0000           -0.4853585             -13.2073
        62        2.0000           -0.4700021             -12.7894
        63        2.0000           -0.4625667             -12.5871
        64        2.0000           -0.4557365             -12.4012
        65        2.0000           -0.4469892             -12.1632
        66        2.0000           -0.4452023             -12.1146
        67        2.0000           -0.4424432             -12.0395 (HOMO)
        68                         -0.3834555             -10.4344 (LUMO)
        69                         -0.3308232              -9.0022
        70                         -0.3193293              -8.6894
        71                         -0.2602862              -7.0827
        72                         -0.2594863              -7.0610
       ...                                ...                  ...
       134                          0.7582251              20.6324
      -------------------------------------------------------------
                  HL-Gap            0.0589877 Eh            1.6051 eV
             Fermi-level           -0.4129493 Eh          -11.2369 eV

 SCC (total)                   0 d,  0 h,  0 min,  0.143 sec
 SCC setup                      ...        0 min,  0.002 sec (  1.235%)
 Dispersion                     ...        0 min,  0.000 sec (  0.186%)
 classical contributions        ...        0 min,  0.000 sec (  0.066%)
 integral evaluation            ...        0 min,  0.025 sec ( 17.437%)
 iterations                     ...        0 min,  0.057 sec ( 39.874%)
 molecular gradient             ...        0 min,  0.058 sec ( 40.334%)
 printout                       ...        0 min,  0.001 sec (  0.854%)

         :::::::::::::::::::::::::::::::::::::::::::::::::::::
         ::                     SUMMARY                     ::
         :::::::::::::::::::::::::::::::::::::::::::::::::::::
         :: total energy             -82.966251291817 Eh    ::
         :: total w/o Gsasa/hb       -82.946593862089 Eh    ::
         :: gradient norm              0.114841738263 Eh/a0 ::
         :: HOMO-LUMO gap              1.605137765899 eV    ::
         ::.................................................::
         :: SCC energy               -83.726844293947 Eh    ::
         :: -> electrostatic           0.354981616721 Eh    ::
         :: -> Gsolv                  -0.054926320011 Eh    ::
         ::    -> Gelec               -0.035268890283 Eh    ::
         ::    -> Gsasa               -0.023605628892 Eh    ::
         ::    -> Ghb                 -0.003676079840 Eh    ::
         ::    -> Gshift               0.007624279005 Eh    ::
         :: repulsion energy           0.787569909016 Eh    ::
         :: dispersion energy         -0.026976906886 Eh    ::
         :: halogen bond corr.         0.000000000000 Eh    ::
         :: add. restraining           0.000000000000 Eh    ::
         :: total charge               0.000000000000 e     ::
         :::::::::::::::::::::::::::::::::::::::::::::::::::::

      ----------------------------------------------------------- 
     |                   =====================                   |
     |                        A N C O P T                        |
     |                   =====================                   |
     |               Approximate Normal Coordinate               |
     |                Rational Function Optimizer                |
      ----------------------------------------------------------- 

          ...................................................
          :                      SETUP                      :
          :.................................................:
          :   optimization level            normal          :
          :   max. optcycles                   200          :
          :   ANC micro-cycles                  20          :
          :   degrees of freedom               120          :
          :.................................................:
          :   RF solver                   davidson          :
          :   write xtbopt.log                true          :
          :   linear?                        false          :
          :   energy convergence         0.5000000E-05 Eh   :
          :   grad. convergence          0.1000000E-02 Eh/α :
          :   maximium RF displ.         1.0000000          :
          :   Hlow (freq-cutoff)         0.1000000E-01      :
          :   Hmax (freq-cutoff)         5.0000000          :
          :   S6 in model hess.         20.0000000          :
          ...................................................

generating ANC from model Hessian ...
Using Lindh-Hessian (1995)
 Shifting diagonal of input Hessian by   9.842744437307134E-003
 Lowest  eigenvalues of input Hessian
    0.000000    0.000000    0.000000    0.000000    0.000000    0.000000
    0.010000    0.010216    0.010602    0.010968    0.012057    0.012697
    0.013450    0.014138    0.014744    0.016159    0.016469    0.017333
 Highest eigenvalues
    1.978711    2.147058    2.261220    2.307714    2.336878    2.383792
 

........................................................................
.............................. CYCLE    1 ..............................
........................................................................
   1    -83.7268443 -0.837268E+02  0.124E-05    1.61       0.0  T
   2    -83.7268443 -0.115108E-11  0.656E-06    1.61    2352.6  T
   3    -83.7268443  0.000000E+00  0.340E-06    1.61    4534.2  T
     SCC iter.                  ...        0 min,  0.016 sec
     gradient                   ...        0 min,  0.058 sec
 * total energy  :   -82.9662513 Eh     change       -0.1524825E-10 Eh
   gradient norm :     0.1148416 Eh/α   predicted     0.0000000E+00 (-100.00%)
   displ. norm   :     0.3074462 α      lambda       -0.1483114E-01
   maximum displ.:     0.1062167 α      in ANC's #27, #21, #30, ...

........................................................................
.............................. CYCLE    2 ..............................
........................................................................
   1    -83.7456449 -0.837456E+02  0.722E-02    1.70       0.0  T
   2    -83.7458523 -0.207360E-03  0.362E-02    1.70       1.0  T
   3    -83.7458790 -0.267501E-04  0.156E-02    1.70       1.0  T
   4    -83.7458792 -0.124608E-06  0.316E-03    1.70       4.9  T
   5    -83.7458792 -0.640340E-07  0.691E-04    1.70      22.3  T
   6    -83.7458792 -0.675573E-08  0.242E-04    1.70      63.9  T
   7    -83.7458792 -0.106493E-08  0.819E-05    1.70     188.4  T
   8    -83.7458792 -0.664357E-10  0.239E-05    1.70     646.7  T
     SCC iter.                  ...        0 min,  0.041 sec
     gradient                   ...        0 min,  0.057 sec
 * total energy  :   -82.9771410 Eh     change       -0.1088974E-01 Eh
   gradient norm :     0.0608191 Eh/α   predicted    -0.8128616E-02 ( -25.36%)
   displ. norm   :     0.3429771 α      lambda       -0.7654520E-02
   maximum displ.:     0.1221683 α      in ANC's #7, #27, #26, ...

........................................................................
.............................. CYCLE    3 ..............................
........................................................................
   1    -83.7592779 -0.837593E+02  0.718E-02    1.74       0.0  T
   2    -83.7594880 -0.210047E-03  0.361E-02    1.74       1.0  T
   3    -83.7595140 -0.259899E-04  0.155E-02    1.74       1.0  T
   4    -83.7595141 -0.102597E-06  0.409E-03    1.74       3.8  T
   5    -83.7595142 -0.105458E-06  0.729E-04    1.74      21.2  T
   6    -83.7595142 -0.901774E-08  0.263E-04    1.74      58.6  T
   7    -83.7595142 -0.917865E-09  0.792E-05    1.74     194.9  T
   8    -83.7595142 -0.857483E-10  0.255E-05    1.74     605.8  T
     SCC iter.                  ...        0 min,  0.044 sec
     gradient                   ...        0 min,  0.059 sec
 * total energy  :   -82.9816337 Eh     change       -0.4492682E-02 Eh
   gradient norm :     0.0166392 Eh/α   predicted    -0.4279641E-02 (  -4.74%)
   displ. norm   :     0.2333360 α      lambda       -0.1143416E-02
   maximum displ.:     0.1201497 α      in ANC's #7, #2, #5, ...

........................................................................
.............................. CYCLE    4 ..............................
........................................................................
   1    -83.7605940 -0.837606E+02  0.186E-02    1.76       0.0  T
   2    -83.7606063 -0.122527E-04  0.935E-03    1.76       1.7  T
   3    -83.7606076 -0.130891E-05  0.455E-03    1.76       3.4  T
   4    -83.7606076 -0.123697E-07  0.150E-03    1.76      10.3  T
   5    -83.7606076 -0.173822E-07  0.271E-04    1.76      56.9  T
   6    -83.7606076 -0.141806E-08  0.865E-05    1.76     178.4  T
   7    -83.7606076 -0.122853E-09  0.273E-05    1.76     565.1  T
     SCC iter.                  ...        0 min,  0.037 sec
     gradient                   ...        0 min,  0.057 sec
 * total energy  :   -82.9824665 Eh     change       -0.8327457E-03 Eh
   gradient norm :     0.0098263 Eh/α   predicted    -0.6028662E-03 ( -27.61%)
   displ. norm   :     0.3480920 α      lambda       -0.9747394E-03
   maximum displ.:     0.1937527 α      in ANC's #7, #2, #5, ...

........................................................................
.............................. CYCLE    5 ..............................
........................................................................
   1    -83.7608035 -0.837608E+02  0.156E-02    1.77       0.0  T
   2    -83.7608117 -0.820318E-05  0.777E-03    1.76       2.0  T
   3    -83.7608126 -0.884514E-06  0.392E-03    1.77       3.9  T
   4    -83.7608127 -0.205397E-07  0.144E-03    1.77      10.7  T
   5    -83.7608127 -0.164745E-07  0.257E-04    1.77      60.0  T
   6    -83.7608127 -0.136454E-08  0.722E-05    1.77     213.8  T
   7    -83.7608127 -0.924274E-10  0.255E-05    1.77     604.0  T
     SCC iter.                  ...        0 min,  0.037 sec
     gradient                   ...        0 min,  0.057 sec
 * total energy  :   -82.9831718 Eh     change       -0.7053860E-03 Eh
   gradient norm :     0.0101478 Eh/α   predicted    -0.5464332E-03 ( -22.53%)
   displ. norm   :     0.3863838 α      lambda       -0.7013812E-03
   maximum displ.:     0.2182189 α      in ANC's #7, #2, #5, ...

........................................................................
.............................. CYCLE    6 ..............................
........................................................................
   1    -83.7607588 -0.837608E+02  0.104E-02    1.77       0.0  T
   2    -83.7607620 -0.319792E-05  0.485E-03    1.77       3.2  T
   3    -83.7607623 -0.243815E-06  0.265E-03    1.77       5.8  T
   4    -83.7607623 -0.183449E-07  0.897E-04    1.77      17.2  T
   5    -83.7607623 -0.698395E-08  0.171E-04    1.77      90.4  T
   6    -83.7607623 -0.585430E-09  0.493E-05    1.77     313.2  T
     SCC iter.                  ...        0 min,  0.033 sec
     gradient                   ...        0 min,  0.059 sec
 * total energy  :   -82.9837165 Eh     change       -0.5446578E-03 Eh
   gradient norm :     0.0110703 Eh/α   predicted    -0.4030468E-03 ( -26.00%)
   displ. norm   :     0.4424826 α      lambda       -0.6527270E-03
   maximum displ.:     0.2523082 α      in ANC's #7, #2, #3, ...

........................................................................
.............................. CYCLE    7 ..............................
........................................................................
   1    -83.7614050 -0.837614E+02  0.859E-03    1.77       0.0  T
   2    -83.7614067 -0.177326E-05  0.479E-03    1.77       3.2  T
   3    -83.7614069 -0.132280E-06  0.253E-03    1.77       6.1  T
   4    -83.7614069 -0.146215E-07  0.632E-04    1.77      24.4  T
   5    -83.7614069 -0.398281E-08  0.130E-04    1.77     119.0  T
   6    -83.7614069 -0.313179E-09  0.359E-05    1.77     429.4  T
     SCC iter.                  ...        0 min,  0.032 sec
     gradient                   ...        0 min,  0.059 sec
 * total energy  :   -82.9842136 Eh     change       -0.4970556E-03 Eh
   gradient norm :     0.0096918 Eh/α   predicted    -0.3902633E-03 ( -21.48%)
   displ. norm   :     0.3971541 α      lambda       -0.4590196E-03
   maximum displ.:     0.2254569 α      in ANC's #2, #7, #3, ...

........................................................................
.............................. CYCLE    8 ..............................
........................................................................
   1    -83.7633055 -0.837633E+02  0.723E-03    1.77       0.0  T
   2    -83.7633067 -0.117716E-05  0.453E-03    1.76       3.4  T
   3    -83.7633068 -0.117482E-06  0.243E-03    1.76       6.4  T
   4    -83.7633068 -0.703760E-08  0.369E-04    1.76      41.8  T
   5    -83.7633068 -0.187146E-08  0.879E-05    1.76     175.6  T
   6    -83.7633068 -0.173742E-09  0.242E-05    1.76     636.8  T
     SCC iter.                  ...        0 min,  0.032 sec
     gradient                   ...        0 min,  0.059 sec
 * total energy  :   -82.9845540 Eh     change       -0.3403968E-03 Eh
   gradient norm :     0.0072128 Eh/α   predicted    -0.2657113E-03 ( -21.94%)
   displ. norm   :     0.3170778 α      lambda       -0.2729105E-03
   maximum displ.:     0.2009582 α      in ANC's #2, #7, #3, ...

........................................................................
.............................. CYCLE    9 ..............................
........................................................................
   1    -83.7651522 -0.837652E+02  0.660E-03    1.76       0.0  T
   2    -83.7651536 -0.137507E-05  0.360E-03    1.76       4.3  T
   3    -83.7651537 -0.125856E-06  0.196E-03    1.76       7.9  T
   4    -83.7651537 -0.287756E-08  0.386E-04    1.76      40.0  T
   5    -83.7651537 -0.180306E-08  0.825E-05    1.76     187.1  T
   6    -83.7651537 -0.141625E-09  0.178E-05    1.76     867.2  T
     SCC iter.                  ...        0 min,  0.032 sec
     gradient                   ...        0 min,  0.058 sec
 * total energy  :   -82.9847582 Eh     change       -0.2042933E-03 Eh
   gradient norm :     0.0053145 Eh/α   predicted    -0.1501765E-03 ( -26.49%)
   displ. norm   :     0.2466659 α      lambda       -0.1709573E-03
   maximum displ.:     0.1727929 α      in ANC's #2, #7, #3, ...

........................................................................
.............................. CYCLE   10 ..............................
........................................................................
   1    -83.7664307 -0.837664E+02  0.586E-03    1.77       0.0  T
   2    -83.7664320 -0.122248E-05  0.287E-03    1.77       5.4  T
   3    -83.7664321 -0.102461E-06  0.149E-03    1.77      10.3  T
   4    -83.7664321 -0.178127E-08  0.450E-04    1.77      34.3  T
   5    -83.7664321 -0.135461E-08  0.673E-05    1.77     229.3  T
   6    -83.7664321 -0.102702E-09  0.156E-05    1.77     992.1  T
     SCC iter.                  ...        0 min,  0.032 sec
     gradient                   ...        0 min,  0.055 sec
 * total energy  :   -82.9848925 Eh     change       -0.1342718E-03 Eh
   gradient norm :     0.0042559 Eh/α   predicted    -0.9068000E-04 ( -32.47%)
   displ. norm   :     0.2101170 α      lambda       -0.1324201E-03
   maximum displ.:     0.1574837 α      in ANC's #2, #3, #7, ...

........................................................................
.............................. CYCLE   11 ..............................
........................................................................
   1    -83.7668717 -0.837669E+02  0.483E-03    1.77       0.0  T
   2    -83.7668725 -0.791333E-06  0.248E-03    1.77       6.2  T
   3    -83.7668725 -0.624422E-07  0.132E-03    1.77      11.7  T
   4    -83.7668725 -0.112050E-08  0.395E-04    1.77      39.0  T
   5    -83.7668725 -0.109944E-08  0.519E-05    1.77     297.2  T
   6    -83.7668725 -0.606093E-10  0.150E-05    1.77    1025.5  T
     SCC iter.                  ...        0 min,  0.019 sec
     gradient                   ...        0 min,  0.035 sec
 * total energy  :   -82.9850012 Eh     change       -0.1086419E-03 Eh
   gradient norm :     0.0038912 Eh/α   predicted    -0.6913437E-04 ( -36.36%)
   displ. norm   :     0.1963978 α      lambda       -0.1206848E-03
   maximum displ.:     0.1499880 α      in ANC's #2, #3, #1, ...

........................................................................
.............................. CYCLE   12 ..............................
........................................................................
   1    -83.7669416 -0.837669E+02  0.388E-03    1.77       0.0  T
   2    -83.7669420 -0.421740E-06  0.220E-03    1.77       7.0  T
   3    -83.7669420 -0.274321E-07  0.123E-03    1.77      12.6  T
   4    -83.7669420 -0.142042E-08  0.278E-04    1.77      55.5  T
   5    -83.7669420 -0.838639E-09  0.455E-05    1.77     338.9  T
   6    -83.7669420 -0.407141E-10  0.130E-05    1.77    1190.5  T
     SCC iter.                  ...        0 min,  0.029 sec
     gradient                   ...        0 min,  0.055 sec
 * total energy  :   -82.9851009 Eh     change       -0.9975942E-04 Eh
   gradient norm :     0.0040331 Eh/α   predicted    -0.6267188E-04 ( -37.18%)
   displ. norm   :     0.1978641 α      lambda       -0.1102362E-03
   maximum displ.:     0.1481636 α      in ANC's #2, #3, #1, ...

........................................................................
.............................. CYCLE   13 ..............................
........................................................................
   1    -83.7663980 -0.837664E+02  0.344E-03    1.78       0.0  T
   2    -83.7663982 -0.188600E-06  0.190E-03    1.78       8.1  T
   3    -83.7663982 -0.851067E-08  0.919E-04    1.78      16.8  T
   4    -83.7663982 -0.247128E-08  0.174E-04    1.78      88.7  T
   5    -83.7663982 -0.473491E-09  0.415E-05    1.78     371.7  T
     SCC iter.                  ...        0 min,  0.025 sec
     gradient                   ...        0 min,  0.049 sec
 * total energy  :   -82.9851898 Eh     change       -0.8884317E-04 Eh
   gradient norm :     0.0038508 Eh/α   predicted    -0.5727778E-04 ( -35.53%)
   displ. norm   :     0.1817564 α      lambda       -0.8393927E-04
   maximum displ.:     0.1336060 α      in ANC's #2, #3, #1, ...

........................................................................
.............................. CYCLE   14 ..............................
........................................................................
   1    -83.7662232 -0.837662E+02  0.319E-03    1.78       0.0  T
   2    -83.7662234 -0.250505E-06  0.144E-03    1.78      10.7  T
   3    -83.7662234 -0.170420E-07  0.788E-04    1.78      19.6  T
   4    -83.7662234 -0.152676E-08  0.221E-04    1.78      69.7  T
   5    -83.7662234 -0.529710E-09  0.471E-05    1.78     327.7  T
   6    -83.7662234 -0.409557E-10  0.137E-05    1.78    1128.6  T
     SCC iter.                  ...        0 min,  0.019 sec
     gradient                   ...        0 min,  0.035 sec
 * total energy  :   -82.9852559 Eh     change       -0.6614078E-04 Eh
   gradient norm :     0.0032398 Eh/α   predicted    -0.4335752E-04 ( -34.45%)
   displ. norm   :     0.1531459 α      lambda       -0.5926088E-04
   maximum displ.:     0.1144242 α      in ANC's #2, #3, #1, ...

........................................................................
.............................. CYCLE   15 ..............................
........................................................................
   1    -83.7657693 -0.837658E+02  0.353E-03    1.78       0.0  T
   2    -83.7657697 -0.367178E-06  0.156E-03    1.78       9.9  T
   3    -83.7657697 -0.310897E-07  0.765E-04    1.78      20.2  T
   4    -83.7657697 -0.109530E-08  0.257E-04    1.78      60.2  T
   5    -83.7657697 -0.401911E-09  0.468E-05    1.78     329.7  T
   6    -83.7657697 -0.221547E-10  0.125E-05    1.78    1230.8  T
     SCC iter.                  ...        0 min,  0.020 sec
     gradient                   ...        0 min,  0.035 sec
 * total energy  :   -82.9853025 Eh     change       -0.4660798E-04 Eh
   gradient norm :     0.0025438 Eh/α   predicted    -0.3032799E-04 ( -34.93%)
   displ. norm   :     0.1428814 α      lambda       -0.5021794E-04
   maximum displ.:     0.1067610 α      in ANC's #2, #1, #3, ...

........................................................................
.............................. CYCLE   16 ..............................
........................................................................
   1    -83.7664194 -0.837664E+02  0.317E-03    1.78       0.0  T
   2    -83.7664197 -0.297711E-06  0.155E-03    1.78      10.0  T
   3    -83.7664197 -0.240620E-07  0.812E-04    1.78      19.0  T
   4    -83.7664197 -0.539046E-09  0.228E-04    1.78      67.7  T
   5    -83.7664197 -0.451024E-09  0.330E-05    1.78     468.1  T
   6    -83.7664197 -0.164988E-10  0.106E-05    1.78    1459.2  T
     SCC iter.                  ...        0 min,  0.019 sec
     gradient                   ...        0 min,  0.034 sec
 * total energy  :   -82.9853404 Eh     change       -0.3790617E-04 Eh
   gradient norm :     0.0022761 Eh/α   predicted    -0.2562302E-04 ( -32.40%)
   displ. norm   :     0.1491633 α      lambda       -0.4606936E-04
   maximum displ.:     0.1117571 α      in ANC's #2, #1, #3, ...

........................................................................
.............................. CYCLE   17 ..............................
........................................................................
   1    -83.7660971 -0.837661E+02  0.341E-03    1.78       0.0  T
   2    -83.7660974 -0.269163E-06  0.173E-03    1.78       8.9  T
   3    -83.7660974 -0.214902E-07  0.906E-04    1.78      17.0  T
   4    -83.7660974 -0.161225E-08  0.228E-04    1.78      67.7  T
   5    -83.7660974 -0.477939E-09  0.528E-05    1.78     292.3  T
   6    -83.7660974 -0.284501E-10  0.136E-05    1.78    1135.7  T
     SCC iter.                  ...        0 min,  0.019 sec
     gradient                   ...        0 min,  0.035 sec
 * total energy  :   -82.9853747 Eh     change       -0.3431581E-04 Eh
   gradient norm :     0.0027248 Eh/α   predicted    -0.2354992E-04 ( -31.37%)
   displ. norm   :     0.1526442 α      lambda       -0.4046538E-04
   maximum displ.:     0.1144477 α      in ANC's #2, #1, #3, ...

........................................................................
.............................. CYCLE   18 ..............................
........................................................................
   1    -83.7664044 -0.837664E+02  0.203E-03    1.78       0.0  T
   2    -83.7664045 -0.129398E-06  0.102E-03    1.77      15.1  T
   3    -83.7664045 -0.734374E-08  0.569E-04    1.77      27.1  T
   4    -83.7664045 -0.379686E-09  0.167E-04    1.77      92.7  T
   5    -83.7664045 -0.493330E-09  0.328E-05    1.77     470.7  T
     SCC iter.                  ...        0 min,  0.016 sec
     gradient                   ...        0 min,  0.035 sec
 * total energy  :   -82.9854067 Eh     change       -0.3199693E-04 Eh
   gradient norm :     0.0028188 Eh/α   predicted    -0.2070717E-04 ( -35.28%)
   displ. norm   :     0.1776403 α      lambda       -0.4048507E-04
   maximum displ.:     0.1322223 α      in ANC's #2, #1, #3, ...

........................................................................
.............................. CYCLE   19 ..............................
........................................................................
   1    -83.7665356 -0.837665E+02  0.228E-03    1.77       0.0  T
   2    -83.7665358 -0.165467E-06  0.113E-03    1.77      13.7  T
   3    -83.7665358 -0.168289E-07  0.555E-04    1.77      27.8  T
   4    -83.7665358 -0.649010E-09  0.192E-04    1.77      80.3  T
   5    -83.7665358 -0.263014E-09  0.357E-05    1.77     431.9  T
     SCC iter.                  ...        0 min,  0.016 sec
     gradient                   ...        0 min,  0.035 sec
 * total energy  :   -82.9854374 Eh     change       -0.3063352E-04 Eh
   gradient norm :     0.0021915 Eh/α   predicted    -0.2088283E-04 ( -31.83%)
   displ. norm   :     0.1591693 α      lambda       -0.2788876E-04
   maximum displ.:     0.1189888 α      in ANC's #2, #1, #3, ...

........................................................................
.............................. CYCLE   20 ..............................
........................................................................
   1    -83.7665324 -0.837665E+02  0.243E-03    1.77       0.0  T
   2    -83.7665326 -0.236138E-06  0.131E-03    1.77      11.8  T
   3    -83.7665326 -0.298266E-07  0.572E-04    1.77      27.0  T
   4    -83.7665326 -0.147523E-09  0.201E-04    1.77      76.8  T
   5    -83.7665326 -0.271768E-09  0.349E-05    1.77     442.1  T
   6    -83.7665326 -0.241300E-10  0.109E-05    1.77    1418.1  T
     SCC iter.                  ...        0 min,  0.019 sec
     gradient                   ...        0 min,  0.035 sec
 * total energy  :   -82.9854571 Eh     change       -0.1971901E-04 Eh
   gradient norm :     0.0014313 Eh/α   predicted    -0.1429909E-04 ( -27.49%)
   displ. norm   :     0.1503640 α      lambda       -0.1395259E-04
   maximum displ.:     0.1123924 α      in ANC's #2, #1, #12, ...
 * RMSD in coord.:     0.6000415 α      energy gain  -0.1920579E-01 Eh

generating ANC from model Hessian ...
Using Lindh-Hessian (1995)
 Shifting diagonal of input Hessian by   9.829526832967943E-003
 Lowest  eigenvalues of input Hessian
    0.000000    0.000000    0.000000    0.000000    0.000000    0.000000
    0.010000    0.010214    0.010548    0.010853    0.012197    0.012578
    0.013150    0.014146    0.014503    0.015853    0.016535    0.017270
 Highest eigenvalues
    2.030081    2.183958    2.259428    2.376116    2.406745    2.417331
 

........................................................................
.............................. CYCLE   21 ..............................
........................................................................
   1    -83.7668512 -0.837669E+02  0.264E-03    1.77       0.0  T
   2    -83.7668515 -0.289717E-06  0.159E-03    1.77       9.7  T
   3    -83.7668515 -0.383473E-07  0.744E-04    1.77      20.7  T
   4    -83.7668515 -0.665068E-10  0.188E-04    1.77      81.9  T
   5    -83.7668515 -0.280750E-09  0.317E-05    1.77     486.8  T
     SCC iter.                  ...        0 min,  0.016 sec
     gradient                   ...        0 min,  0.034 sec
 * total energy  :   -82.9854690 Eh     change       -0.1192372E-04 Eh
   gradient norm :     0.0016463 Eh/α   predicted     0.0000000E+00 (-100.00%)
   displ. norm   :     0.0251553 α      lambda       -0.3175678E-05
   maximum displ.:     0.0122560 α      in ANC's #6, #7, #5, ...

........................................................................
.............................. CYCLE   22 ..............................
........................................................................
   1    -83.7665840 -0.837666E+02  0.168E-03    1.77       0.0  T
   2    -83.7665841 -0.970345E-07  0.669E-04    1.77      23.1  T
   3    -83.7665841 -0.623285E-08  0.359E-04    1.77      43.0  T
   4    -83.7665841 -0.243631E-09  0.133E-04    1.77     116.1  T
   5    -83.7665841 -0.136822E-09  0.207E-05    1.77     746.4  T
     SCC iter.                  ...        0 min,  0.016 sec
     gradient                   ...        0 min,  0.034 sec
 * total energy  :   -82.9854763 Eh     change       -0.7254337E-05 Eh
   gradient norm :     0.0006182 Eh/α   predicted    -0.3090770E-05 ( -57.39%)
   displ. norm   :     0.0762846 α      lambda       -0.1121005E-04
   maximum displ.:     0.0359731 α      in ANC's #6, #5, #4, ...

........................................................................
.............................. CYCLE   23 ..............................
........................................................................
   1    -83.7664575 -0.837665E+02  0.279E-03    1.77       0.0  T
   2    -83.7664578 -0.272511E-06  0.107E-03    1.77      14.4  T
   3    -83.7664578 -0.297899E-07  0.427E-04    1.77      36.1  T
   4    -83.7664578 -0.659924E-09  0.190E-04    1.77      81.2  T
   5    -83.7664578 -0.161151E-09  0.407E-05    1.77     378.8  T
     SCC iter.                  ...        0 min,  0.016 sec
     gradient                   ...        0 min,  0.035 sec
 * total energy  :   -82.9854872 Eh     change       -0.1094077E-04 Eh
   gradient norm :     0.0012802 Eh/α   predicted    -0.5620482E-05 ( -48.63%)
   displ. norm   :     0.0664054 α      lambda       -0.5670709E-05
   maximum displ.:     0.0279028 α      in ANC's #6, #4, #2, ...

........................................................................
.............................. CYCLE   24 ..............................
........................................................................
   1    -83.7665255 -0.837665E+02  0.140E-03    1.77       0.0  T
   2    -83.7665256 -0.795978E-07  0.693E-04    1.77      22.3  T
   3    -83.7665256 -0.146583E-07  0.229E-04    1.77      67.4  T
   4    -83.7665256 -0.162331E-09  0.863E-05    1.77     178.8  T
   5    -83.7665256 -0.375451E-10  0.216E-05    1.77     715.0  T
     SCC iter.                  ...        0 min,  0.017 sec
     gradient                   ...        0 min,  0.035 sec
 * total energy  :   -82.9854934 Eh     change       -0.6167416E-05 Eh
   gradient norm :     0.0013979 Eh/α   predicted    -0.2859937E-05 ( -53.63%)
   displ. norm   :     0.1004377 α      lambda       -0.7734820E-05
   maximum displ.:     0.0441122 α      in ANC's #4, #2, #6, ...

........................................................................
.............................. CYCLE   25 ..............................
........................................................................
   1    -83.7666028 -0.837666E+02  0.144E-03    1.77       0.0  T
   2    -83.7666029 -0.100357E-06  0.905E-04    1.77      17.1  T
   3    -83.7666029 -0.187195E-07  0.378E-04    1.77      40.8  T
   4    -83.7666029 -0.312042E-09  0.118E-04    1.77     131.1  T
   5    -83.7666029 -0.719496E-10  0.325E-05    1.77     474.1  T
     SCC iter.                  ...        0 min,  0.016 sec
     gradient                   ...        0 min,  0.035 sec
 * total energy  :   -82.9855016 Eh     change       -0.8205610E-05 Eh
   gradient norm :     0.0010902 Eh/α   predicted    -0.3893601E-05 ( -52.55%)
   displ. norm   :     0.1202664 α      lambda       -0.8869169E-05
   maximum displ.:     0.0574988 α      in ANC's #4, #2, #5, ...

........................................................................
.............................. CYCLE   26 ..............................
........................................................................
   1    -83.7667370 -0.837667E+02  0.209E-03    1.77       0.0  T
   2    -83.7667372 -0.201211E-06  0.124E-03    1.77      12.5  T
   3    -83.7667373 -0.354833E-07  0.513E-04    1.77      30.1  T
   4    -83.7667373 -0.377071E-09  0.176E-04    1.77      87.5  T
   5    -83.7667373 -0.163723E-09  0.399E-05    1.77     386.7  T
     SCC iter.                  ...        0 min,  0.016 sec
     gradient                   ...        0 min,  0.035 sec
 * total energy  :   -82.9855118 Eh     change       -0.1018789E-04 Eh
   gradient norm :     0.0006297 Eh/α   predicted    -0.4468188E-05 ( -56.14%)
   displ. norm   :     0.1399375 α      lambda       -0.9865250E-05
   maximum displ.:     0.0696772 α      in ANC's #4, #2, #5, ...

........................................................................
.............................. CYCLE   27 ..............................
........................................................................
   1    -83.7667421 -0.837667E+02  0.229E-03    1.76       0.0  T
   2    -83.7667423 -0.211489E-06  0.121E-03    1.76      12.8  T
   3    -83.7667423 -0.296434E-07  0.524E-04    1.76      29.4  T
   4    -83.7667423 -0.647319E-09  0.201E-04    1.76      76.8  T
   5    -83.7667423 -0.229491E-09  0.462E-05    1.76     334.3  T
   6    -83.7667423 -0.207478E-10  0.157E-05    1.76     980.5  T
     SCC iter.                  ...        0 min,  0.019 sec
     gradient                   ...        0 min,  0.035 sec
 * total energy  :   -82.9855232 Eh     change       -0.1139045E-04 Eh
   gradient norm :     0.0011031 Eh/α   predicted    -0.4977737E-05 ( -56.30%)
   displ. norm   :     0.1532623 α      lambda       -0.9428464E-05
   maximum displ.:     0.0783414 α      in ANC's #2, #4, #3, ...

........................................................................
.............................. CYCLE   28 ..............................
........................................................................
   1    -83.7666224 -0.837666E+02  0.197E-03    1.76       0.0  T
   2    -83.7666226 -0.159853E-06  0.995E-04    1.76      15.5  T
   3    -83.7666226 -0.190110E-07  0.459E-04    1.76      33.6  T
   4    -83.7666226 -0.724711E-09  0.177E-04    1.76      87.2  T
   5    -83.7666226 -0.190468E-09  0.406E-05    1.76     379.8  T
     SCC iter.                  ...        0 min,  0.016 sec
     gradient                   ...        0 min,  0.035 sec
 * total energy  :   -82.9855333 Eh     change       -0.1011232E-04 Eh
   gradient norm :     0.0013218 Eh/α   predicted    -0.4766935E-05 ( -52.86%)
   displ. norm   :     0.1000567 α      lambda       -0.5791163E-05
   maximum displ.:     0.0556017 α      in ANC's #2, #4, #3, ...

........................................................................
.............................. CYCLE   29 ..............................
........................................................................
   1    -83.7667229 -0.837667E+02  0.123E-03    1.76       0.0  T
   2    -83.7667230 -0.454604E-07  0.517E-04    1.76      29.9  T
   3    -83.7667230 -0.173522E-08  0.285E-04    1.76      54.2  T
   4    -83.7667230 -0.138172E-09  0.831E-05    1.76     185.7  T
   5    -83.7667230 -0.969607E-10  0.222E-05    1.76     694.0  T
     SCC iter.                  ...        0 min,  0.016 sec
     gradient                   ...        0 min,  0.035 sec
 * total energy  :   -82.9855394 Eh     change       -0.6168800E-05 Eh
   gradient norm :     0.0009633 Eh/α   predicted    -0.2911057E-05 ( -52.81%)
   displ. norm   :     0.0906202 α      lambda       -0.4906095E-05
   maximum displ.:     0.0528377 α      in ANC's #2, #4, #15, ...

........................................................................
.............................. CYCLE   30 ..............................
........................................................................
   1    -83.7666881 -0.837667E+02  0.131E-03    1.76       0.0  T
   2    -83.7666882 -0.587633E-07  0.534E-04    1.76      28.9  T
   3    -83.7666882 -0.377210E-08  0.282E-04    1.76      54.7  T
   4    -83.7666882 -0.106837E-09  0.997E-05    1.76     154.7  T
   5    -83.7666882 -0.904805E-10  0.154E-05    1.76    1001.3  T
     SCC iter.                  ...        0 min,  0.016 sec
     gradient                   ...        0 min,  0.035 sec
 * total energy  :   -82.9855452 Eh     change       -0.5771439E-05 Eh
   gradient norm :     0.0005379 Eh/α   predicted    -0.2464855E-05 ( -57.29%)
   displ. norm   :     0.1296646 α      lambda       -0.6497641E-05
   maximum displ.:     0.0774261 α      in ANC's #2, #4, #15, ...

........................................................................
.............................. CYCLE   31 ..............................
........................................................................
   1    -83.7664371 -0.837664E+02  0.184E-03    1.76       0.0  T
   2    -83.7664372 -0.121515E-06  0.793E-04    1.76      19.5  T
   3    -83.7664373 -0.900245E-08  0.400E-04    1.76      38.6  T
   4    -83.7664373 -0.317641E-09  0.159E-04    1.76      96.9  T
   5    -83.7664373 -0.149953E-09  0.246E-05    1.76     626.9  T
     SCC iter.                  ...        0 min,  0.016 sec
     gradient                   ...        0 min,  0.035 sec
 * total energy  :   -82.9855527 Eh     change       -0.7519568E-05 Eh
   gradient norm :     0.0010985 Eh/α   predicted    -0.3277904E-05 ( -56.41%)
   displ. norm   :     0.1511988 α      lambda       -0.7102694E-05
   maximum displ.:     0.0927912 α      in ANC's #2, #4, #15, ...

........................................................................
.............................. CYCLE   32 ..............................
........................................................................
   1    -83.7664725 -0.837665E+02  0.145E-03    1.75       0.0  T
   2    -83.7664725 -0.646741E-07  0.720E-04    1.75      21.4  T
   3    -83.7664725 -0.568387E-08  0.367E-04    1.75      42.0  T
   4    -83.7664725 -0.287400E-09  0.122E-04    1.75     126.1  T
   5    -83.7664725 -0.125112E-09  0.230E-05    1.75     671.9  T
     SCC iter.                  ...        0 min,  0.016 sec
     gradient                   ...        0 min,  0.035 sec
 * total energy  :   -82.9855609 Eh     change       -0.8133910E-05 Eh
   gradient norm :     0.0014632 Eh/α   predicted    -0.3591214E-05 ( -55.85%)
   displ. norm   :     0.1480090 α      lambda       -0.6197417E-05
   maximum displ.:     0.0919150 α      in ANC's #2, #4, #6, ...

........................................................................
.............................. CYCLE   33 ..............................
........................................................................
   1    -83.7661411 -0.837661E+02  0.149E-03    1.75       0.0  T
   2    -83.7661412 -0.113321E-06  0.884E-04    1.75      17.5  T
   3    -83.7661413 -0.155397E-07  0.399E-04    1.75      38.7  T
   4    -83.7661413 -0.307438E-09  0.154E-04    1.75     100.0  T
   5    -83.7661413 -0.549250E-10  0.264E-05    1.75     584.6  T
     SCC iter.                  ...        0 min,  0.016 sec
     gradient                   ...        0 min,  0.035 sec
 * total energy  :   -82.9855678 Eh     change       -0.6935986E-05 Eh
   gradient norm :     0.0014194 Eh/α   predicted    -0.3131470E-05 ( -54.85%)
   displ. norm   :     0.1245933 α      lambda       -0.6049703E-05
   maximum displ.:     0.0809997 α      in ANC's #2, #4, #6, ...

........................................................................
.............................. CYCLE   34 ..............................
........................................................................
   1    -83.7667303 -0.837667E+02  0.170E-03    1.75       0.0  T
   2    -83.7667304 -0.660249E-07  0.847E-04    1.75      18.2  T
   3    -83.7667304 -0.502978E-08  0.448E-04    1.75      34.4  T
   4    -83.7667304 -0.517204E-09  0.118E-04    1.75     130.2  T
   5    -83.7667304 -0.998313E-10  0.220E-05    1.75     702.4  T
     SCC iter.                  ...        0 min,  0.016 sec
     gradient                   ...        0 min,  0.035 sec
 * total energy  :   -82.9855735 Eh     change       -0.5733587E-05 Eh
   gradient norm :     0.0006594 Eh/α   predicted    -0.3050200E-05 ( -46.80%)
   displ. norm   :     0.1585725 α      lambda       -0.4609115E-05
   maximum displ.:     0.0972454 α      in ANC's #2, #4, #6, ...

........................................................................
.............................. CYCLE   35 ..............................
........................................................................
   1    -83.7657863 -0.837658E+02  0.270E-03    1.75       0.0  T
   2    -83.7657867 -0.379916E-06  0.151E-03    1.75      10.2  T
   3    -83.7657867 -0.569007E-07  0.647E-04    1.75      23.9  T
   4    -83.7657867 -0.652562E-09  0.260E-04    1.75      59.4  T
   5    -83.7657867 -0.216701E-09  0.488E-05    1.75     316.2  T
   6    -83.7657867 -0.521965E-10  0.164E-05    1.75     938.1  T
     SCC iter.                  ...        0 min,  0.019 sec
     gradient                   ...        0 min,  0.035 sec
 * total energy  :   -82.9855767 Eh     change       -0.3185029E-05 Eh
   gradient norm :     0.0016330 Eh/α   predicted    -0.2334521E-05 ( -26.70%)
   displ. norm   :     0.0386703 α      lambda       -0.3791622E-05
   maximum displ.:     0.0239234 α      in ANC's #2, #4, #1, ...

........................................................................
.............................. CYCLE   36 ..............................
........................................................................
   1    -83.7663981 -0.837664E+02  0.133E-03    1.75       0.0  T
   2    -83.7663981 -0.269115E-07  0.698E-04    1.75      22.1  T
   3    -83.7663981 -0.177941E-08  0.373E-04    1.75      41.3  T
   4    -83.7663981 -0.647944E-09  0.571E-05    1.75     270.3  T
   5    -83.7663981 -0.318607E-10  0.151E-05    1.75    1022.3  T
     SCC iter.                  ...        0 min,  0.016 sec
     gradient                   ...        0 min,  0.035 sec
 * total energy  :   -82.9855811 Eh     change       -0.4356940E-05 Eh
   gradient norm :     0.0011114 Eh/α   predicted    -0.1901714E-05 ( -56.35%)
   displ. norm   :     0.1372773 α      lambda       -0.6491533E-05
   maximum displ.:     0.0836490 α      in ANC's #2, #4, #1, ...

........................................................................
.............................. CYCLE   37 ..............................
........................................................................
   1    -83.7667755 -0.837668E+02  0.171E-03    1.75       0.0  T
   2    -83.7667756 -0.802503E-07  0.902E-04    1.75      17.1  T
   3    -83.7667756 -0.714157E-08  0.472E-04    1.75      32.7  T
   4    -83.7667756 -0.920693E-09  0.126E-04    1.75     122.2  T
   5    -83.7667756 -0.178289E-09  0.291E-05    1.75     531.0  T
     SCC iter.                  ...        0 min,  0.016 sec
     gradient                   ...        0 min,  0.035 sec
 * total energy  :   -82.9855881 Eh     change       -0.7071544E-05 Eh
   gradient norm :     0.0011458 Eh/α   predicted    -0.3276000E-05 ( -53.67%)
   displ. norm   :     0.1907191 α      lambda       -0.6019665E-05
   maximum displ.:     0.1125322 α      in ANC's #2, #4, #6, ...

........................................................................
.............................. CYCLE   38 ..............................
........................................................................
   1    -83.7664334 -0.837664E+02  0.206E-03    1.75       0.0  T
   2    -83.7664337 -0.279889E-06  0.126E-03    1.75      12.3  T
   3    -83.7664337 -0.401608E-07  0.543E-04    1.75      28.4  T
   4    -83.7664337 -0.775515E-09  0.230E-04    1.75      67.0  T
   5    -83.7664337 -0.259661E-09  0.471E-05    1.75     327.6  T
   6    -83.7664337 -0.231068E-10  0.166E-05    1.75     928.2  T
     SCC iter.                  ...        0 min,  0.019 sec
     gradient                   ...        0 min,  0.035 sec
 * total energy  :   -82.9855931 Eh     change       -0.4960881E-05 Eh
   gradient norm :     0.0012482 Eh/α   predicted    -0.3061404E-05 ( -38.29%)
   displ. norm   :     0.0357768 α      lambda       -0.3181893E-05
   maximum displ.:     0.0213116 α      in ANC's #1, #3, #7, ...

........................................................................
.............................. CYCLE   39 ..............................
........................................................................
   1    -83.7672228 -0.837672E+02  0.240E-03    1.75       0.0  T
   2    -83.7672230 -0.214871E-06  0.102E-03    1.75      15.1  T
   3    -83.7672231 -0.249735E-07  0.456E-04    1.75      33.9  T
   4    -83.7672231 -0.277780E-09  0.165E-04    1.75      93.4  T
   5    -83.7672231 -0.108884E-09  0.289E-05    1.75     534.8  T
     SCC iter.                  ...        0 min,  0.016 sec
     gradient                   ...        0 min,  0.035 sec
 * total energy  :   -82.9855953 Eh     change       -0.2165151E-05 Eh
   gradient norm :     0.0007561 Eh/α   predicted    -0.1594028E-05 ( -26.38%)
   displ. norm   :     0.0450021 α      lambda       -0.1817387E-05
   maximum displ.:     0.0294602 α      in ANC's #4, #2, #1, ...

   *** GEOMETRY OPTIMIZATION CONVERGED AFTER 39 ITERATIONS ***

------------------------------------------------------------------------
 total energy gain   :        -0.0193440 Eh      -12.1385 kcal/mol
 total RMSD          :         0.7098406 a0        0.3756 Å
 total power (kW/mol):        -1.3022464 (step)  -15.0373 (real)
------------------------------------------------------------------------

 ANCopt (total)                0 d,  0 h,  0 min,  3.377 sec
 optimizer setup                ...        0 min,  0.001 sec (  0.021%)
 model hessian                  ...        0 min,  0.051 sec (  1.505%)
 ANC generation                 ...        0 min,  0.004 sec (  0.122%)
 coordinate transformation      ...        0 min,  0.001 sec (  0.023%)
 single point calculation       ...        0 min,  3.309 sec ( 97.984%)
 optimization log               ...        0 min,  0.006 sec (  0.185%)
 hessian update                 ...        0 min,  0.001 sec (  0.022%)
 rational function              ...        0 min,  0.003 sec (  0.089%)

================
 final structure:
================
42
 xtb: 6.5.1 (579679a)
C           -3.69225135739842        3.43122833270262       -1.41636076875375
O           -3.50799900205017        2.12270317645774       -0.85952470930443
C           -2.33884535134757        1.87497943952798       -0.29994859348138
O           -1.42926663677763        2.66160963438102       -0.23130336039889
C           -2.24226538655980        0.45836538506584        0.23577503441038
C           -3.45868569556655       -0.31991688422749        0.60289945773207
O           -4.52995138465442        0.17765075749962        0.83687710936008
C           -3.22853318572826       -1.82969738670788        0.70891289316356
O           -4.13874344471949       -2.63323799950748        0.70326267977498
N           -1.93157633526738       -2.19250440245890        0.79257376523273
C           -0.78505416740202       -1.30895658074177        0.86649933402650
C           -0.36787974907090       -1.14808589771817        2.33692971479560
C            0.36306824353365       -1.87287431303847       -0.03513503538554
C            0.93715630976829       -3.18090780753485        0.51115528036890
C           -0.16245731912683       -2.05938715706518       -1.46359831202985
N            1.39812418931987       -0.83987618907015       -0.02773985767052
C            2.56826883677687       -0.94315665014786       -0.69001783281858
O            2.95775929829675       -1.92526679551858       -1.29968970380992
C            3.38156718305130        0.29573966517613       -0.58728274681083
N            4.53843629107902        0.53230810531969       -1.12259926812617
N            4.89225098843524        1.79562348518734       -0.75388316835580
C            3.92958657885888        2.25299341181520       -0.01529965759046
C            3.84007221319486        3.57865108133593        0.63433424438997
O            2.94144743565548        1.35440104330285        0.12817890640360
N           -1.05988125525079        0.00281489661285        0.37585370075303
H           -2.98287710665062        3.58890320448763       -2.23113174648748
H           -4.71388380920523        3.46855247358403       -1.78776116575946
H           -3.53465940737632        4.18823950019469       -0.64572331893813
H           -1.76358014411245       -3.16890141062467        0.98274844318651
H           -0.20885504457157       -2.12656311689547        2.78235141581266
H            0.54655157354272       -0.56351514243402        2.40382576714634
H           -1.16234264040676       -0.63671957210384        2.87720522374151
H            1.65738167051262       -3.58560116270593       -0.19847507306895
H            1.44272516604138       -3.01357686463342        1.46006437022233
H            0.14539943345285       -3.91328815510112        0.65194667335125
H            0.64484813041877       -2.40195352243179       -2.10897117528846
H           -0.95885171638075       -2.80100740300284       -1.47077083749281
H           -0.54996786099454       -1.11570454274545       -1.84477127987824
H            1.12791457814078        0.06839262505054        0.32274054608997
H            2.97650872403849        4.12359958488145        0.25388260868212
H            3.71406427341344        3.45772342739743        1.70959089658951
H            4.74527788306880        4.14621672644030        0.43315854619892
 
 Bond Distances (Angstroems)
 ---------------------------
C1-O2=1.4340         C1-H26=1.0918        C1-H27=1.0877        C1-H28=1.0917        O2-C1=1.4340         O2-C3=1.3196         
C3-O2=1.3196         C3-O4=1.2045         C3-C5=1.5176         O4-C3=1.2045         C5-C3=1.5176         C5-C6=1.4900         
C5-N25=1.2748        C6-C5=1.4900         C6-O7=1.2041         C6-C8=1.5309         O7-C6=1.2041         C8-C6=1.5309         
C8-O9=1.2142         C8-N10=1.3493        O9-C8=1.2142         N10-C8=1.3493        N10-C11=1.4494       N10-H29=1.0088       
C11-N10=1.4494       C11-C12=1.5369       C11-C13=1.5650       C11-N25=1.4272       C12-C11=1.5369       C12-H30=1.0868       
C12-H31=1.0874       C12-H32=1.0884       C13-C11=1.5650       C13-C14=1.5294       C13-C15=1.5335       C13-N16=1.4624       
C14-C13=1.5294       C14-H33=1.0891       C14-H34=1.0881       C14-H35=1.0877       C15-C13=1.5335       C15-H36=1.0889       
C15-H37=1.0883       C15-H38=1.0890       N16-C13=1.4624       N16-C17=1.3485       N16-H39=1.0103       C17-N16=1.3485       
C17-O18=1.2198       C17-C19=1.4856       O18-C17=1.2198       C19-C17=1.4856       C19-N20=1.2965       C19-O24=1.3514       
N20-C19=1.2965       N20-N21=1.3628       N21-N20=1.3628       N21-C22=1.2967       C22-N21=1.2967       C22-C23=1.4790       
C22-O24=1.3433       C23-C22=1.4790       C23-H40=1.0897       C23-H41=1.0893       C23-H42=1.0872       O24-C19=1.3514       
O24-C22=1.3433       N25-C5=1.2748        N25-C11=1.4272       H26-C1=1.0918        H27-C1=1.0877        H28-C1=1.0917        
H29-N10=1.0088       H30-C12=1.0868       H31-C12=1.0874       H32-C12=1.0884       H33-C14=1.0891       H34-C14=1.0881       
H35-C14=1.0877       H36-C15=1.0889       H37-C15=1.0883       H38-C15=1.0890       H39-N16=1.0103       H40-C23=1.0897       
H41-C23=1.0893       H42-C23=1.0872       
 C  H  Rav=1.0887 sigma=0.0014  Rmin=1.0868  Rmax=1.0918    15
 C  C  Rav=1.5186 sigma=0.0268  Rmin=1.4790  Rmax=1.5650     9
 N  H  Rav=1.0096 sigma=0.0008  Rmin=1.0088  Rmax=1.0103     2
 N  C  Rav=1.3631 sigma=0.0693  Rmin=1.2748  Rmax=1.4624     8
 N  N  Rav=1.3628 sigma=0.0000  Rmin=1.3628  Rmax=1.3628     1
 O  C  Rav=1.2864 sigma=0.0818  Rmin=1.2041  Rmax=1.4340     8
 
 selected bond angles (degree)
 --------------------
H26-C1-O2=109.76               H27-C1-O2=106.53               H27-C1-H26=110.52              H28-C1-O2=109.88               
H28-C1-H26=109.44              H28-C1-H27=110.66              C3-O2-C1=116.73                O4-C3-O2=124.79                
C5-C3-O2=112.41                C5-C3-O4=122.78                C6-C5-C3=121.51                N25-C5-C3=115.55               
N25-C5-C6=122.92               O7-C6-C5=123.94                C8-C6-C5=114.17                C8-C6-O7=121.86                
O9-C8-C6=122.66                N10-C8-C6=114.45               N10-C8-O9=122.88               C11-N10-C8=126.84              
H29-N10-C8=115.59              H29-N10-C11=116.66             
 
 selected dihedral angles (degree)
 ---------------------------------
C3-O2-C1-H26= 62.80           C3-O2-C1-H27=182.48           C3-O2-C1-H28=302.40           O4-C3-O2-C1=359.74            
C5-C3-O2-C1=180.93            C6-C5-C3-O2=336.00            C6-C5-C3-O4=157.16            N25-C5-C3-O2=157.57           
N25-C5-C3-O4=338.73           O7-C6-C5-C3=340.21            O7-C6-C5-N25=158.52           C8-C6-C5-C3=162.20            
C8-C6-C5-N25=340.51           O9-C8-C6-C5=196.73            O9-C8-C6-O7= 18.68            N10-C8-C6-C5= 15.96           
N10-C8-C6-O7=197.91           C11-N10-C8-C6=  3.74          C11-N10-C8-O9=182.98          H29-N10-C8-C6=172.40          
H29-N10-C8-O9=351.63          
           -------------------------------------------------
          |                Final Singlepoint                |
           -------------------------------------------------

          ...................................................
          :                      SETUP                      :
          :.................................................:
          :  # basis functions                 134          :
          :  # atomic orbitals                 134          :
          :  # shells                           84          :
          :  # electrons                       134          :
          :  # halogen bonds                     0          :
          :  max. iterations                   250          :
          :  Hamiltonian                  GFN1-xTB          :
          :  restarted?                      false          :
          :  GBSA solvation                   true          :
          :  PC potential                    false          :
          :  electronic temp.          300.0000000     K    :
          :  accuracy                    1.0000000          :
          :  -> integral cutoff          0.2500000E+02      :
          :  -> integral neglect         0.1000000E-07      :
          :  -> SCF convergence          0.1000000E-05 Eh   :
          :  -> wf. convergence          0.2000000E-04 e    :
          :  Broyden damping             0.4000000          :
          ...................................................

 iter      E             dE          RMSdq      gap      omega  full diag
   1    -83.7672231 -0.837672E+02  0.959E-06    1.75       0.0  T
   2    -83.7672231 -0.144951E-11  0.444E-06    1.75    3473.4  T
   3    -83.7672231 -0.483169E-12  0.231E-06    1.75    6675.7  T

   *** convergence criteria satisfied after 3 iterations ***

         #    Occupation            Energy/Eh            Energy/eV
      -------------------------------------------------------------
         1        2.0000           -0.8660484             -23.5664
       ...           ...                  ...                  ...
        61        2.0000           -0.4808253             -13.0839
        62        2.0000           -0.4700013             -12.7894
        63        2.0000           -0.4641246             -12.6295
        64        2.0000           -0.4600904             -12.5197
        65        2.0000           -0.4524960             -12.3130
        66        2.0000           -0.4483738             -12.2009
        67        2.0000           -0.4382903             -11.9265 (HOMO)
        68                         -0.3740943             -10.1796 (LUMO)
        69                         -0.3190484              -8.6818
        70                         -0.3114631              -8.4753
        71                         -0.2574390              -7.0053
        72                         -0.2505842              -6.8187
       ...                                ...                  ...
       134                          0.7686128              20.9150
      -------------------------------------------------------------
                  HL-Gap            0.0641960 Eh            1.7469 eV
             Fermi-level           -0.4061923 Eh          -11.0531 eV

 SCC (total)                   0 d,  0 h,  0 min,  0.063 sec
 SCC setup                      ...        0 min,  0.001 sec (  1.786%)
 Dispersion                     ...        0 min,  0.000 sec (  0.244%)
 classical contributions        ...        0 min,  0.000 sec (  0.106%)
 integral evaluation            ...        0 min,  0.016 sec ( 25.472%)
 iterations                     ...        0 min,  0.010 sec ( 15.652%)
 molecular gradient             ...        0 min,  0.035 sec ( 55.543%)
 printout                       ...        0 min,  0.001 sec (  1.165%)

         :::::::::::::::::::::::::::::::::::::::::::::::::::::
         ::                     SUMMARY                     ::
         :::::::::::::::::::::::::::::::::::::::::::::::::::::
         :: total energy             -82.985595270501 Eh    ::
         :: total w/o Gsasa/hb       -82.966237397588 Eh    ::
         :: gradient norm              0.000757139453 Eh/a0 ::
         :: HOMO-LUMO gap              1.746861631377 eV    ::
         ::.................................................::
         :: SCC energy               -83.767223058625 Eh    ::
         :: -> electrostatic           0.359894550118 Eh    ::
         :: -> Gsolv                  -0.056769924172 Eh    ::
         ::    -> Gelec               -0.037412051259 Eh    ::
         ::    -> Gsasa               -0.023474217555 Eh    ::
         ::    -> Ghb                 -0.003507934363 Eh    ::
         ::    -> Gshift               0.007624279005 Eh    ::
         :: repulsion energy           0.809085317216 Eh    ::
         :: dispersion energy         -0.027457529092 Eh    ::
         :: halogen bond corr.         0.000000000000 Eh    ::
         :: add. restraining           0.000000000000 Eh    ::
         :: total charge               0.000000000000 e     ::
         :::::::::::::::::::::::::::::::::::::::::::::::::::::

           -------------------------------------------------
          |                Property Printout                |
           -------------------------------------------------

    * Orbital Energies and Occupations

         #    Occupation            Energy/Eh            Energy/eV
      -------------------------------------------------------------
         1        2.0000           -0.8660484             -23.5664
       ...           ...                  ...                  ...
        55        2.0000           -0.5059160             -13.7667
        56        2.0000           -0.5058093             -13.7638
        57        2.0000           -0.5045994             -13.7308
        58        2.0000           -0.5009791             -13.6323
        59        2.0000           -0.4954123             -13.4809
        60        2.0000           -0.4813308             -13.0977
        61        2.0000           -0.4808253             -13.0839
        62        2.0000           -0.4700013             -12.7894
        63        2.0000           -0.4641246             -12.6295
        64        2.0000           -0.4600904             -12.5197
        65        2.0000           -0.4524960             -12.3130
        66        2.0000           -0.4483738             -12.2009
        67        2.0000           -0.4382903             -11.9265 (HOMO)
        68                         -0.3740943             -10.1796 (LUMO)
        69                         -0.3190484              -8.6818
        70                         -0.3114631              -8.4753
        71                         -0.2574390              -7.0053
        72                         -0.2505842              -6.8187
        73                         -0.2018378              -5.4923
        74                         -0.1994380              -5.4270
        75                         -0.1429739              -3.8905
        76                         -0.1425655              -3.8794
        77                         -0.1415647              -3.8522
        78                         -0.1372873              -3.7358
       ...                                ...                  ...
       134                          0.7686128              20.9150
      -------------------------------------------------------------
                  HL-Gap            0.0641960 Eh            1.7469 eV
             Fermi-level           -0.4061923 Eh          -11.0531 eV

  Mulliken/CM5 charges         n(s)   n(p)   n(d)
     1C     0.16105  0.03988   0.984  2.855  0.000
     2O    -0.39790 -0.48230   1.683  4.715  0.000
     3C     0.58708  0.65597   0.964  2.449  0.000
     4O    -0.53796 -0.58239   1.721  4.817  0.000
     5C     0.12941  0.22489   1.077  2.794  0.000
     6C     0.36704  0.41629   1.068  2.565  0.000
     7O    -0.46380 -0.50525   1.729  4.735  0.000
     8C     0.45953  0.56687   0.991  2.550  0.000
     9O    -0.54958 -0.58851   1.724  4.825  0.000
    10N    -0.34514 -0.69864   1.437  3.908  0.000
    11C     0.24738  0.35135   1.050  2.703  0.000
    12C    -0.09980 -0.23438   1.026  3.073  0.000
    13C     0.15686  0.19668   1.075  2.769  0.000
    14C    -0.11335 -0.25443   1.021  3.093  0.000
    15C    -0.10887 -0.24662   1.020  3.089  0.000
    16N    -0.33966 -0.69584   1.432  3.908  0.000
    17C     0.46996  0.57859   0.976  2.554  0.000
    18O    -0.57641 -0.62172   1.726  4.850  0.000
    19C     0.33030  0.45613   1.008  2.661  0.000
    20N    -0.22259 -0.32652   1.566  3.657  0.000
    21N    -0.26873 -0.37649   1.564  3.705  0.000
    22C     0.39194  0.50058   1.007  2.601  0.000
    23C    -0.11044 -0.24791   1.012  3.099  0.000
    24O    -0.35713 -0.41426   1.697  4.661  0.000
    25N    -0.27790 -0.47676   1.550  3.728  0.000
    26H     0.05881  0.12028   0.941  0.000  0.000
    27H     0.06213  0.12248   0.938  0.000  0.000
    28H     0.06076  0.12269   0.939  0.000  0.000
    29H     0.28048  0.48135   0.720  0.000  0.000
    30H     0.06539  0.12277   0.935  0.000  0.000
    31H     0.06770  0.12791   0.932  0.000  0.000
    32H     0.06463  0.12385   0.935  0.000  0.000
    33H     0.07091  0.13151   0.929  0.000  0.000
    34H     0.05133  0.10869   0.949  0.000  0.000
    35H     0.04756  0.10416   0.952  0.000  0.000
    36H     0.06391  0.12369   0.936  0.000  0.000
    37H     0.04695  0.10560   0.953  0.000  0.000
    38H     0.04470  0.10601   0.955  0.000  0.000
    39H     0.25528  0.47070   0.745  0.000  0.000
    40H     0.07963  0.13410   0.920  0.000  0.000
    41H     0.07923  0.13385   0.921  0.000  0.000
    42H     0.06933  0.12517   0.931  0.000  0.000

Wiberg/Mayer (AO) data.
largest (>0.10) Wiberg bond orders for each atom

 ---------------------------------------------------------------------------
     #   Z sym  total        # sym  WBO       # sym  WBO       # sym  WBO
 ---------------------------------------------------------------------------
     1   6 C    3.859 --    27 H    0.985    28 H    0.979    26 H    0.979
                             2 O    0.884
     2   8 O    2.226 --     3 C    1.148     1 C    0.884     4 O    0.147
     3   6 C    3.854 --     4 O    1.685     2 O    1.148     5 C    0.944
     4   8 O    1.949 --     3 C    1.685     2 O    0.147
     5   6 C    3.952 --    25 N    1.786     6 C    0.996     3 C    0.944
     6   6 C    3.857 --     7 O    1.802     5 C    0.996     8 C    0.908
     7   8 O    2.009 --     6 C    1.802
     8   6 C    3.903 --     9 O    1.634    10 N    1.247     6 C    0.908
     9   8 O    1.927 --     8 C    1.634    10 N    0.185
    10   7 N    3.365 --     8 C    1.247    11 C    0.940    29 H    0.883
                             9 O    0.185
    11   6 C    3.913 --    25 N    1.005    12 C    0.947    10 N    0.940
                            13 C    0.924
    12   6 C    3.982 --    32 H    0.982    31 H    0.981    30 H    0.980
                            11 C    0.947
    13   6 C    3.928 --    14 C    0.999    15 C    0.991    16 N    0.934
                            11 C    0.924
    14   6 C    3.988 --    13 C    0.999    34 H    0.982    35 H    0.981
                            33 H    0.974
    15   6 C    3.989 --    13 C    0.991    37 H    0.984    38 H    0.984
                            36 H    0.980
    16   7 N    3.350 --    17 C    1.256    13 C    0.934    39 H    0.886
                            18 O    0.176
    17   6 C    3.917 --    18 O    1.586    16 N    1.256    19 C    0.991
    18   8 O    1.903 --    17 C    1.586    16 N    0.176
    19   6 C    3.872 --    20 N    1.623    24 O    1.047    17 C    0.991
    20   7 N    2.999 --    19 C    1.623    21 N    1.198
    21   7 N    2.981 --    22 C    1.611    20 N    1.198
    22   6 C    3.869 --    21 N    1.611    24 O    1.073    23 C    1.032
    23   6 C    3.986 --    22 C    1.032    42 H    0.982    41 H    0.964
                            40 H    0.962
    24   8 O    2.317 --    22 C    1.073    19 C    1.047
    25   7 N    3.062 --     5 C    1.786    11 C    1.005
    26   1 H    1.004 --     1 C    0.979
    27   1 H    1.008 --     1 C    0.985
    28   1 H    1.004 --     1 C    0.979
    29   1 H    0.929 --    10 N    0.883
    30   1 H    0.999 --    12 C    0.980
    31   1 H    0.998 --    12 C    0.981
    32   1 H    0.999 --    12 C    0.982
    33   1 H    1.008 --    14 C    0.974
    34   1 H    1.001 --    14 C    0.982
    35   1 H    0.998 --    14 C    0.981
    36   1 H    1.006 --    15 C    0.980
    37   1 H    1.003 --    15 C    0.984
    38   1 H    1.004 --    15 C    0.984
    39   1 H    0.956 --    16 N    0.886
    40   1 H    0.997 --    23 C    0.962
    41   1 H    0.997 --    23 C    0.964
    42   1 H    0.998 --    23 C    0.982
 ---------------------------------------------------------------------------

Topologies differ in total number of bonds
Writing topology from bond orders to xtbtopo.mol

 dipole moment from electron density (au)
     X       Y       Z   
  -0.1804   1.4085   1.9186  total (Debye):    6.067

           -------------------------------------------------
          |                Geometry Summary                 |
           -------------------------------------------------

      molecular mass/u    :      351.3152409
   center of mass at/Å    :       -0.0782258       0.0249038      -0.0044437
  moments of inertia/u·Å² :        0.1609173E+04   0.3407545E+04   0.4503930E+04
rotational constants/cm⁻¹ :        0.1047596E-01   0.4947148E-02   0.3742872E-02

 * 37 selected distances

     #   Z          #   Z                                           value/Å
     1   6 C        2   8 O                                       1.4339644
     2   8 O        3   6 C                                       1.3196261
     3   6 C        4   8 O                                       1.2045053
     6   6 C        7   8 O                                       1.2041302
     8   6 C        9   8 O                                       1.2141633
     8   6 C       10   7 N                                       1.3493426
    10   7 N       11   6 C                                       1.4493568
    11   6 C       12   6 C                                       1.5369059 (max)
    13   6 C       14   6 C                                       1.5293666
    13   6 C       15   6 C                                       1.5334510
    13   6 C       16   7 N                                       1.4623546
    16   7 N       17   6 C                                       1.3485243
    17   6 C       18   8 O                                       1.2198128
    19   6 C       20   7 N                                       1.2964856
    21   7 N       22   6 C                                       1.2966942
    22   6 C       23   6 C                                       1.4789881
    19   6 C       24   8 O                                       1.3514270
    22   6 C       24   8 O                                       1.3433070
     5   6 C       25   7 N                                       1.2748258
    11   6 C       25   7 N                                       1.4272378
     1   6 C       26   1 H                                       1.0917533
     1   6 C       27   1 H                                       1.0876877
     1   6 C       28   1 H                                       1.0916883
    10   7 N       29   1 H                                       1.0088312 (min)
    12   6 C       30   1 H                                       1.0867876
    12   6 C       31   1 H                                       1.0873743
    12   6 C       32   1 H                                       1.0883771
    14   6 C       33   1 H                                       1.0890715
    14   6 C       34   1 H                                       1.0881306
    14   6 C       35   1 H                                       1.0876959
    15   6 C       36   1 H                                       1.0888527
    15   6 C       37   1 H                                       1.0882538
    15   6 C       38   1 H                                       1.0890337
    16   7 N       39   1 H                                       1.0103476
    23   6 C       40   1 H                                       1.0897038
    23   6 C       41   1 H                                       1.0893478
    23   6 C       42   1 H                                       1.0871982

 * 5 distinct bonds (by element types)

   Z      Z             #   av. dist./Å        max./Å        min./Å
   1 H    6 C          15     1.0887304     1.0917533     1.0867876
   6 C    6 C           4     1.5196779     1.5369059     1.4789881
   1 H    7 N           2     1.0095894     1.0103476     1.0088312
   6 C    7 N           8     1.3631027     1.4623546     1.2748258
   6 C    8 O           8     1.2863670     1.4339644     1.2041302


optimized geometry written to: xtbopt.xyz


           -------------------------------------------------
          | TOTAL ENERGY              -82.985595270501 Eh   |
          | GRADIENT NORM               0.000757139453 Eh/α |
          | HOMO-LUMO GAP               1.746861631377 eV   |
           -------------------------------------------------

------------------------------------------------------------------------
 * finished run on 2023/06/21 at 17:25:40.182     
------------------------------------------------------------------------
 total:
 * wall-time:     0 d,  0 h,  0 min,  3.708 sec
 *  cpu-time:     0 d,  0 h,  0 min,  3.614 sec
 * ratio c/w:     0.974 speedup
 SCF:
 * wall-time:     0 d,  0 h,  0 min,  0.144 sec
 *  cpu-time:     0 d,  0 h,  0 min,  0.144 sec
 * ratio c/w:     1.000 speedup
 ANC optimizer:
 * wall-time:     0 d,  0 h,  0 min,  3.446 sec
 *  cpu-time:     0 d,  0 h,  0 min,  3.441 sec
 * ratio c/w:     0.998 speedup

