      -----------------------------------------------------------      
     |                   =====================                   |     
     |                           x T B                           |     
     |                   =====================                   |     
     |                         S. Grimme                         |     
     |          Mulliken Center for Theoretical Chemistry        |     
     |                    University of Bonn                     |     
      -----------------------------------------------------------      

   * xtb version 6.5.1 (579679a) compiled by 'ehlert@majestix' on 2022-07-11

   xtb is free software: you can redistribute it and/or modify it under
   the terms of the GNU Lesser General Public License as published by
   the Free Software Foundation, either version 3 of the License, or
   (at your option) any later version.
   
   xtb is distributed in the hope that it will be useful,
   but WITHOUT ANY WARRANTY; without even the implied warranty of
   MERCHANTABILITY or FITNESS FOR A PARTICULAR PURPOSE.  See the
   GNU Lesser General Public License for more details.
   
   Cite this work as:
   * C. Bannwarth, E. Caldeweyher, S. Ehlert, A. Hansen, P. Pracht,
     J. Seibert, S. Spicher, S. Grimme, WIREs Comput. Mol. Sci., 2020, 11,
     e01493. DOI: 10.1002/wcms.1493
   
   for GFN2-xTB:
   * C. Bannwarth, S. Ehlert and S. Grimme., J. Chem. Theory Comput., 2019,
     15, 1652-1671. DOI: 10.1021/acs.jctc.8b01176
   for GFN1-xTB:
   * S. Grimme, C. Bannwarth, P. Shushkov, J. Chem. Theory Comput., 2017,
     13, 1989-2009. DOI: 10.1021/acs.jctc.7b00118
   for GFN0-xTB:
   * P. Pracht, E. Caldeweyher, S. Ehlert, S. Grimme, ChemRxiv, 2019, preprint.
     DOI: 10.26434/chemrxiv.8326202.v1
   for GFN-FF:
   * S. Spicher and S. Grimme, Angew. Chem. Int. Ed., 2020, 59, 15665-15673.
     DOI: 10.1002/anie.202004239
   
   for ALPB and GBSA implicit solvation:
   * S. Ehlert, M. Stahn, S. Spicher, S. Grimme, J. Chem. Theory Comput.,
     2021, 17, 4250-4261. DOI: 10.1021/acs.jctc.1c00471
   
   for DFT-D4:
   * E. Caldeweyher, C. Bannwarth and S. Grimme, J. Chem. Phys., 2017,
     147, 034112. DOI: 10.1063/1.4993215
   * E. Caldeweyher, S. Ehlert, A. Hansen, H. Neugebauer, S. Spicher,
     C. Bannwarth and S. Grimme, J. Chem. Phys., 2019, 150, 154122.
     DOI: 10.1063/1.5090222
   * E. Caldeweyher, J.-M. Mewes, S. Ehlert and S. Grimme, Phys. Chem. Chem. Phys.
     2020, 22, 8499-8512. DOI: 10.1039/D0CP00502A
   
   for sTDA-xTB:
   * S. Grimme and C. Bannwarth, J. Chem. Phys., 2016, 145, 054103.
     DOI: 10.1063/1.4959605
   
   in the mass-spec context:
   * V. Asgeirsson, C. Bauer and S. Grimme, Chem. Sci., 2017, 8, 4879.
     DOI: 10.1039/c7sc00601b
   * J. Koopman and S. Grimme, ACS Omega 2019, 4, 12, 15120-15133.
     DOI: 10.1021/acsomega.9b02011
   
   for metadynamics refer to:
   * S. Grimme, J. Chem. Theory Comput., 2019, 155, 2847-2862
     DOI: 10.1021/acs.jctc.9b00143
   
   for SPH calculations refer to:
   * S. Spicher and S. Grimme, J. Chem. Theory Comput., 2021, 17, 1701-1714
     DOI: 10.1021/acs.jctc.0c01306
   
   with help from (in alphabetical order)
   P. Atkinson, C. Bannwarth, F. Bohle, G. Brandenburg, E. Caldeweyher
   M. Checinski, S. Dohm, S. Ehlert, S. Ehrlich, I. Gerasimov, C. Hölzer
   A. Katbashev, J. Koopman, C. Lavigne, S. Lehtola, F. März, M. Müller,
   F. Musil, H. Neugebauer, J. Pisarek, C. Plett, P. Pracht, F. Pultar,
   J. Seibert, P. Shushkov, S. Spicher, M. Stahn, M. Steiner, T. Strunk,
   J. Stückrath, T. Rose, and J. Unsleber
   
 * started run on 2023/06/20 at 14:55:56.637     

           -------------------------------------------------
          |                Calculation Setup                |
           -------------------------------------------------

          program call               : /lustre/hpc/kemi/ree/PhD/git/ReactivityQM/dep/xtb-6.5.1/bin/xtb --gfn 1 /lustre/hpc/kemi/ree/PhD/git/ReactivityQM/calculations/RaltegravirCLI/reac01prodN08/conf05/RaltegravirCLI_reac01prodN08_conf05_gfn1.xyz --opt --vfukui --chrg 1 --uhf 0 --alpb DMSO
          hostname                   : node308
          coordinate file            : /lustre/hpc/kemi/ree/PhD/git/ReactivityQM/calculations/RaltegravirCLI/reac01prodN08/conf05/RaltegravirCLI_reac01prodN08_conf05_gfn1.xyz
          omp threads                :                     1

   ID    Z sym.   atoms
    1    6 C      1, 3, 5, 8, 9
    2   17 Cl     2
    3    8 O      4, 10
    4    7 N      6, 7
    5    1 H      11-16

           -------------------------------------------------
          |                 G F N 1 - x T B                 |
           -------------------------------------------------

        Reference                      10.1021/acs.jctc.7b00118
      * Hamiltonian:
        H0-scaling (s, p, d)           1.850000    2.250000    2.000000
        zeta-weighting                 0.000000
      * Dispersion:
        s8                             2.400000
        a1                             0.630000
        a2                             5.000000
        s9                             0.000000
      * Repulsion:
        kExp                           1.500000
        rExp                           1.000000
      * Coulomb:
        alpha                          2.000000
        third order                    atomic
        anisotropic                    false
      * Halogen bond correction:
        rad-scale                      1.300000
        damping                        0.440000

      * Solvation model:               ALPB
        Solvent                        DMSO
        Parameter file                 internal GFN1-xTB/ALPB
        Dielectric constant                4.6680E+01
        Reference state                gsolv [1 M gas/solution]
        Free energy shift                  7.6243E-03 Eh       4.7843E+00 kcal/mol
        Temperature                        2.9815E+02 K
        Density                            1.1000E+00 kg/L
        Solvent mass                       7.8130E+01 g/mol
        Interaction kernel             P16
        Born radius scaling (c1)           1.7672E+00
        Born radii integrator          GBOBC
        Born offset                        0.0000E+00 a0       0.0000E+00 AA
        H-bond correction              true
        Ion screening                  false
        Surface tension                    1.0000E-05 Eh       1.5569E+01 dyn/cm
        Grid points                               230 per atom

          ...................................................
          :                      SETUP                      :
          :.................................................:
          :  # basis functions                  58          :
          :  # atomic orbitals                  57          :
          :  # shells                           33          :
          :  # electrons                        54          :
          :  # halogen bonds                     4          :
          :  max. iterations                   250          :
          :  Hamiltonian                  GFN1-xTB          :
          :  restarted?                      false          :
          :  GBSA solvation                   true          :
          :  PC potential                    false          :
          :  electronic temp.          300.0000000     K    :
          :  accuracy                    1.0000000          :
          :  -> integral cutoff          0.2500000E+02      :
          :  -> integral neglect         0.1000000E-07      :
          :  -> SCF convergence          0.1000000E-05 Eh   :
          :  -> wf. convergence          0.2000000E-04 e    :
          :  Broyden damping             0.4000000          :
          ...................................................

 iter      E             dE          RMSdq      gap      omega  full diag
   1    -33.5341063 -0.335341E+02  0.809E+00    3.20       0.0  T
   2    -33.6518649 -0.117759E+00  0.483E+00    2.44       1.0  T
   3    -33.6472985  0.456638E-02  0.182E+00    2.83       1.0  T
   4    -33.6641118 -0.168133E-01  0.218E-01    2.44       1.0  T
   5    -33.6645420 -0.430224E-03  0.805E-02    2.54       1.0  T
   6    -33.6646291 -0.870701E-04  0.215E-02    2.54       1.2  T
   7    -33.6646327 -0.361934E-05  0.675E-03    2.54       3.7  T
   8    -33.6646328 -0.136856E-06  0.237E-03    2.54      10.6  T
   9    -33.6646329 -0.255734E-07  0.441E-04    2.54      56.6  T
  10    -33.6646329 -0.102403E-08  0.129E-04    2.54     193.1  T
  11    -33.6646329 -0.491767E-10  0.339E-05    2.54     738.1  T

   *** convergence criteria satisfied after 11 iterations ***

         #    Occupation            Energy/Eh            Energy/eV
      -------------------------------------------------------------
         1        2.0000           -1.0756158             -29.2690
       ...           ...                  ...                  ...
        21        2.0000           -0.5576209             -15.1736
        22        2.0000           -0.5563943             -15.1403
        23        2.0000           -0.5516630             -15.0115
        24        2.0000           -0.5479360             -14.9101
        25        2.0000           -0.5255165             -14.3000
        26        2.0000           -0.4948496             -13.4655
        27        2.0000           -0.4868185             -13.2470 (HOMO)
        28                         -0.3935871             -10.7100 (LUMO)
        29                         -0.3308377              -9.0026
        30                         -0.3051625              -8.3039
        31                         -0.2985799              -8.1248
        32                         -0.2751141              -7.4862
       ...                                ...                  ...
        57                          0.6402336              17.4216
      -------------------------------------------------------------
                  HL-Gap            0.0932314 Eh            2.5370 eV
             Fermi-level           -0.4402028 Eh          -11.9785 eV

 SCC (total)                   0 d,  0 h,  0 min,  0.039 sec
 SCC setup                      ...        0 min,  0.001 sec (  2.077%)
 Dispersion                     ...        0 min,  0.000 sec (  0.295%)
 classical contributions        ...        0 min,  0.000 sec (  0.154%)
 integral evaluation            ...        0 min,  0.008 sec ( 21.761%)
 iterations                     ...        0 min,  0.012 sec ( 30.204%)
 molecular gradient             ...        0 min,  0.017 sec ( 44.454%)
 printout                       ...        0 min,  0.000 sec (  0.925%)

         :::::::::::::::::::::::::::::::::::::::::::::::::::::
         ::                     SUMMARY                     ::
         :::::::::::::::::::::::::::::::::::::::::::::::::::::
         :: total energy             -33.386224306037 Eh    ::
         :: total w/o Gsasa/hb       -33.376551369982 Eh    ::
         :: gradient norm              0.079242356021 Eh/a0 ::
         :: HOMO-LUMO gap              2.536955583905 eV    ::
         ::.................................................::
         :: SCC energy               -33.664632865391 Eh    ::
         :: -> electrostatic           0.203167329700 Eh    ::
         :: -> Gsolv                  -0.084357911699 Eh    ::
         ::    -> Gelec               -0.074684975645 Eh    ::
         ::    -> Gsasa               -0.015192957010 Eh    ::
         ::    -> Ghb                 -0.002104258049 Eh    ::
         ::    -> Gshift               0.007624279005 Eh    ::
         :: repulsion energy           0.285091261912 Eh    ::
         :: dispersion energy         -0.006682702557 Eh    ::
         :: halogen bond corr.         0.000000000000 Eh    ::
         :: add. restraining           0.000000000000 Eh    ::
         :: total charge               1.000000000000 e     ::
         :::::::::::::::::::::::::::::::::::::::::::::::::::::

      ----------------------------------------------------------- 
     |                   =====================                   |
     |                        A N C O P T                        |
     |                   =====================                   |
     |               Approximate Normal Coordinate               |
     |                Rational Function Optimizer                |
      ----------------------------------------------------------- 

          ...................................................
          :                      SETUP                      :
          :.................................................:
          :   optimization level            normal          :
          :   max. optcycles                   200          :
          :   ANC micro-cycles                  20          :
          :   degrees of freedom                42          :
          :.................................................:
          :   RF solver                   davidson          :
          :   write xtbopt.log                true          :
          :   linear?                        false          :
          :   energy convergence         0.5000000E-05 Eh   :
          :   grad. convergence          0.1000000E-02 Eh/α :
          :   maximium RF displ.         1.0000000          :
          :   Hlow (freq-cutoff)         0.1000000E-01      :
          :   Hmax (freq-cutoff)         5.0000000          :
          :   S6 in model hess.         20.0000000          :
          ...................................................

generating ANC from model Hessian ...
Using Lindh-Hessian (1995)
 Shifting diagonal of input Hessian by   8.967390798896706E-003
 Lowest  eigenvalues of input Hessian
    0.000000    0.000000    0.000000    0.000000    0.000000    0.000000
    0.010000    0.012129    0.012192    0.016085    0.018688    0.019404
    0.033326    0.033837    0.047902    0.056865    0.065289    0.070842
 Highest eigenvalues
    1.525589    1.769142    1.824166    2.047137    2.088648    2.270431
 

........................................................................
.............................. CYCLE    1 ..............................
........................................................................
   1    -33.6646329 -0.336646E+02  0.723E-06    2.54       0.0  T
   2    -33.6646329 -0.561329E-12  0.237E-06    2.54   10559.9  T
   3    -33.6646329 -0.213163E-13  0.174E-06    2.54   14370.4  T
     SCC iter.                  ...        0 min,  0.003 sec
     gradient                   ...        0 min,  0.017 sec
 * total energy  :   -33.3862243 Eh     change       -0.2380318E-11 Eh
   gradient norm :     0.0792421 Eh/α   predicted     0.0000000E+00 (-100.00%)
   displ. norm   :     0.2985491 α      lambda       -0.8321896E-02
   maximum displ.:     0.2231378 α      in ANC's #8, #3, #11, ...

........................................................................
.............................. CYCLE    2 ..............................
........................................................................
   1    -33.6786478 -0.336786E+02  0.111E-01    2.74       0.0  T
   2    -33.6788707 -0.222893E-03  0.534E-02    2.65       1.0  T
   3    -33.6788911 -0.203815E-04  0.248E-02    2.67       1.0  T
   4    -33.6788910  0.131255E-06  0.113E-02    2.67       2.2  T
   5    -33.6788917 -0.732927E-06  0.165E-03    2.67      15.2  T
   6    -33.6788917 -0.148265E-07  0.467E-04    2.67      53.5  T
   7    -33.6788917 -0.112575E-08  0.190E-04    2.67     131.9  T
   8    -33.6788917 -0.132317E-09  0.378E-05    2.67     661.6  T
     SCC iter.                  ...        0 min,  0.006 sec
     gradient                   ...        0 min,  0.018 sec
 * total energy  :   -33.3921727 Eh     change       -0.5948421E-02 Eh
   gradient norm :     0.0414356 Eh/α   predicted    -0.4531822E-02 ( -23.81%)
   displ. norm   :     0.2844129 α      lambda       -0.4068042E-02
   maximum displ.:     0.2469447 α      in ANC's #8, #6, #14, ...

........................................................................
.............................. CYCLE    3 ..............................
........................................................................
   1    -33.6871606 -0.336872E+02  0.109E-01    2.83       0.0  T
   2    -33.6873945 -0.233853E-03  0.440E-02    2.74       1.0  T
   3    -33.6874093 -0.148394E-04  0.190E-02    2.76       1.3  T
   4    -33.6874095 -0.146232E-06  0.967E-03    2.76       2.6  T
   5    -33.6874099 -0.399843E-06  0.170E-03    2.76      14.7  T
   6    -33.6874099 -0.168130E-07  0.372E-04    2.76      67.3  T
   7    -33.6874099 -0.978019E-09  0.203E-04    2.76     122.9  T
   8    -33.6874099 -0.159361E-09  0.514E-05    2.76     486.5  T
   9    -33.6874099 -0.926548E-11  0.102E-05    2.76    2451.9  T
     SCC iter.                  ...        0 min,  0.006 sec
     gradient                   ...        0 min,  0.017 sec
 * total energy  :   -33.3945507 Eh     change       -0.2377948E-02 Eh
   gradient norm :     0.0132462 Eh/α   predicted    -0.2198552E-02 (  -7.54%)
   displ. norm   :     0.1039424 α      lambda       -0.3937443E-03
   maximum displ.:     0.0765465 α      in ANC's #8, #3, #10, ...

........................................................................
.............................. CYCLE    4 ..............................
........................................................................
   1    -33.6887165 -0.336887E+02  0.396E-02    2.78       0.0  T
   2    -33.6887395 -0.229967E-04  0.968E-03    2.76       2.6  T
   3    -33.6887405 -0.101552E-05  0.476E-03    2.77       5.2  T
   4    -33.6887406 -0.873148E-07  0.214E-03    2.77      11.7  T
   5    -33.6887406 -0.100007E-07  0.578E-04    2.77      43.3  T
   6    -33.6887406 -0.198737E-08  0.130E-04    2.77     192.2  T
   7    -33.6887406 -0.138975E-09  0.614E-05    2.77     407.4  T
     SCC iter.                  ...        0 min,  0.005 sec
     gradient                   ...        0 min,  0.017 sec
 * total energy  :   -33.3948098 Eh     change       -0.2590842E-03 Eh
   gradient norm :     0.0065229 Eh/α   predicted    -0.1989986E-03 ( -23.19%)
   displ. norm   :     0.0757838 α      lambda       -0.1372244E-03
   maximum displ.:     0.0535572 α      in ANC's #3, #8, #10, ...

........................................................................
.............................. CYCLE    5 ..............................
........................................................................
   1    -33.6893039 -0.336893E+02  0.275E-02    2.77       0.0  T
   2    -33.6893149 -0.110573E-04  0.557E-03    2.76       4.5  T
   3    -33.6893153 -0.359207E-06  0.325E-03    2.77       7.7  T
   4    -33.6893153 -0.403103E-07  0.158E-03    2.77      15.8  T
   5    -33.6893153 -0.292391E-08  0.407E-04    2.77      61.4  T
   6    -33.6893153 -0.117097E-08  0.958E-05    2.77     261.0  T
   7    -33.6893153 -0.701235E-10  0.394E-05    2.77     633.8  T
     SCC iter.                  ...        0 min,  0.005 sec
     gradient                   ...        0 min,  0.017 sec
 * total energy  :   -33.3949024 Eh     change       -0.9267433E-04 Eh
   gradient norm :     0.0036992 Eh/α   predicted    -0.6900782E-04 ( -25.54%)
   displ. norm   :     0.0616617 α      lambda       -0.5946510E-04
   maximum displ.:     0.0464638 α      in ANC's #3, #6, #10, ...

........................................................................
.............................. CYCLE    6 ..............................
........................................................................
   1    -33.6895539 -0.336896E+02  0.180E-02    2.77       0.0  T
   2    -33.6895584 -0.453392E-05  0.432E-03    2.76       5.8  T
   3    -33.6895585 -0.155749E-06  0.236E-03    2.76      10.6  T
   4    -33.6895586 -0.146105E-07  0.120E-03    2.76      20.8  T
   5    -33.6895586 -0.282223E-08  0.282E-04    2.76      88.5  T
   6    -33.6895586 -0.619771E-09  0.664E-05    2.76     376.7  T
   7    -33.6895586 -0.463132E-10  0.291E-05    2.76     859.9  T
     SCC iter.                  ...        0 min,  0.005 sec
     gradient                   ...        0 min,  0.017 sec
 * total energy  :   -33.3949423 Eh     change       -0.3985365E-04 Eh
   gradient norm :     0.0028943 Eh/α   predicted    -0.2984490E-04 ( -25.11%)
   displ. norm   :     0.0487191 α      lambda       -0.2568142E-04
   maximum displ.:     0.0347945 α      in ANC's #3, #6, #5, ...

........................................................................
.............................. CYCLE    7 ..............................
........................................................................
   1    -33.6896132 -0.336896E+02  0.970E-03    2.76       0.0  T
   2    -33.6896144 -0.119387E-05  0.259E-03    2.76       9.6  T
   3    -33.6896144 -0.561366E-07  0.127E-03    2.76      19.7  T
   4    -33.6896144 -0.447157E-08  0.687E-04    2.76      36.4  T
   5    -33.6896144 -0.792483E-09  0.165E-04    2.76     151.9  T
   6    -33.6896144 -0.248370E-09  0.360E-05    2.76     693.8  T
     SCC iter.                  ...        0 min,  0.004 sec
     gradient                   ...        0 min,  0.017 sec
 * total energy  :   -33.3949600 Eh     change       -0.1768338E-04 Eh
   gradient norm :     0.0021949 Eh/α   predicted    -0.1287012E-04 ( -27.22%)
   displ. norm   :     0.0436738 α      lambda       -0.1412768E-04
   maximum displ.:     0.0295665 α      in ANC's #3, #6, #5, ...

........................................................................
.............................. CYCLE    8 ..............................
........................................................................
   1    -33.6896295 -0.336896E+02  0.563E-03    2.76       0.0  T
   2    -33.6896299 -0.421009E-06  0.146E-03    2.76      17.1  T
   3    -33.6896299 -0.200212E-07  0.677E-04    2.76      36.9  T
   4    -33.6896299 -0.148130E-08  0.382E-04    2.76      65.5  T
   5    -33.6896299 -0.145789E-09  0.933E-05    2.76     268.0  T
   6    -33.6896299 -0.110141E-09  0.205E-05    2.76    1222.1  T
     SCC iter.                  ...        0 min,  0.004 sec
     gradient                   ...        0 min,  0.017 sec
 * total energy  :   -33.3949697 Eh     change       -0.9717409E-05 Eh
   gradient norm :     0.0014103 Eh/α   predicted    -0.7076811E-05 ( -27.17%)
   displ. norm   :     0.0556799 α      lambda       -0.7753923E-05
   maximum displ.:     0.0382639 α      in ANC's #3, #6, #2, ...

........................................................................
.............................. CYCLE    9 ..............................
........................................................................
   1    -33.6896590 -0.336897E+02  0.487E-03    2.76       0.0  T
   2    -33.6896594 -0.450885E-06  0.155E-03    2.76      16.1  T
   3    -33.6896594 -0.122317E-07  0.771E-04    2.76      32.4  T
   4    -33.6896594 -0.556795E-09  0.376E-04    2.76      66.6  T
   5    -33.6896594 -0.180705E-09  0.613E-05    2.76     407.9  T
   6    -33.6896594 -0.389448E-10  0.180E-05    2.76    1388.0  T
     SCC iter.                  ...        0 min,  0.004 sec
     gradient                   ...        0 min,  0.017 sec
 * total energy  :   -33.3949759 Eh     change       -0.6258411E-05 Eh
   gradient norm :     0.0012887 Eh/α   predicted    -0.3881465E-05 ( -37.98%)
   displ. norm   :     0.0158425 α      lambda       -0.2687283E-05
   maximum displ.:     0.0106839 α      in ANC's #3, #2, #1, ...

........................................................................
.............................. CYCLE   10 ..............................
........................................................................
   1    -33.6897274 -0.336897E+02  0.238E-03    2.76       0.0  T
   2    -33.6897274 -0.728292E-07  0.963E-04    2.76      26.0  T
   3    -33.6897274 -0.433237E-08  0.444E-04    2.76      56.4  T
   4    -33.6897274 -0.211230E-09  0.234E-04    2.76     106.9  T
   5    -33.6897274 -0.119961E-09  0.411E-05    2.76     608.6  T
   6    -33.6897274 -0.119513E-10  0.106E-05    2.76    2362.0  T
     SCC iter.                  ...        0 min,  0.004 sec
     gradient                   ...        0 min,  0.017 sec
 * total energy  :   -33.3949789 Eh     change       -0.2978238E-05 Eh
   gradient norm :     0.0007811 Eh/α   predicted    -0.1343213E-05 ( -54.90%)
   displ. norm   :     0.0268826 α      lambda       -0.2132811E-05
   maximum displ.:     0.0171695 α      in ANC's #3, #2, #1, ...

   *** GEOMETRY OPTIMIZATION CONVERGED AFTER 10 ITERATIONS ***

------------------------------------------------------------------------
 total energy gain   :        -0.0087546 Eh       -5.4936 kcal/mol
 total RMSD          :         0.1952541 a0        0.1033 Å
 total power (kW/mol):        -2.2985249 (step)  -73.5010 (real)
------------------------------------------------------------------------

 ANCopt (total)                0 d,  0 h,  0 min,  0.313 sec
 optimizer setup                ...        0 min,  0.001 sec (  0.261%)
 model hessian                  ...        0 min,  0.002 sec (  0.610%)
 ANC generation                 ...        0 min,  0.001 sec (  0.161%)
 coordinate transformation      ...        0 min,  0.000 sec (  0.039%)
 single point calculation       ...        0 min,  0.305 sec ( 97.404%)
 optimization log               ...        0 min,  0.002 sec (  0.688%)
 hessian update                 ...        0 min,  0.000 sec (  0.039%)
 rational function              ...        0 min,  0.001 sec (  0.479%)

================
 final structure:
================
16
 xtb: 6.5.1 (579679a)
C           -3.92840102624702        0.19541215312314        0.15279629189680
Cl          -2.40403771253460       -0.37394796506030        0.89025698195543
C           -1.14161980138191        0.30321643503136       -0.26824255503222
O           -1.52180911354193        0.94538137971035       -1.18045584993998
C            0.16069144463794       -0.08703902889914        0.17122568849724
N            0.47282424776279       -0.80551504170306        1.22533345851477
N            1.79955249693787       -0.90976436952233        1.24521966091726
C            2.25665381115684       -0.25102049690773        0.19965976346930
C            3.66075824434577       -0.08596800210008       -0.21152181874116
O            1.26626866723213        0.28346049453056       -0.50490623606483
H           -3.70508968871449        1.04784568757119       -0.48676487083750
H           -4.58332124839903        0.48685503708739        0.96841197523269
H           -4.35849462656238       -0.61651523916710       -0.42683925341135
H            4.32118788930100       -0.46987522725771        0.56241436630166
H            3.83450262665686       -0.62961568928235       -1.14179240286325
H            3.87033378935059        0.96709187284520       -0.39885619989367
 
 Bond Distances (Angstroems)
 ---------------------------
C1-Cl2=1.7865        C1-H11=1.0888        C1-H12=1.0859        C1-H13=1.0864        Cl2-C1=1.7865        Cl2-C3=1.8424        
C3-Cl2=1.8424        C3-O4=1.1786         C3-C5=1.4288         O4-C3=1.1786         C5-C3=1.4288         C5-N6=1.3133         
C5-O10=1.3479        N6-C5=1.3133         N6-N7=1.3310         N7-N6=1.3310         N7-C8=1.3176         C8-N7=1.3176         
C8-C9=1.4724         C8-O10=1.3278        C9-C8=1.4724         C9-H14=1.0874        C9-H15=1.0914        C9-H16=1.0899        
O10-C5=1.3479        O10-C8=1.3278        H11-C1=1.0888        H12-C1=1.0859        H13-C1=1.0864        H14-C9=1.0874        
H15-C9=1.0914        H16-C9=1.0899        
 C  H  Rav=1.0883 sigma=0.0020  Rmin=1.0859  Rmax=1.0914     6
 C  C  Rav=1.4506 sigma=0.0218  Rmin=1.4288  Rmax=1.4724     2
 N  C  Rav=1.3155 sigma=0.0021  Rmin=1.3133  Rmax=1.3176     2
 N  N  Rav=1.3310 sigma=0.0000  Rmin=1.3310  Rmax=1.3310     1
 O  C  Rav=1.2847 sigma=0.0755  Rmin=1.1786  Rmax=1.3479     3
 Cl C  Rav=1.8145 sigma=0.0279  Rmin=1.7865  Rmax=1.8424     2
 
 selected bond angles (degree)
 --------------------
H11-C1-Cl2=108.48              H12-C1-Cl2=106.86              H12-C1-H11=110.78              H13-C1-Cl2=108.65              
H13-C1-H11=110.67              H13-C1-H12=111.26              C3-Cl2-C1=102.00               O4-C3-Cl2=117.77               
C5-C3-Cl2=109.31               C5-C3-O4=132.92                N6-C5-C3=127.80                O10-C5-C3=121.22               
O10-C5-N6=110.98               N7-N6-C5=106.96                C8-N7-N6=107.15                C9-C8-N7=127.48                
O10-C8-N7=111.32               O10-C8-C9=121.20               H14-C9-C8=109.93               H15-C9-C8=109.51               
H15-C9-H14=109.52              H16-C9-C8=109.86               H16-C9-H14=110.28              H16-C9-H15=107.71              
C8-O10-C5=103.59               
 
 selected dihedral angles (degree)
 ---------------------------------
C3-Cl2-C1-H11=338.57          C3-Cl2-C1-H12=219.08          C3-Cl2-C1-H13= 98.94          O4-C3-Cl2-C1=  1.26           
C5-C3-Cl2-C1=180.98           N6-C5-C3-Cl2=359.68           N6-C5-C3-O4=179.34            O10-C5-C3-Cl2=180.12          
O10-C5-C3-O4=359.79           N7-N6-C5-C3=180.43            N7-N6-C5-O10=  0.03           C8-N7-N6-C5=359.95            
C9-C8-N7-N6=180.41            O10-C8-N7-N6=  0.05           H14-C9-C8-N7=351.56           H14-C9-C8-O10=171.95          
H15-C9-C8-N7=111.93           H15-C9-C8-O10=292.31          H16-C9-C8-N7=230.03           H16-C9-C8-O10= 50.41          
C8-O10-C5-C3=179.63           C8-O10-C5-N6=  0.00           C5-O10-C8-N7=359.96           C5-O10-C8-C9=179.64           
           -------------------------------------------------
          |                Final Singlepoint                |
           -------------------------------------------------

          ...................................................
          :                      SETUP                      :
          :.................................................:
          :  # basis functions                  58          :
          :  # atomic orbitals                  57          :
          :  # shells                           33          :
          :  # electrons                        54          :
          :  # halogen bonds                     4          :
          :  max. iterations                   250          :
          :  Hamiltonian                  GFN1-xTB          :
          :  restarted?                      false          :
          :  GBSA solvation                   true          :
          :  PC potential                    false          :
          :  electronic temp.          300.0000000     K    :
          :  accuracy                    1.0000000          :
          :  -> integral cutoff          0.2500000E+02      :
          :  -> integral neglect         0.1000000E-07      :
          :  -> SCF convergence          0.1000000E-05 Eh   :
          :  -> wf. convergence          0.2000000E-04 e    :
          :  Broyden damping             0.4000000          :
          ...................................................

 iter      E             dE          RMSdq      gap      omega  full diag
   1    -33.6897274 -0.336897E+02  0.375E-06    2.76       0.0  T
   2    -33.6897274 -0.284217E-13  0.179E-06    2.76   13984.1  T
   3    -33.6897274 -0.142109E-13  0.952E-07    2.76   26249.1  T

   *** convergence criteria satisfied after 3 iterations ***

         #    Occupation            Energy/Eh            Energy/eV
      -------------------------------------------------------------
         1        2.0000           -1.0706958             -29.1351
       ...           ...                  ...                  ...
        21        2.0000           -0.5584796             -15.1970
        22        2.0000           -0.5570017             -15.1568
        23        2.0000           -0.5503075             -14.9746
        24        2.0000           -0.5456945             -14.8491
        25        2.0000           -0.5278604             -14.3638
        26        2.0000           -0.5001406             -13.6095
        27        2.0000           -0.4972391             -13.5306 (HOMO)
        28                         -0.3956647             -10.7666 (LUMO)
        29                         -0.3199440              -8.7061
        30                         -0.3002533              -8.1703
        31                         -0.2993670              -8.1462
        32                         -0.2728063              -7.4234
       ...                                ...                  ...
        57                          0.7637474              20.7826
      -------------------------------------------------------------
                  HL-Gap            0.1015745 Eh            2.7640 eV
             Fermi-level           -0.4464519 Eh          -12.1486 eV

 SCC (total)                   0 d,  0 h,  0 min,  0.027 sec
 SCC setup                      ...        0 min,  0.001 sec (  2.312%)
 Dispersion                     ...        0 min,  0.000 sec (  0.247%)
 classical contributions        ...        0 min,  0.000 sec (  0.093%)
 integral evaluation            ...        0 min,  0.008 sec ( 30.927%)
 iterations                     ...        0 min,  0.002 sec (  7.982%)
 molecular gradient             ...        0 min,  0.015 sec ( 57.713%)
 printout                       ...        0 min,  0.000 sec (  0.598%)

         :::::::::::::::::::::::::::::::::::::::::::::::::::::
         ::                     SUMMARY                     ::
         :::::::::::::::::::::::::::::::::::::::::::::::::::::
         :: total energy             -33.394978925085 Eh    ::
         :: total w/o Gsasa/hb       -33.385502824323 Eh    ::
         :: gradient norm              0.000782289846 Eh/a0 ::
         :: HOMO-LUMO gap              2.763981726085 eV    ::
         ::.................................................::
         :: SCC energy               -33.689727449609 Eh    ::
         :: -> electrostatic           0.199844396856 Eh    ::
         :: -> Gsolv                  -0.083567383855 Eh    ::
         ::    -> Gelec               -0.074091283092 Eh    ::
         ::    -> Gsasa               -0.015013327289 Eh    ::
         ::    -> Ghb                 -0.002087052478 Eh    ::
         ::    -> Gshift               0.007624279005 Eh    ::
         :: repulsion energy           0.301462433900 Eh    ::
         :: dispersion energy         -0.006713909376 Eh    ::
         :: halogen bond corr.         0.000000000000 Eh    ::
         :: add. restraining           0.000000000000 Eh    ::
         :: total charge               1.000000000000 e     ::
         :::::::::::::::::::::::::::::::::::::::::::::::::::::

           -------------------------------------------------
          |                Property Printout                |
           -------------------------------------------------

    * Orbital Energies and Occupations

         #    Occupation            Energy/Eh            Energy/eV
      -------------------------------------------------------------
         1        2.0000           -1.0706958             -29.1351
       ...           ...                  ...                  ...
        15        2.0000           -0.6237749             -16.9738
        16        2.0000           -0.6125893             -16.6694
        17        2.0000           -0.6072033             -16.5228
        18        2.0000           -0.5851606             -15.9230
        19        2.0000           -0.5773003             -15.7091
        20        2.0000           -0.5707306             -15.5304
        21        2.0000           -0.5584796             -15.1970
        22        2.0000           -0.5570017             -15.1568
        23        2.0000           -0.5503075             -14.9746
        24        2.0000           -0.5456945             -14.8491
        25        2.0000           -0.5278604             -14.3638
        26        2.0000           -0.5001406             -13.6095
        27        2.0000           -0.4972391             -13.5306 (HOMO)
        28                         -0.3956647             -10.7666 (LUMO)
        29                         -0.3199440              -8.7061
        30                         -0.3002533              -8.1703
        31                         -0.2993670              -8.1462
        32                         -0.2728063              -7.4234
        33                         -0.1883690              -5.1258
        34                         -0.1836299              -4.9968
        35                         -0.1657717              -4.5109
        36                         -0.1612521              -4.3879
        37                         -0.1585389              -4.3141
        38                         -0.1122217              -3.0537
       ...                                ...                  ...
        57                          0.7637474              20.7826
      -------------------------------------------------------------
                  HL-Gap            0.1015745 Eh            2.7640 eV
             Fermi-level           -0.4464519 Eh          -12.1486 eV

  Mulliken/CM5 charges         n(s)   n(p)   n(d)
     1C    -0.00494 -0.14886   1.054  2.951  0.000
     2Cl    0.37927  0.37477   1.940  4.679  0.003
     3C     0.45261  0.49755   1.051  2.496  0.000
     4O    -0.40036 -0.45238   1.712  4.688  0.000
     5C     0.32749  0.44590   0.974  2.698  0.000
     6N    -0.17441 -0.27772   1.563  3.611  0.000
     7N    -0.20807 -0.31179   1.554  3.654  0.000
     8C     0.41916  0.52455   1.024  2.557  0.000
     9C    -0.11163 -0.24885   1.016  3.095  0.000
    10O    -0.30643 -0.35923   1.684  4.622  0.000
    11H     0.11434  0.17316   0.886  0.000  0.000
    12H     0.11020  0.16268   0.890  0.000  0.000
    13H     0.10667  0.15928   0.893  0.000  0.000
    14H     0.08931  0.14507   0.911  0.000  0.000
    15H     0.10518  0.15949   0.895  0.000  0.000
    16H     0.10162  0.15639   0.898  0.000  0.000

Wiberg/Mayer (AO) data.
largest (>0.10) Wiberg bond orders for each atom

 ---------------------------------------------------------------------------
     #   Z sym  total        # sym  WBO       # sym  WBO       # sym  WBO
 ---------------------------------------------------------------------------
     1   6 C    3.858 --    13 H    0.980    12 H    0.976    11 H    0.969
                             2 Cl   0.910
     2  17 Cl   1.909 --     1 C    0.910     3 C    0.783     4 O    0.146
     3   6 C    3.874 --     4 O    1.846     5 C    1.110     2 Cl   0.783
     4   8 O    2.167 --     3 C    1.846     2 Cl   0.146
     5   6 C    3.889 --     6 N    1.497     3 C    1.110    10 O    1.048
     6   7 N    3.023 --     5 C    1.497     7 N    1.313
     7   7 N    2.993 --     8 C    1.485     6 N    1.313
     8   6 C    3.848 --     7 N    1.485    10 O    1.125     9 C    1.044
     9   6 C    3.973 --     8 C    1.044    14 H    0.978    16 H    0.955
                            15 H    0.944
    10   8 O    2.362 --     8 C    1.125     5 C    1.048
    11   1 H    0.994 --     1 C    0.969
    12   1 H    0.993 --     1 C    0.976
    13   1 H    0.994 --     1 C    0.980
    14   1 H    0.993 --     9 C    0.978
    15   1 H    0.988 --     9 C    0.944
    16   1 H    0.989 --     9 C    0.955
 ---------------------------------------------------------------------------

Topologies differ in total number of bonds
Writing topology from bond orders to xtbtopo.mol

 dipole moment from electron density (au)
     X       Y       Z   
  -2.4426  -0.0762   0.4403  total (Debye):    6.311

           -------------------------------------------------
          |                Geometry Summary                 |
           -------------------------------------------------

      molecular mass/u    :      161.5664778
   center of mass at/Å    :       -0.2847632      -0.0986231       0.2401393
  moments of inertia/u·Å² :        0.1359798E+03   0.8355632E+03   0.9651623E+03
rotational constants/cm⁻¹ :        0.1239716E+00   0.2017517E-01   0.1746611E-01

 * 14 selected distances

     #   Z          #   Z                                           value/Å
     1   6 C        2  17 Cl                                      1.7865339 (max)
     3   6 C        4   8 O                                       1.1785810
     3   6 C        5   6 C                                       1.4287920
     5   6 C        6   7 N                                       1.3133081
     7   7 N        8   6 C                                       1.3176042
     8   6 C        9   6 C                                       1.4723526
     5   6 C       10   8 O                                       1.3478596
     8   6 C       10   8 O                                       1.3277599
     1   6 C       11   1 H                                       1.0888295
     1   6 C       12   1 H                                       1.0858585 (min)
     1   6 C       13   1 H                                       1.0863628
     9   6 C       14   1 H                                       1.0874417
     9   6 C       15   1 H                                       1.0913952
     9   6 C       16   1 H                                       1.0899318

 * 5 distinct bonds (by element types)

   Z      Z             #   av. dist./Å        max./Å        min./Å
   1 H    6 C           6     1.0883033     1.0913952     1.0858585
   6 C    6 C           2     1.4505723     1.4723526     1.4287920
   6 C    7 N           2     1.3154562     1.3176042     1.3133081
   6 C    8 O           3     1.2847335     1.3478596     1.1785810
   6 C   17 Cl          1     1.7865339     1.7865339     1.7865339


optimized geometry written to: xtbopt.xyz


           -------------------------------------------------
          | TOTAL ENERGY              -33.394978925085 Eh   |
          | GRADIENT NORM               0.000782289846 Eh/α |
          | HOMO-LUMO GAP               2.763981726085 eV   |
           -------------------------------------------------

------------------------------------------------------------------------
 * finished run on 2023/06/20 at 14:55:57.059     
------------------------------------------------------------------------
 total:
 * wall-time:     0 d,  0 h,  0 min,  0.421 sec
 *  cpu-time:     0 d,  0 h,  0 min,  0.390 sec
 * ratio c/w:     0.924 speedup
 SCF:
 * wall-time:     0 d,  0 h,  0 min,  0.039 sec
 *  cpu-time:     0 d,  0 h,  0 min,  0.034 sec
 * ratio c/w:     0.851 speedup
 ANC optimizer:
 * wall-time:     0 d,  0 h,  0 min,  0.345 sec
 *  cpu-time:     0 d,  0 h,  0 min,  0.338 sec
 * ratio c/w:     0.981 speedup

