      -----------------------------------------------------------      
     |                   =====================                   |     
     |                           x T B                           |     
     |                   =====================                   |     
     |                         S. Grimme                         |     
     |          Mulliken Center for Theoretical Chemistry        |     
     |                    University of Bonn                     |     
      -----------------------------------------------------------      

   * xtb version 6.5.1 (579679a) compiled by 'ehlert@majestix' on 2022-07-11

   xtb is free software: you can redistribute it and/or modify it under
   the terms of the GNU Lesser General Public License as published by
   the Free Software Foundation, either version 3 of the License, or
   (at your option) any later version.
   
   xtb is distributed in the hope that it will be useful,
   but WITHOUT ANY WARRANTY; without even the implied warranty of
   MERCHANTABILITY or FITNESS FOR A PARTICULAR PURPOSE.  See the
   GNU Lesser General Public License for more details.
   
   Cite this work as:
   * C. Bannwarth, E. Caldeweyher, S. Ehlert, A. Hansen, P. Pracht,
     J. Seibert, S. Spicher, S. Grimme, WIREs Comput. Mol. Sci., 2020, 11,
     e01493. DOI: 10.1002/wcms.1493
   
   for GFN2-xTB:
   * C. Bannwarth, S. Ehlert and S. Grimme., J. Chem. Theory Comput., 2019,
     15, 1652-1671. DOI: 10.1021/acs.jctc.8b01176
   for GFN1-xTB:
   * S. Grimme, C. Bannwarth, P. Shushkov, J. Chem. Theory Comput., 2017,
     13, 1989-2009. DOI: 10.1021/acs.jctc.7b00118
   for GFN0-xTB:
   * P. Pracht, E. Caldeweyher, S. Ehlert, S. Grimme, ChemRxiv, 2019, preprint.
     DOI: 10.26434/chemrxiv.8326202.v1
   for GFN-FF:
   * S. Spicher and S. Grimme, Angew. Chem. Int. Ed., 2020, 59, 15665-15673.
     DOI: 10.1002/anie.202004239
   
   for ALPB and GBSA implicit solvation:
   * S. Ehlert, M. Stahn, S. Spicher, S. Grimme, J. Chem. Theory Comput.,
     2021, 17, 4250-4261. DOI: 10.1021/acs.jctc.1c00471
   
   for DFT-D4:
   * E. Caldeweyher, C. Bannwarth and S. Grimme, J. Chem. Phys., 2017,
     147, 034112. DOI: 10.1063/1.4993215
   * E. Caldeweyher, S. Ehlert, A. Hansen, H. Neugebauer, S. Spicher,
     C. Bannwarth and S. Grimme, J. Chem. Phys., 2019, 150, 154122.
     DOI: 10.1063/1.5090222
   * E. Caldeweyher, J.-M. Mewes, S. Ehlert and S. Grimme, Phys. Chem. Chem. Phys.
     2020, 22, 8499-8512. DOI: 10.1039/D0CP00502A
   
   for sTDA-xTB:
   * S. Grimme and C. Bannwarth, J. Chem. Phys., 2016, 145, 054103.
     DOI: 10.1063/1.4959605
   
   in the mass-spec context:
   * V. Asgeirsson, C. Bauer and S. Grimme, Chem. Sci., 2017, 8, 4879.
     DOI: 10.1039/c7sc00601b
   * J. Koopman and S. Grimme, ACS Omega 2019, 4, 12, 15120-15133.
     DOI: 10.1021/acsomega.9b02011
   
   for metadynamics refer to:
   * S. Grimme, J. Chem. Theory Comput., 2019, 155, 2847-2862
     DOI: 10.1021/acs.jctc.9b00143
   
   for SPH calculations refer to:
   * S. Spicher and S. Grimme, J. Chem. Theory Comput., 2021, 17, 1701-1714
     DOI: 10.1021/acs.jctc.0c01306
   
   with help from (in alphabetical order)
   P. Atkinson, C. Bannwarth, F. Bohle, G. Brandenburg, E. Caldeweyher
   M. Checinski, S. Dohm, S. Ehlert, S. Ehrlich, I. Gerasimov, C. Hölzer
   A. Katbashev, J. Koopman, C. Lavigne, S. Lehtola, F. März, M. Müller,
   F. Musil, H. Neugebauer, J. Pisarek, C. Plett, P. Pracht, F. Pultar,
   J. Seibert, P. Shushkov, S. Spicher, M. Stahn, M. Steiner, T. Strunk,
   J. Stückrath, T. Rose, and J. Unsleber
   
 * started run on 2023/06/20 at 17:49:08.713     

           -------------------------------------------------
          |                Calculation Setup                |
           -------------------------------------------------

          program call               : /lustre/hpc/kemi/ree/PhD/git/ReactivityQM/dep/xtb-6.5.1/bin/xtb --gfn 1 /lustre/hpc/kemi/ree/PhD/git/ReactivityQM/calculations/R02deprot/reac01prodE07/conf15/R02deprot_reac01prodE07_conf15_gfn1.xyz --opt --vfukui --chrg -2 --uhf 0 --alpb DMSO
          hostname                   : node308
          coordinate file            : /lustre/hpc/kemi/ree/PhD/git/ReactivityQM/calculations/R02deprot/reac01prodE07/conf15/R02deprot_reac01prodE07_conf15_gfn1.xyz
          omp threads                :                     1

   ID    Z sym.   atoms
    1    6 C      1, 3, 5, 7-10, 12, 14, 15, 18, 19, 22, 24
    2    8 O      2, 4, 13, 20, 23, 25
    3    7 N      6, 11, 16, 17, 21
    4    1 H      26-42

           -------------------------------------------------
          |                 G F N 1 - x T B                 |
           -------------------------------------------------

        Reference                      10.1021/acs.jctc.7b00118
      * Hamiltonian:
        H0-scaling (s, p, d)           1.850000    2.250000    2.000000
        zeta-weighting                 0.000000
      * Dispersion:
        s8                             2.400000
        a1                             0.630000
        a2                             5.000000
        s9                             0.000000
      * Repulsion:
        kExp                           1.500000
        rExp                           1.000000
      * Coulomb:
        alpha                          2.000000
        third order                    atomic
        anisotropic                    false
      * Halogen bond correction:
        rad-scale                      1.300000
        damping                        0.440000

      * Solvation model:               ALPB
        Solvent                        DMSO
        Parameter file                 internal GFN1-xTB/ALPB
        Dielectric constant                4.6680E+01
        Reference state                gsolv [1 M gas/solution]
        Free energy shift                  7.6243E-03 Eh       4.7843E+00 kcal/mol
        Temperature                        2.9815E+02 K
        Density                            1.1000E+00 kg/L
        Solvent mass                       7.8130E+01 g/mol
        Interaction kernel             P16
        Born radius scaling (c1)           1.7672E+00
        Born radii integrator          GBOBC
        Born offset                        0.0000E+00 a0       0.0000E+00 AA
        H-bond correction              true
        Ion screening                  false
        Surface tension                    1.0000E-05 Eh       1.5569E+01 dyn/cm
        Grid points                               230 per atom

          ...................................................
          :                      SETUP                      :
          :.................................................:
          :  # basis functions                 134          :
          :  # atomic orbitals                 134          :
          :  # shells                           84          :
          :  # electrons                       136          :
          :  # halogen bonds                     0          :
          :  max. iterations                   250          :
          :  Hamiltonian                  GFN1-xTB          :
          :  restarted?                      false          :
          :  GBSA solvation                   true          :
          :  PC potential                    false          :
          :  electronic temp.          300.0000000     K    :
          :  accuracy                    1.0000000          :
          :  -> integral cutoff          0.2500000E+02      :
          :  -> integral neglect         0.1000000E-07      :
          :  -> SCF convergence          0.1000000E-05 Eh   :
          :  -> wf. convergence          0.2000000E-04 e    :
          :  Broyden damping             0.4000000          :
          ...................................................

 iter      E             dE          RMSdq      gap      omega  full diag
   1    -84.0187558 -0.840188E+02  0.872E+00    0.44       0.0  T
   2    -83.8847714  0.133984E+00  0.552E+00    0.75       1.0  T
   3    -83.9784327 -0.936613E-01  0.309E+00    0.82       1.0  T
   4    -84.2059294 -0.227497E+00  0.128E+00    1.34       1.0  T
   5    -84.2489631 -0.430337E-01  0.875E-01    2.10       1.0  T
   6    -84.2749079 -0.259448E-01  0.415E-01    0.71       1.0  T
   7    -83.9182228  0.356685E+00  0.174E+00    0.56       1.0  T
   8    -84.2727421 -0.354519E+00  0.441E-01    0.76       1.0  T
   9    -84.2732149 -0.472790E-03  0.415E-01    0.68       1.0  T
  10    -84.2752616 -0.204673E-02  0.354E-01    0.44       1.0  T
  11    -84.2828840 -0.762234E-02  0.198E-01    0.16       1.0  T
  12    -84.2641317  0.187523E-01  0.423E-01    0.03       1.0  T
  13    -84.1894026  0.747291E-01  0.866E-01    0.02       1.0  T
  14    -84.1266809  0.627217E-01  0.111E+00    0.05       1.0  T
  15    -84.1693854 -0.427046E-01  0.951E-01    0.03       1.0  T
  16    -84.0987905  0.705950E-01  0.120E+00    0.07       1.0  T
  17    -84.1550933 -0.563029E-01  0.101E+00    0.04       1.0  T
  18    -84.1346538  0.204395E-01  0.108E+00    0.05       1.0  T
  19    -84.1857034 -0.510496E-01  0.883E-01    0.03       1.0  T
  20    -84.2395260 -0.538226E-01  0.607E-01    0.01       1.0  T
  21    -84.2736336 -0.341076E-01  0.329E-01    0.04       1.0  T
  22    -84.2845490 -0.109154E-01  0.156E-01    0.06       1.0  T
  23    -84.2866703 -0.212124E-02  0.885E-02    0.08       1.0  T
  24    -84.2875604 -0.890148E-03  0.304E-02    0.09       1.0  T
  25    -84.2876202 -0.597964E-04  0.214E-02    0.09       1.0  T
  26    -84.2876695 -0.493042E-04  0.855E-03    0.09       1.8  T
  27    -84.2876785 -0.901787E-05  0.184E-03    0.09       8.4  T
  28    -84.2876777  0.880564E-06  0.320E-03    0.09       4.8  T
  29    -84.2876789 -0.128465E-05  0.489E-04    0.09      31.5  T
  30    -84.2876790 -0.293799E-07  0.926E-05    0.09     166.5  T
  31    -84.2876790 -0.109146E-08  0.144E-05    0.09    1071.7  T

   *** convergence criteria satisfied after 31 iterations ***

         #    Occupation            Energy/Eh            Energy/eV
      -------------------------------------------------------------
         1        2.0000           -0.7928120             -21.5735
       ...           ...                  ...                  ...
        62        2.0000           -0.3916833             -10.6582
        63        2.0000           -0.3795858             -10.3291
        64        2.0000           -0.3586730              -9.7600
        65        2.0000           -0.3557772              -9.6812
        66        2.0000           -0.3505514              -9.5390
        67        2.0000           -0.3466825              -9.4337
        68        1.7139           -0.2549814              -6.9384 (HOMO)
        69        0.2861           -0.2515802              -6.8458 (LUMO)
        70                         -0.2052918              -5.5863
        71                         -0.1818703              -4.9489
        72                         -0.1776091              -4.8330
        73                         -0.1251819              -3.4064
       ...                                ...                  ...
       134                          0.7253650              19.7382
      -------------------------------------------------------------
                  HL-Gap            0.0034012 Eh            0.0926 eV
             Fermi-level           -0.2532808 Eh           -6.8921 eV

 SCC (total)                   0 d,  0 h,  0 min,  0.429 sec
 SCC setup                      ...        0 min,  0.002 sec (  0.494%)
 Dispersion                     ...        0 min,  0.000 sec (  0.099%)
 classical contributions        ...        0 min,  0.000 sec (  0.031%)
 integral evaluation            ...        0 min,  0.059 sec ( 13.678%)
 iterations                     ...        0 min,  0.218 sec ( 50.732%)
 molecular gradient             ...        0 min,  0.149 sec ( 34.717%)
 printout                       ...        0 min,  0.001 sec (  0.238%)

         :::::::::::::::::::::::::::::::::::::::::::::::::::::
         ::                     SUMMARY                     ::
         :::::::::::::::::::::::::::::::::::::::::::::::::::::
         :: total energy             -83.568341604037 Eh    ::
         :: total w/o Gsasa/hb       -83.545408345272 Eh    ::
         :: gradient norm              0.138473350639 Eh/a0 ::
         :: HOMO-LUMO gap              0.092551621319 eV    ::
         ::.................................................::
         :: SCC energy               -84.287678975049 Eh    ::
         :: -> electrostatic           0.639140921814 Eh    ::
         :: -> Gsolv                  -0.268091604743 Eh    ::
         ::    -> Gelec               -0.245158345977 Eh    ::
         ::    -> Gsasa               -0.025499106202 Eh    ::
         ::    -> Ghb                 -0.005058431568 Eh    ::
         ::    -> Gshift               0.007624279005 Eh    ::
         :: repulsion energy           0.744406712648 Eh    ::
         :: dispersion energy         -0.025069341636 Eh    ::
         :: halogen bond corr.         0.000000000000 Eh    ::
         :: add. restraining           0.000000000000 Eh    ::
         :: total charge              -2.000000000000 e     ::
         :::::::::::::::::::::::::::::::::::::::::::::::::::::

      ----------------------------------------------------------- 
     |                   =====================                   |
     |                        A N C O P T                        |
     |                   =====================                   |
     |               Approximate Normal Coordinate               |
     |                Rational Function Optimizer                |
      ----------------------------------------------------------- 

          ...................................................
          :                      SETUP                      :
          :.................................................:
          :   optimization level            normal          :
          :   max. optcycles                   200          :
          :   ANC micro-cycles                  20          :
          :   degrees of freedom               120          :
          :.................................................:
          :   RF solver                   davidson          :
          :   write xtbopt.log                true          :
          :   linear?                        false          :
          :   energy convergence         0.5000000E-05 Eh   :
          :   grad. convergence          0.1000000E-02 Eh/α :
          :   maximium RF displ.         1.0000000          :
          :   Hlow (freq-cutoff)         0.1000000E-01      :
          :   Hmax (freq-cutoff)         5.0000000          :
          :   S6 in model hess.         20.0000000          :
          ...................................................

generating ANC from model Hessian ...
Using Lindh-Hessian (1995)
 Shifting diagonal of input Hessian by   9.791762640484061E-003
 Lowest  eigenvalues of input Hessian
    0.000000    0.000000    0.000000    0.000000    0.000000    0.000000
    0.010000    0.010076    0.010308    0.010575    0.011455    0.012050
    0.012660    0.012823    0.013790    0.014348    0.014825    0.015483
 Highest eigenvalues
    1.976378    1.980232    2.078387    2.149966    2.224840    2.316179
 

........................................................................
.............................. CYCLE    1 ..............................
........................................................................
   1    -84.2876790 -0.842877E+02  0.149E-06    0.09       0.0  T
   2    -84.2876790  0.360245E-10  0.169E-05    0.09     913.2  T
   3    -84.2876790 -0.364793E-10  0.923E-08    0.09  100000.0  T
     SCC iter.                  ...        0 min,  0.011 sec
     gradient                   ...        0 min,  0.081 sec
 * total energy  :   -83.5683416 Eh     change       -0.2664535E-10 Eh
   gradient norm :     0.1384741 Eh/α   predicted     0.0000000E+00 (-100.00%)
   displ. norm   :     0.3057591 α      lambda       -0.1812453E-01
   maximum displ.:     0.1330709 α      in ANC's #23, #20, #18, ...

........................................................................
.............................. CYCLE    2 ..............................
........................................................................
   1    -84.2920507 -0.842921E+02  0.257E-01    0.21       0.0  T
   2    -83.9278478  0.364203E+00  0.176E+00    0.40       1.0  T
   3    -84.2963020 -0.368454E+00  0.150E-01    0.15       1.0  T
   4    -84.2990694 -0.276748E-02  0.196E-02    0.10       1.0  T
   5    -84.2988864  0.183080E-03  0.435E-02    0.09       1.0  T
   6    -84.2990816 -0.195195E-03  0.112E-02    0.10       1.4  T
   7    -84.2990952 -0.136283E-04  0.473E-03    0.10       3.3  T
   8    -84.2990975 -0.231023E-05  0.117E-03    0.10      13.2  T
   9    -84.2990976 -0.138361E-06  0.336E-04    0.10      45.9  T
  10    -84.2990976 -0.122914E-07  0.113E-04    0.10     136.1  T
  11    -84.2990976 -0.757211E-09  0.473E-05    0.10     326.3  T
     SCC iter.                  ...        0 min,  0.037 sec
     gradient                   ...        0 min,  0.081 sec
 * total energy  :   -83.5817902 Eh     change       -0.1344856E-01 Eh
   gradient norm :     0.0684181 Eh/α   predicted    -0.9918479E-02 ( -26.25%)
   displ. norm   :     0.3650644 α      lambda       -0.9332499E-02
   maximum displ.:     0.1770369 α      in ANC's #23, #20, #18, ...

........................................................................
.............................. CYCLE    3 ..............................
........................................................................
   1    -84.3040521 -0.843041E+02  0.248E-01    0.25       0.0  T
   2    -83.9322257  0.371826E+00  0.179E+00    0.33       1.0  T
   3    -84.3067599 -0.374534E+00  0.170E-01    0.19       1.0  T
   4    -84.3097435 -0.298360E-02  0.673E-02    0.13       1.0  T
   5    -84.3097590 -0.155224E-04  0.740E-02    0.09       1.0  T
   6    -84.3103310 -0.571978E-03  0.214E-02    0.10       1.0  T
   7    -84.3103643 -0.333169E-04  0.112E-02    0.11       1.4  T
   8    -84.3103749 -0.105734E-04  0.549E-03    0.11       2.8  T
   9    -84.3103785 -0.360572E-05  0.477E-04    0.11      32.4  T
  10    -84.3103785 -0.185569E-07  0.190E-04    0.11      81.0  T
  11    -84.3103785 -0.157418E-08  0.108E-04    0.11     142.9  T
     SCC iter.                  ...        0 min,  0.037 sec
     gradient                   ...        0 min,  0.080 sec
 * total energy  :   -83.5873704 Eh     change       -0.5580185E-02 Eh
   gradient norm :     0.0193148 Eh/α   predicted    -0.5289554E-02 (  -5.21%)
   displ. norm   :     0.2695888 α      lambda       -0.1906028E-02
   maximum displ.:     0.1195085 α      in ANC's #23, #18, #20, ...

........................................................................
.............................. CYCLE    4 ..............................
........................................................................
   1    -84.3104388 -0.843104E+02  0.106E-01    0.15       0.0  T
   2    -84.0096937  0.300745E+00  0.157E+00    0.12       1.0  T
   3    -84.3116808 -0.301987E+00  0.331E-02    0.12       1.0  T
   4    -84.3117630 -0.822156E-04  0.250E-02    0.11       1.0  T
   5    -84.3115457  0.217323E-03  0.484E-02    0.10       1.0  T
   6    -84.3117286 -0.182883E-03  0.267E-02    0.10       1.0  T
   7    -84.3118009 -0.723055E-04  0.110E-02    0.11       1.4  T
   8    -84.3118148 -0.139307E-04  0.234E-03    0.11       6.6  T
   9    -84.3118152 -0.400636E-06  0.140E-03    0.11      11.0  T
  10    -84.3118154 -0.209631E-06  0.434E-04    0.11      35.5  T
  11    -84.3118154 -0.220862E-07  0.312E-05    0.11     494.0  T
  12    -84.3118154  0.881215E-10  0.405E-05    0.11     380.9  T
     SCC iter.                  ...        0 min,  0.043 sec
     gradient                   ...        0 min,  0.080 sec
 * total energy  :   -83.5888838 Eh     change       -0.1513467E-02 Eh
   gradient norm :     0.0182112 Eh/α   predicted    -0.1022291E-02 ( -32.45%)
   displ. norm   :     0.4496281 α      lambda       -0.2542938E-02
   maximum displ.:     0.1698885 α      in ANC's #23, #18, #5, ...

........................................................................
.............................. CYCLE    5 ..............................
........................................................................
   1    -84.3092870 -0.843093E+02  0.125E-01    0.16       0.0  T
   2    -83.9897313  0.319556E+00  0.163E+00    0.13       1.0  T
   3    -84.3107781 -0.321047E+00  0.425E-02    0.12       1.0  T
   4    -84.3104390  0.339116E-03  0.697E-02    0.10       1.0  T
   5    -84.3098537  0.585305E-03  0.940E-02    0.09       1.0  T
   6    -84.3107727 -0.918981E-03  0.336E-02    0.11       1.0  T
   7    -84.3108868 -0.114111E-03  0.135E-02    0.11       1.1  T
   8    -84.3109076 -0.208443E-04  0.298E-03    0.11       5.2  T
   9    -84.3109085 -0.844281E-06  0.118E-03    0.11      13.0  T
  10    -84.3109086 -0.138054E-06  0.423E-04    0.11      36.5  T
  11    -84.3109086 -0.178311E-07  0.147E-04    0.11     105.2  T
  12    -84.3109086 -0.164698E-08  0.846E-05    0.11     182.4  T
     SCC iter.                  ...        0 min,  0.041 sec
     gradient                   ...        0 min,  0.080 sec
 * total energy  :   -83.5905534 Eh     change       -0.1669599E-02 Eh
   gradient norm :     0.0275728 Eh/α   predicted    -0.1528565E-02 (  -8.45%)
   displ. norm   :     0.2700140 α      lambda       -0.1197831E-02
   maximum displ.:     0.1040384 α      in ANC's #5, #12, #21, ...

........................................................................
.............................. CYCLE    6 ..............................
........................................................................
   1    -84.3117023 -0.843117E+02  0.824E-02    0.14       0.0  T
   2    -84.1345059  0.177196E+00  0.121E+00    0.05       1.0  T
   3    -84.3122143 -0.177708E+00  0.403E-02    0.13       1.0  T
   4    -84.3123970 -0.182693E-03  0.137E-02    0.11       1.1  T
   5    -84.3122824  0.114663E-03  0.321E-02    0.11       1.0  T
   6    -84.3123544 -0.720662E-04  0.197E-02    0.11       1.0  T
   7    -84.3123917 -0.372735E-04  0.911E-03    0.11       1.7  T
   8    -84.3124009 -0.921586E-05  0.256E-03    0.12       6.0  T
   9    -84.3124016 -0.706245E-06  0.757E-04    0.12      20.4  T
  10    -84.3124017 -0.277215E-07  0.562E-04    0.12      27.4  T
  11    -84.3124017 -0.348531E-07  0.146E-04    0.12     105.6  T
  12    -84.3124017 -0.248602E-08  0.193E-05    0.12     797.5  T
     SCC iter.                  ...        0 min,  0.041 sec
     gradient                   ...        0 min,  0.080 sec
 * total energy  :   -83.5914790 Eh     change       -0.9256292E-03 Eh
   gradient norm :     0.0221805 Eh/α   predicted    -0.6425952E-03 ( -30.58%)
   displ. norm   :     0.3536080 α      lambda       -0.1634241E-02
   maximum displ.:     0.1519994 α      in ANC's #4, #5, #13, ...

........................................................................
.............................. CYCLE    7 ..............................
........................................................................
   1    -84.3160803 -0.843161E+02  0.952E-02    0.15       0.0  T
   2    -84.1001888  0.215892E+00  0.133E+00    0.06       1.0  T
   3    -84.3164571 -0.216268E+00  0.674E-02    0.14       1.0  T
   4    -84.3168946 -0.437514E-03  0.300E-02    0.13       1.0  T
   5    -84.3169968 -0.102182E-03  0.417E-03    0.12       3.7  T
   6    -84.3169841  0.127160E-04  0.103E-02    0.12       1.5  T
   7    -84.3169942 -0.100630E-04  0.475E-03    0.12       3.3  T
   8    -84.3169967 -0.249889E-05  0.146E-03    0.12      10.6  T
   9    -84.3169969 -0.239844E-06  0.358E-04    0.12      43.1  T
  10    -84.3169969 -0.828398E-08  0.237E-04    0.12      65.1  T
  11    -84.3169969 -0.516287E-08  0.111E-04    0.12     139.1  T
  12    -84.3169969 -0.142772E-08  0.180E-05    0.12     855.6  T
     SCC iter.                  ...        0 min,  0.040 sec
     gradient                   ...        0 min,  0.080 sec
 * total energy  :   -83.5925117 Eh     change       -0.1032652E-02 Eh
   gradient norm :     0.0122749 Eh/α   predicted    -0.9192956E-03 ( -10.98%)
   displ. norm   :     0.3388632 α      lambda       -0.8551635E-03
   maximum displ.:     0.1374923 α      in ANC's #4, #5, #1, ...

........................................................................
.............................. CYCLE    8 ..............................
........................................................................
   1    -84.3136140 -0.843136E+02  0.865E-02    0.15       0.0  T
   2    -84.1345694  0.179045E+00  0.121E+00    0.05       1.0  T
   3    -84.3141342 -0.179565E+00  0.445E-02    0.14       1.0  T
   4    -84.3143489 -0.214668E-03  0.155E-02    0.12       1.0  T
   5    -84.3142062  0.142748E-03  0.354E-02    0.11       1.0  T
   6    -84.3143008 -0.946313E-04  0.208E-02    0.12       1.0  T
   7    -84.3143440 -0.432188E-04  0.861E-03    0.12       1.8  T
   8    -84.3143525 -0.847111E-05  0.182E-03    0.12       8.5  T
   9    -84.3143528 -0.309103E-06  0.781E-04    0.12      19.7  T
  10    -84.3143528 -0.396501E-07  0.502E-04    0.12      30.8  T
  11    -84.3143529 -0.258691E-07  0.180E-04    0.12      85.9  T
  12    -84.3143529 -0.346783E-08  0.537E-05    0.12     287.3  T
     SCC iter.                  ...        0 min,  0.040 sec
     gradient                   ...        0 min,  0.081 sec
 * total energy  :   -83.5930032 Eh     change       -0.4914836E-03 Eh
   gradient norm :     0.0114647 Eh/α   predicted    -0.4767200E-03 (  -3.00%)
   displ. norm   :     0.2617206 α      lambda       -0.6897161E-03
   maximum displ.:     0.1244502 α      in ANC's #4, #1, #13, ...

........................................................................
.............................. CYCLE    9 ..............................
........................................................................
   1    -84.3157368 -0.843157E+02  0.205E-02    0.12       0.0  T
   2    -84.3156589  0.778303E-04  0.314E-02    0.13       1.0  T
   3    -84.3154703  0.188600E-03  0.485E-02    0.11       1.0  T
   4    -84.3157395 -0.269185E-03  0.126E-02    0.13       1.2  T
   5    -84.3157528 -0.133220E-04  0.205E-03    0.12       7.5  T
   6    -84.3157530 -0.211405E-06  0.860E-04    0.12      17.9  T
   7    -84.3157531 -0.785300E-07  0.204E-04    0.12      75.8  T
   8    -84.3157531 -0.421544E-08  0.299E-05    0.12     515.8  T
   9    -84.3157531 -0.356977E-10  0.631E-06    0.12    2444.3  T
     SCC iter.                  ...        0 min,  0.031 sec
     gradient                   ...        0 min,  0.081 sec
 * total energy  :   -83.5934139 Eh     change       -0.4106974E-03 Eh
   gradient norm :     0.0098871 Eh/α   predicted    -0.3684893E-03 ( -10.28%)
   displ. norm   :     0.2363613 α      lambda       -0.3180651E-03
   maximum displ.:     0.1112271 α      in ANC's #1, #4, #5, ...

........................................................................
.............................. CYCLE   10 ..............................
........................................................................
   1    -84.3134662 -0.843135E+02  0.332E-02    0.11       0.0  T
   2    -84.3114516  0.201460E-02  0.136E-01    0.19       1.0  T
   3    -84.3135784 -0.212681E-02  0.731E-03    0.12       2.1  T
   4    -84.3135778  0.587244E-06  0.748E-03    0.12       2.1  T
   5    -84.3135807 -0.288424E-05  0.372E-03    0.12       4.1  T
   6    -84.3135810 -0.274732E-06  0.350E-03    0.12       4.4  T
   7    -84.3135824 -0.144872E-05  0.478E-04    0.12      32.3  T
   8    -84.3135825 -0.261076E-07  0.612E-05    0.12     252.3  T
   9    -84.3135825 -0.388525E-09  0.101E-05    0.12    1527.9  T
     SCC iter.                  ...        0 min,  0.031 sec
     gradient                   ...        0 min,  0.081 sec
 * total energy  :   -83.5936537 Eh     change       -0.2397969E-03 Eh
   gradient norm :     0.0097089 Eh/α   predicted    -0.1679187E-03 ( -29.97%)
   displ. norm   :     0.3546504 α      lambda       -0.4591589E-03
   maximum displ.:     0.2007575 α      in ANC's #1, #4, #5, ...

........................................................................
.............................. CYCLE   11 ..............................
........................................................................
   1    -84.3133098 -0.843133E+02  0.652E-02    0.15       0.0  T
   2    -84.1842631  0.129047E+00  0.103E+00    0.03       1.0  T
   3    -84.3137949 -0.129532E+00  0.199E-02    0.13       1.0  T
   4    -84.3138464 -0.514880E-04  0.896E-03    0.12       1.7  T
   5    -84.3138143  0.321207E-04  0.187E-02    0.12       1.0  T
   6    -84.3138116  0.271571E-05  0.184E-02    0.12       1.0  T
   7    -84.3138416 -0.299957E-04  0.929E-03    0.12       1.7  T
   8    -84.3138511 -0.955703E-05  0.251E-03    0.12       6.2  T
   9    -84.3138515 -0.327598E-06  0.184E-03    0.12       8.4  T
  10    -84.3138518 -0.359633E-06  0.584E-04    0.12      26.4  T
  11    -84.3138519 -0.397069E-07  0.628E-05    0.12     245.7  T
  12    -84.3138519 -0.397492E-09  0.231E-05    0.12     668.1  T
     SCC iter.                  ...        0 min,  0.041 sec
     gradient                   ...        0 min,  0.080 sec
 * total energy  :   -83.5939540 Eh     change       -0.3003283E-03 Eh
   gradient norm :     0.0082342 Eh/α   predicted    -0.2584595E-03 ( -13.94%)
   displ. norm   :     0.3500844 α      lambda       -0.3651110E-03
   maximum displ.:     0.1986939 α      in ANC's #1, #4, #5, ...

........................................................................
.............................. CYCLE   12 ..............................
........................................................................
   1    -84.3125957 -0.843126E+02  0.668E-02    0.10       0.0  T
   2    -84.3090654  0.353031E-02  0.197E-01    0.27       1.0  T
   3    -84.3126361 -0.357073E-02  0.638E-02    0.15       1.0  T
   4    -84.3130889 -0.452757E-03  0.183E-02    0.12       1.0  T
   5    -84.3131198 -0.309516E-04  0.782E-03    0.12       2.0  T
   6    -84.3131261 -0.624182E-05  0.304E-03    0.12       5.1  T
   7    -84.3131267 -0.623146E-06  0.166E-03    0.12       9.3  T
   8    -84.3131270 -0.326419E-06  0.136E-04    0.12     113.4  T
   9    -84.3131270 -0.207726E-08  0.167E-05    0.12     922.0  T
     SCC iter.                  ...        0 min,  0.031 sec
     gradient                   ...        0 min,  0.080 sec
 * total energy  :   -83.5942178 Eh     change       -0.2637688E-03 Eh
   gradient norm :     0.0120965 Eh/α   predicted    -0.2049345E-03 ( -22.31%)
   displ. norm   :     0.3922736 α      lambda       -0.3980476E-03
   maximum displ.:     0.2397675 α      in ANC's #1, #4, #5, ...

........................................................................
.............................. CYCLE   13 ..............................
........................................................................
   1    -84.3140991 -0.843141E+02  0.251E-02    0.13       0.0  T
   2    -84.3067116  0.738753E-02  0.249E-01    0.07       1.0  T
   3    -84.3141611 -0.744955E-02  0.871E-03    0.13       1.8  T
   4    -84.3141701 -0.901294E-05  0.247E-03    0.12       6.3  T
   5    -84.3141674  0.276675E-05  0.519E-03    0.12       3.0  T
   6    -84.3141698 -0.241467E-05  0.207E-03    0.12       7.5  T
   7    -84.3141703 -0.462331E-06  0.617E-04    0.12      25.0  T
   8    -84.3141703 -0.450209E-07  0.694E-05    0.12     222.4  T
   9    -84.3141703 -0.413493E-09  0.281E-05    0.12     549.5  T
     SCC iter.                  ...        0 min,  0.032 sec
     gradient                   ...        0 min,  0.080 sec
 * total energy  :   -83.5945444 Eh     change       -0.3266358E-03 Eh
   gradient norm :     0.0102616 Eh/α   predicted    -0.2296511E-03 ( -29.69%)
   displ. norm   :     0.4528680 α      lambda       -0.4778102E-03
   maximum displ.:     0.2845525 α      in ANC's #1, #5, #4, ...

........................................................................
.............................. CYCLE   14 ..............................
........................................................................
   1    -84.3162852 -0.843163E+02  0.288E-02    0.13       0.0  T
   2    -84.3070975  0.918764E-02  0.276E-01    0.07       1.0  T
   3    -84.3163322 -0.923461E-02  0.186E-02    0.13       1.0  T
   4    -84.3163625 -0.303171E-04  0.865E-03    0.13       1.8  T
   5    -84.3163701 -0.760905E-05  0.133E-03    0.12      11.6  T
   6    -84.3163702 -0.888022E-07  0.247E-04    0.12      62.6  T
   7    -84.3163702 -0.554955E-08  0.330E-05    0.12     468.2  T
   8    -84.3163702  0.643425E-09  0.793E-05    0.12     194.7  T
     SCC iter.                  ...        0 min,  0.030 sec
     gradient                   ...        0 min,  0.079 sec
 * total energy  :   -83.5949193 Eh     change       -0.3748745E-03 Eh
   gradient norm :     0.0073483 Eh/α   predicted    -0.2879022E-03 ( -23.20%)
   displ. norm   :     0.5695965 α      lambda       -0.4415239E-03
   maximum displ.:     0.3446725 α      in ANC's #1, #5, #4, ...

........................................................................
.............................. CYCLE   15 ..............................
........................................................................
   1    -84.3144658 -0.843145E+02  0.130E-02    0.12       0.0  T
   2    -84.3140800  0.385769E-03  0.596E-02    0.14       1.0  T
   3    -84.3144773 -0.397274E-03  0.796E-03    0.12       1.9  T
   4    -84.3144782 -0.879625E-06  0.635E-03    0.12       2.4  T
   5    -84.3144811 -0.286442E-05  0.181E-03    0.12       8.5  T
   6    -84.3144813 -0.238322E-06  0.414E-04    0.12      37.3  T
   7    -84.3144813 -0.158446E-07  0.764E-05    0.12     202.0  T
   8    -84.3144813 -0.304937E-09  0.225E-05    0.12     685.9  T
     SCC iter.                  ...        0 min,  0.028 sec
     gradient                   ...        0 min,  0.080 sec
 * total energy  :   -83.5952594 Eh     change       -0.3400981E-03 Eh
   gradient norm :     0.0095350 Eh/α   predicted    -0.2923888E-03 ( -14.03%)
   displ. norm   :     0.5339439 α      lambda       -0.5319807E-03
   maximum displ.:     0.3560864 α      in ANC's #1, #5, #4, ...

........................................................................
.............................. CYCLE   16 ..............................
........................................................................
   1    -84.3192274 -0.843192E+02  0.434E-02    0.14       0.0  T
   2    -84.2918605  0.273668E-01  0.473E-01    0.04       1.0  T
   3    -84.3193186 -0.274581E-01  0.322E-02    0.13       1.0  T
   4    -84.3193439 -0.252704E-04  0.265E-02    0.13       1.0  T
   5    -84.3194021 -0.582527E-04  0.126E-02    0.13       1.2  T
   6    -84.3194172 -0.150805E-04  0.431E-03    0.13       3.6  T
   7    -84.3194189 -0.175028E-05  0.188E-03    0.12       8.2  T
   8    -84.3194193 -0.353801E-06  0.713E-04    0.12      21.6  T
   9    -84.3194193 -0.541269E-07  0.177E-04    0.12      87.2  T
  10    -84.3194193 -0.339463E-08  0.574E-06    0.12    2686.3  T
     SCC iter.                  ...        0 min,  0.033 sec
     gradient                   ...        0 min,  0.077 sec
 * total energy  :   -83.5956044 Eh     change       -0.3449916E-03 Eh
   gradient norm :     0.0107785 Eh/α   predicted    -0.3418221E-03 (  -0.92%)
   displ. norm   :     0.5986032 α      lambda       -0.4476251E-03
   maximum displ.:     0.3706380 α      in ANC's #1, #4, #5, ...

........................................................................
.............................. CYCLE   17 ..............................
........................................................................
   1    -84.3150960 -0.843151E+02  0.221E-02    0.12       0.0  T
   2    -84.3140657  0.103027E-02  0.983E-02    0.17       1.0  T
   3    -84.3151400 -0.107432E-02  0.916E-03    0.13       1.7  T
   4    -84.3151434 -0.333306E-05  0.547E-03    0.12       2.8  T
   5    -84.3151450 -0.162929E-05  0.101E-03    0.12      15.3  T
   6    -84.3151450  0.595429E-08  0.540E-04    0.12      28.6  T
   7    -84.3151450 -0.280376E-07  0.124E-04    0.12     124.7  T
   8    -84.3151450 -0.127537E-08  0.429E-05    0.12     359.6  T
     SCC iter.                  ...        0 min,  0.020 sec
     gradient                   ...        0 min,  0.043 sec
 * total energy  :   -83.5959436 Eh     change       -0.3392363E-03 Eh
   gradient norm :     0.0097185 Eh/α   predicted    -0.3040134E-03 ( -10.38%)
   displ. norm   :     0.4501685 α      lambda       -0.5306709E-03
   maximum displ.:     0.2719114 α      in ANC's #1, #12, #4, ...

........................................................................
.............................. CYCLE   18 ..............................
........................................................................
   1    -84.3168491 -0.843168E+02  0.387E-02    0.14       0.0  T
   2    -84.2960675  0.207816E-01  0.416E-01    0.05       1.0  T
   3    -84.3169665 -0.208990E-01  0.204E-02    0.13       1.0  T
   4    -84.3169926 -0.261701E-04  0.127E-02    0.13       1.2  T
   5    -84.3170044 -0.117855E-04  0.653E-03    0.13       2.4  T
   6    -84.3170088 -0.435689E-05  0.143E-03    0.13      10.8  T
   7    -84.3170090 -0.188967E-06  0.591E-04    0.13      26.1  T
   8    -84.3170090 -0.322447E-07  0.234E-04    0.13      65.9  T
   9    -84.3170090 -0.582892E-08  0.521E-05    0.12     296.0  T
  10    -84.3170090 -0.219472E-09  0.211E-05    0.12     730.6  T
     SCC iter.                  ...        0 min,  0.024 sec
     gradient                   ...        0 min,  0.043 sec
 * total energy  :   -83.5962767 Eh     change       -0.3330749E-03 Eh
   gradient norm :     0.0092190 Eh/α   predicted    -0.3191115E-03 (  -4.19%)
   displ. norm   :     0.4642235 α      lambda       -0.4203206E-03
   maximum displ.:     0.2902175 α      in ANC's #1, #4, #12, ...

........................................................................
.............................. CYCLE   19 ..............................
........................................................................
   1    -84.3152588 -0.843153E+02  0.550E-02    0.15       0.0  T
   2    -84.2498411  0.654177E-01  0.738E-01    0.01       1.0  T
   3    -84.3155481 -0.657071E-01  0.240E-02    0.14       1.0  T
   4    -84.3156022 -0.540323E-04  0.101E-02    0.13       1.5  T
   5    -84.3156127 -0.105610E-04  0.183E-03    0.13       8.4  T
   6    -84.3156121  0.623158E-06  0.263E-03    0.13       5.9  T
   7    -84.3156127 -0.567798E-06  0.143E-03    0.13      10.8  T
   8    -84.3156129 -0.206459E-06  0.551E-04    0.13      28.0  T
   9    -84.3156129 -0.351982E-07  0.534E-05    0.13     288.7  T
  10    -84.3156129 -0.293497E-09  0.104E-05    0.13    1483.6  T
     SCC iter.                  ...        0 min,  0.024 sec
     gradient                   ...        0 min,  0.043 sec
 * total energy  :   -83.5965181 Eh     change       -0.2414032E-03 Eh
   gradient norm :     0.0104776 Eh/α   predicted    -0.2554516E-03 (   5.82%)
   displ. norm   :     0.3535653 α      lambda       -0.3334957E-03
   maximum displ.:     0.2279721 α      in ANC's #1, #4, #3, ...

........................................................................
.............................. CYCLE   20 ..............................
........................................................................
   1    -84.3169786 -0.843170E+02  0.336E-02    0.14       0.0  T
   2    -84.3056379  0.113408E-01  0.310E-01    0.06       1.0  T
   3    -84.3170481 -0.114102E-01  0.196E-02    0.14       1.0  T
   4    -84.3170861 -0.380530E-04  0.731E-03    0.13       2.1  T
   5    -84.3170911 -0.496745E-05  0.126E-03    0.13      12.2  T
   6    -84.3170910  0.656146E-07  0.968E-04    0.13      15.9  T
   7    -84.3170911 -0.105755E-06  0.218E-04    0.13      70.6  T
   8    -84.3170911 -0.504156E-08  0.675E-05    0.13     228.4  T
   9    -84.3170911 -0.339170E-09  0.363E-05    0.13     425.6  T
     SCC iter.                  ...        0 min,  0.022 sec
     gradient                   ...        0 min,  0.043 sec
 * total energy  :   -83.5967674 Eh     change       -0.2492755E-03 Eh
   gradient norm :     0.0099161 Eh/α   predicted    -0.1875956E-03 ( -24.74%)
   displ. norm   :     0.4335965 α      lambda       -0.4503630E-03
   maximum displ.:     0.2441163 α      in ANC's #1, #2, #12, ...
 * RMSD in coord.:     0.9488265 α      energy gain  -0.2842576E-01 Eh

generating ANC from model Hessian ...
Using Lindh-Hessian (1995)
 Shifting diagonal of input Hessian by   9.774606572277635E-003
 Lowest  eigenvalues of input Hessian
    0.000000    0.000000    0.000000    0.000000    0.000000    0.000000
    0.010000    0.010058    0.010409    0.010552    0.011557    0.012453
    0.012605    0.012966    0.013335    0.014063    0.014933    0.015211
 Highest eigenvalues
    1.950398    2.002699    2.134616    2.138758    2.266331    2.350013
 

........................................................................
.............................. CYCLE   21 ..............................
........................................................................
   1    -84.3199951 -0.843200E+02  0.864E-02    0.17       0.0  T
   2    -84.1511136  0.168881E+00  0.119E+00    0.04       1.0  T
   3    -84.3202789 -0.169165E+00  0.655E-02    0.16       1.0  T
   4    -84.3205591 -0.280114E-03  0.440E-02    0.15       1.0  T
   5    -84.3207059 -0.146854E-03  0.256E-02    0.14       1.0  T
   6    -84.3207805 -0.746270E-04  0.264E-03    0.13       5.9  T
   7    -84.3207812 -0.699586E-06  0.330E-04    0.13      46.7  T
   8    -84.3207812  0.286773E-07  0.601E-04    0.13      25.7  T
   9    -84.3207812  0.145398E-07  0.674E-04    0.13      22.9  T
  10    -84.3207812 -0.360669E-07  0.373E-04    0.13      41.3  T
  11    -84.3207812 -0.138884E-07  0.132E-04    0.13     117.1  T
  12    -84.3207812 -0.173580E-08  0.460E-05    0.13     335.4  T
     SCC iter.                  ...        0 min,  0.029 sec
     gradient                   ...        0 min,  0.072 sec
 * total energy  :   -83.5970949 Eh     change       -0.3275061E-03 Eh
   gradient norm :     0.0081839 Eh/α   predicted     0.0000000E+00 (-100.00%)
   displ. norm   :     0.0865234 α      lambda       -0.1924043E-03
   maximum displ.:     0.0389494 α      in ANC's #3, #2, #4, ...

........................................................................
.............................. CYCLE   22 ..............................
........................................................................
   1    -84.3202000 -0.843202E+02  0.235E-02    0.12       0.0  T
   2    -84.3191160  0.108402E-02  0.103E-01    0.18       1.0  T
   3    -84.3202376 -0.112164E-02  0.176E-02    0.14       1.0  T
   4    -84.3202708 -0.332129E-04  0.201E-03    0.13       7.7  T
   5    -84.3202701  0.667849E-06  0.275E-03    0.13       5.6  T
   6    -84.3202709 -0.743957E-06  0.145E-04    0.13     106.6  T
   7    -84.3202709 -0.261963E-09  0.104E-04    0.13     147.9  T
     SCC iter.                  ...        0 min,  0.026 sec
     gradient                   ...        0 min,  0.081 sec
 * total energy  :   -83.5972507 Eh     change       -0.1557849E-03 Eh
   gradient norm :     0.0037213 Eh/α   predicted    -0.9769965E-04 ( -37.29%)
   displ. norm   :     0.2429862 α      lambda       -0.3058603E-03
   maximum displ.:     0.1140576 α      in ANC's #3, #2, #4, ...

........................................................................
.............................. CYCLE   23 ..............................
........................................................................
   1    -84.3194259 -0.843194E+02  0.223E-02    0.12       0.0  T
   2    -84.3184747  0.951206E-03  0.965E-02    0.18       1.0  T
   3    -84.3194564 -0.981632E-03  0.180E-02    0.14       1.0  T
   4    -84.3194878 -0.313994E-04  0.463E-03    0.13       3.3  T
   5    -84.3194883 -0.544034E-06  0.284E-03    0.13       5.4  T
   6    -84.3194890 -0.707464E-06  0.206E-04    0.13      75.0  T
   7    -84.3194890  0.652619E-09  0.156E-04    0.13      99.2  T
   8    -84.3194890 -0.205057E-08  0.311E-05    0.13     496.5  T
     SCC iter.                  ...        0 min,  0.028 sec
     gradient                   ...        0 min,  0.081 sec
 * total energy  :   -83.5974725 Eh     change       -0.2218331E-03 Eh
   gradient norm :     0.0049333 Eh/α   predicted    -0.1619620E-03 ( -26.99%)
   displ. norm   :     0.3115638 α      lambda       -0.2519721E-03
   maximum displ.:     0.1503448 α      in ANC's #3, #2, #6, ...

........................................................................
.............................. CYCLE   24 ..............................
........................................................................
   1    -84.3187335 -0.843187E+02  0.182E-02    0.14       0.0  T
   2    -84.3179491  0.784401E-03  0.836E-02    0.11       1.0  T
   3    -84.3187046 -0.755546E-03  0.216E-02    0.14       1.0  T
   4    -84.3187516 -0.470055E-04  0.691E-03    0.13       2.2  T
   5    -84.3187556 -0.400173E-05  0.235E-03    0.13       6.6  T
   6    -84.3187561 -0.477005E-06  0.313E-04    0.13      49.2  T
   7    -84.3187561 -0.371989E-08  0.174E-04    0.13      88.7  T
   8    -84.3187561 -0.232306E-08  0.752E-05    0.13     205.2  T
     SCC iter.                  ...        0 min,  0.028 sec
     gradient                   ...        0 min,  0.081 sec
 * total energy  :   -83.5976800 Eh     change       -0.2074980E-03 Eh
   gradient norm :     0.0081604 Eh/α   predicted    -0.1382272E-03 ( -33.38%)
   displ. norm   :     0.4582086 α      lambda       -0.3548885E-03
   maximum displ.:     0.2221522 α      in ANC's #3, #2, #6, ...

........................................................................
.............................. CYCLE   25 ..............................
........................................................................
   1    -84.3175251 -0.843175E+02  0.519E-02    0.15       0.0  T
   2    -84.2826306  0.348945E-01  0.545E-01    0.03       1.0  T
   3    -84.3176522 -0.350215E-01  0.351E-02    0.15       1.0  T
   4    -84.3177589 -0.106699E-03  0.184E-02    0.14       1.0  T
   5    -84.3177916 -0.326965E-04  0.652E-03    0.14       2.4  T
   6    -84.3177958 -0.417974E-05  0.160E-03    0.13       9.6  T
   7    -84.3177960 -0.262395E-06  0.651E-04    0.13      23.7  T
   8    -84.3177961 -0.513289E-07  0.564E-05    0.13     273.7  T
   9    -84.3177961  0.133448E-08  0.123E-04    0.13     125.9  T
     SCC iter.                  ...        0 min,  0.031 sec
     gradient                   ...        0 min,  0.081 sec
 * total energy  :   -83.5979356 Eh     change       -0.2556008E-03 Eh
   gradient norm :     0.0109866 Eh/α   predicted    -0.2147022E-03 ( -16.00%)
   displ. norm   :     0.3081498 α      lambda       -0.2922819E-03
   maximum displ.:     0.1545170 α      in ANC's #3, #2, #4, ...

........................................................................
.............................. CYCLE   26 ..............................
........................................................................
   1    -84.3186528 -0.843187E+02  0.562E-02    0.16       0.0  T
   2    -84.2676679  0.509849E-01  0.658E-01    0.02       1.0  T
   3    -84.3188891 -0.512212E-01  0.309E-02    0.15       1.0  T
   4    -84.3189824 -0.932692E-04  0.141E-02    0.14       1.1  T
   5    -84.3190037 -0.213351E-04  0.432E-03    0.14       3.6  T
   6    -84.3190045 -0.759215E-06  0.352E-03    0.14       4.4  T
   7    -84.3190056 -0.107845E-05  0.175E-03    0.14       8.8  T
   8    -84.3190059 -0.335852E-06  0.438E-04    0.14      35.2  T
   9    -84.3190059 -0.180561E-07  0.178E-04    0.14      86.5  T
  10    -84.3190059 -0.186876E-08  0.120E-04    0.14     128.2  T
     SCC iter.                  ...        0 min,  0.035 sec
     gradient                   ...        0 min,  0.081 sec
 * total energy  :   -83.5981646 Eh     change       -0.2290450E-03 Eh
   gradient norm :     0.0094783 Eh/α   predicted    -0.1600976E-03 ( -30.10%)
   displ. norm   :     0.3095764 α      lambda       -0.4062028E-03
   maximum displ.:     0.1553516 α      in ANC's #3, #2, #4, ...

........................................................................
.............................. CYCLE   27 ..............................
........................................................................
   1    -84.3219791 -0.843220E+02  0.649E-02    0.17       0.0  T
   2    -84.2488825  0.730966E-01  0.788E-01    0.01       1.0  T
   3    -84.3223091 -0.734266E-01  0.351E-02    0.16       1.0  T
   4    -84.3224312 -0.122085E-03  0.156E-02    0.15       1.0  T
   5    -84.3224602 -0.290647E-04  0.203E-03    0.14       7.6  T
   6    -84.3224559  0.436169E-05  0.640E-03    0.14       2.4  T
   7    -84.3224595 -0.358687E-05  0.312E-03    0.14       4.9  T
   8    -84.3224605 -0.102461E-05  0.934E-04    0.14      16.5  T
   9    -84.3224606 -0.682830E-07  0.509E-04    0.14      30.3  T
  10    -84.3224606 -0.170863E-07  0.326E-04    0.14      47.3  T
  11    -84.3224606 -0.114560E-07  0.692E-05    0.14     223.1  T
  12    -84.3224606 -0.524835E-09  0.110E-05    0.14    1403.2  T
     SCC iter.                  ...        0 min,  0.048 sec
     gradient                   ...        0 min,  0.080 sec
 * total energy  :   -83.5984330 Eh     change       -0.2684147E-03 Eh
   gradient norm :     0.0061362 Eh/α   predicted    -0.2225684E-03 ( -17.08%)
   displ. norm   :     0.5419920 α      lambda       -0.3362522E-03
   maximum displ.:     0.2700755 α      in ANC's #3, #2, #1, ...

........................................................................
.............................. CYCLE   28 ..............................
........................................................................
   1    -84.3199662 -0.843200E+02  0.673E-02    0.18       0.0  T
   2    -84.2597646  0.602016E-01  0.718E-01    0.02       1.0  T
   3    -84.3202499 -0.604853E-01  0.407E-02    0.17       1.0  T
   4    -84.3203938 -0.143972E-03  0.218E-02    0.16       1.0  T
   5    -84.3204464 -0.525530E-04  0.463E-03    0.15       3.3  T
   6    -84.3204450  0.136983E-05  0.543E-03    0.14       2.8  T
   7    -84.3204478 -0.276743E-05  0.240E-03    0.14       6.4  T
   8    -84.3204484 -0.618097E-06  0.656E-04    0.14      23.5  T
   9    -84.3204484 -0.430668E-07  0.223E-04    0.14      69.0  T
  10    -84.3204485 -0.340225E-08  0.137E-04    0.14     112.7  T
  11    -84.3204485 -0.176512E-08  0.544E-05    0.14     283.6  T
     SCC iter.                  ...        0 min,  0.039 sec
     gradient                   ...        0 min,  0.080 sec
 * total energy  :   -83.5986114 Eh     change       -0.1783463E-03 Eh
   gradient norm :     0.0123307 Eh/α   predicted    -0.2175163E-03 (  21.96%)
   displ. norm   :     0.1865850 α      lambda       -0.3058110E-03
   maximum displ.:     0.0818761 α      in ANC's #2, #1, #3, ...

........................................................................
.............................. CYCLE   29 ..............................
........................................................................
   1    -84.3216620 -0.843217E+02  0.229E-02    0.16       0.0  T
   2    -84.3194887  0.217331E-02  0.140E-01    0.10       1.0  T
   3    -84.3217112 -0.222254E-02  0.693E-03    0.15       2.2  T
   4    -84.3217155 -0.421117E-05  0.237E-03    0.15       6.5  T
   5    -84.3217150  0.491641E-06  0.238E-03    0.15       6.5  T
   6    -84.3217155 -0.563276E-06  0.644E-04    0.15      24.0  T
   7    -84.3217156 -0.450258E-07  0.919E-05    0.15     167.9  T
   8    -84.3217156 -0.739419E-09  0.267E-05    0.15     577.5  T
     SCC iter.                  ...        0 min,  0.028 sec
     gradient                   ...        0 min,  0.080 sec
 * total energy  :   -83.5988537 Eh     change       -0.2423354E-03 Eh
   gradient norm :     0.0079901 Eh/α   predicted    -0.1582284E-03 ( -34.71%)
   displ. norm   :     0.5051801 α      lambda       -0.4286384E-03
   maximum displ.:     0.2299218 α      in ANC's #3, #2, #1, ...

........................................................................
.............................. CYCLE   30 ..............................
........................................................................
   1    -84.3210904 -0.843211E+02  0.526E-02    0.18       0.0  T
   2    -84.3000755  0.210149E-01  0.429E-01    0.05       1.0  T
   3    -84.3212593 -0.211838E-01  0.312E-02    0.17       1.0  T
   4    -84.3213404 -0.810696E-04  0.168E-02    0.16       1.0  T
   5    -84.3213713 -0.309139E-04  0.271E-03    0.15       5.7  T
   6    -84.3213715 -0.216820E-06  0.209E-03    0.15       7.4  T
   7    -84.3213719 -0.384157E-06  0.100E-03    0.15      15.4  T
   8    -84.3213720 -0.112113E-06  0.193E-04    0.15      80.1  T
   9    -84.3213720 -0.411057E-08  0.143E-05    0.15    1076.3  T
     SCC iter.                  ...        0 min,  0.033 sec
     gradient                   ...        0 min,  0.080 sec
 * total energy  :   -83.5991894 Eh     change       -0.3357178E-03 Eh
   gradient norm :     0.0064763 Eh/α   predicted    -0.2690351E-03 ( -19.86%)
   displ. norm   :     0.4890262 α      lambda       -0.3296978E-03
   maximum displ.:     0.2274569 α      in ANC's #1, #3, #2, ...

........................................................................
.............................. CYCLE   31 ..............................
........................................................................
   1    -84.3211480 -0.843211E+02  0.497E-02    0.18       0.0  T
   2    -84.3073275  0.138205E-01  0.350E-01    0.07       1.0  T
   3    -84.3212880 -0.139605E-01  0.300E-02    0.17       1.0  T
   4    -84.3213595 -0.715604E-04  0.168E-02    0.16       1.0  T
   5    -84.3213883 -0.287244E-04  0.452E-03    0.16       3.4  T
   6    -84.3213903 -0.205166E-05  0.866E-04    0.15      17.8  T
   7    -84.3213904 -0.291104E-07  0.664E-04    0.15      23.2  T
   8    -84.3213904 -0.502192E-07  0.107E-04    0.15     144.2  T
   9    -84.3213904 -0.782450E-09  0.695E-05    0.15     222.1  T
     SCC iter.                  ...        0 min,  0.031 sec
     gradient                   ...        0 min,  0.081 sec
 * total energy  :   -83.5994303 Eh     change       -0.2408804E-03 Eh
   gradient norm :     0.0053643 Eh/α   predicted    -0.2042786E-03 ( -15.20%)
   displ. norm   :     0.4262392 α      lambda       -0.2268662E-03
   maximum displ.:     0.2172096 α      in ANC's #1, #4, #3, ...

........................................................................
.............................. CYCLE   32 ..............................
........................................................................
   1    -84.3221445 -0.843221E+02  0.412E-02    0.18       0.0  T
   2    -84.3156967  0.644785E-02  0.242E-01    0.09       1.0  T
   3    -84.3222515 -0.655484E-02  0.224E-02    0.17       1.0  T
   4    -84.3222946 -0.431186E-04  0.112E-02    0.16       1.4  T
   5    -84.3223076 -0.129377E-04  0.198E-03    0.16       7.8  T
   6    -84.3223078 -0.243319E-06  0.865E-04    0.16      17.8  T
   7    -84.3223079 -0.627225E-07  0.415E-04    0.16      37.2  T
   8    -84.3223079 -0.196692E-07  0.514E-05    0.16     300.4  T
   9    -84.3223079 -0.102389E-09  0.386E-05    0.16     399.3  T
     SCC iter.                  ...        0 min,  0.031 sec
     gradient                   ...        0 min,  0.080 sec
 * total energy  :   -83.5996168 Eh     change       -0.1864261E-03 Eh
   gradient norm :     0.0046544 Eh/α   predicted    -0.1340556E-03 ( -28.09%)
   displ. norm   :     0.7115188 α      lambda       -0.2998961E-03
   maximum displ.:     0.3653815 α      in ANC's #1, #3, #4, ...

........................................................................
.............................. CYCLE   33 ..............................
........................................................................
   1    -84.3196344 -0.843196E+02  0.559E-02    0.20       0.0  T
   2    -84.3080877  0.115466E-01  0.325E-01    0.07       1.0  T
   3    -84.3198195 -0.117317E-01  0.317E-02    0.19       1.0  T
   4    -84.3199018 -0.823017E-04  0.168E-02    0.18       1.0  T
   5    -84.3199315 -0.297619E-04  0.200E-03    0.16       7.7  T
   6    -84.3199305  0.107548E-05  0.319E-03    0.16       4.8  T
   7    -84.3199315 -0.103819E-05  0.979E-04    0.16      15.8  T
   8    -84.3199316 -0.101686E-06  0.235E-04    0.16      65.6  T
   9    -84.3199316 -0.611020E-08  0.168E-05    0.16     918.4  T
  10    -84.3199316 -0.217426E-11  0.753E-06    0.16    2048.1  T
     SCC iter.                  ...        0 min,  0.034 sec
     gradient                   ...        0 min,  0.080 sec
 * total energy  :   -83.5997532 Eh     change       -0.1364382E-03 Eh
   gradient norm :     0.0113420 Eh/α   predicted    -0.2258639E-03 (  65.54%)
   displ. norm   :     0.3454661 α      lambda       -0.5330016E-03
   maximum displ.:     0.2137888 α      in ANC's #1, #4, #3, ...

........................................................................
.............................. CYCLE   34 ..............................
........................................................................
   1    -84.3256144 -0.843256E+02  0.198E-02    0.17       0.0  T
   2    -84.3254256  0.188813E-03  0.440E-02    0.14       1.0  T
   3    -84.3256180 -0.192379E-03  0.136E-02    0.17       1.1  T
   4    -84.3256302 -0.121786E-04  0.438E-03    0.17       3.5  T
   5    -84.3256306 -0.479236E-06  0.655E-04    0.17      23.5  T
   6    -84.3256306 -0.112770E-07  0.116E-04    0.17     133.1  T
   7    -84.3256306 -0.189431E-09  0.504E-05    0.17     305.9  T
     SCC iter.                  ...        0 min,  0.024 sec
     gradient                   ...        0 min,  0.081 sec
 * total energy  :   -83.6000005 Eh     change       -0.2473382E-03 Eh
   gradient norm :     0.0089315 Eh/α   predicted    -0.2983087E-03 (  20.61%)
   displ. norm   :     0.4523114 α      lambda       -0.2258413E-03
   maximum displ.:     0.2547149 α      in ANC's #1, #4, #3, ...

........................................................................
.............................. CYCLE   35 ..............................
........................................................................
   1    -84.3235495 -0.843235E+02  0.292E-02    0.19       0.0  T
   2    -84.3220804  0.146906E-02  0.120E-01    0.12       1.0  T
   3    -84.3236247 -0.154431E-02  0.953E-03    0.18       1.6  T
   4    -84.3236344 -0.970841E-05  0.268E-03    0.17       5.8  T
   5    -84.3236333  0.113943E-05  0.357E-03    0.17       4.3  T
   6    -84.3236346 -0.128217E-05  0.775E-04    0.17      19.9  T
   7    -84.3236346 -0.648426E-07  0.683E-05    0.17     225.8  T
   8    -84.3236346 -0.194774E-09  0.237E-05    0.17     649.9  T
     SCC iter.                  ...        0 min,  0.027 sec
     gradient                   ...        0 min,  0.081 sec
 * total energy  :   -83.6001830 Eh     change       -0.1824828E-03 Eh
   gradient norm :     0.0080876 Eh/α   predicted    -0.1360289E-03 ( -25.46%)
   displ. norm   :     0.4528177 α      lambda       -0.3482689E-03
   maximum displ.:     0.2738515 α      in ANC's #1, #4, #3, ...

........................................................................
.............................. CYCLE   36 ..............................
........................................................................
   1    -84.3221552 -0.843222E+02  0.126E-02    0.17       0.0  T
   2    -84.3221587 -0.345996E-05  0.760E-03    0.17       2.0  T
   3    -84.3221556  0.304070E-05  0.776E-03    0.18       2.0  T
   4    -84.3221573 -0.173255E-05  0.585E-03    0.17       2.6  T
   5    -84.3221600 -0.267953E-05  0.137E-03    0.17      11.3  T
   6    -84.3221602 -0.170178E-06  0.162E-04    0.17      95.0  T
   7    -84.3221602 -0.783416E-09  0.546E-05    0.17     282.8  T
     SCC iter.                  ...        0 min,  0.024 sec
     gradient                   ...        0 min,  0.081 sec
 * total energy  :   -83.6004229 Eh     change       -0.2399311E-03 Eh
   gradient norm :     0.0065719 Eh/α   predicted    -0.2098400E-03 ( -12.54%)
   displ. norm   :     0.4172650 α      lambda       -0.2357874E-03
   maximum displ.:     0.2649399 α      in ANC's #1, #4, #3, ...

........................................................................
.............................. CYCLE   37 ..............................
........................................................................
   1    -84.3219718 -0.843220E+02  0.996E-03    0.18       0.0  T
   2    -84.3219397  0.321478E-04  0.195E-02    0.16       1.0  T
   3    -84.3219757 -0.360323E-04  0.530E-03    0.18       2.9  T
   4    -84.3219778 -0.211799E-05  0.189E-03    0.17       8.2  T
   5    -84.3219779 -0.174063E-07  0.397E-04    0.17      38.9  T
   6    -84.3219779 -0.218229E-08  0.123E-04    0.17     125.2  T
   7    -84.3219779 -0.468006E-09  0.463E-05    0.17     333.6  T
     SCC iter.                  ...        0 min,  0.024 sec
     gradient                   ...        0 min,  0.081 sec
 * total energy  :   -83.6006131 Eh     change       -0.1901275E-03 Eh
   gradient norm :     0.0072585 Eh/α   predicted    -0.1384249E-03 ( -27.19%)
   displ. norm   :     0.4393108 α      lambda       -0.3394769E-03
   maximum displ.:     0.2915598 α      in ANC's #1, #4, #22, ...

........................................................................
.............................. CYCLE   38 ..............................
........................................................................
   1    -84.3243828 -0.843244E+02  0.157E-02    0.17       0.0  T
   2    -84.3243174  0.654517E-04  0.296E-02    0.19       1.0  T
   3    -84.3243989 -0.815196E-04  0.525E-03    0.17       2.9  T
   4    -84.3243990 -0.108581E-06  0.352E-03    0.17       4.4  T
   5    -84.3243993 -0.308328E-06  0.771E-04    0.17      20.0  T
   6    -84.3243994 -0.450066E-07  0.311E-04    0.17      49.6  T
   7    -84.3243994 -0.734079E-08  0.708E-05    0.17     217.9  T
   8    -84.3243994 -0.117609E-09  0.189E-05    0.17     816.3  T
     SCC iter.                  ...        0 min,  0.031 sec
     gradient                   ...        0 min,  0.081 sec
 * total energy  :   -83.6008067 Eh     change       -0.1936393E-03 Eh
   gradient norm :     0.0075047 Eh/α   predicted    -0.2024979E-03 (   4.57%)
   displ. norm   :     0.6833881 α      lambda       -0.3472429E-03
   maximum displ.:     0.4385932 α      in ANC's #1, #4, #3, ...

........................................................................
.............................. CYCLE   39 ..............................
........................................................................
   1    -84.3209262 -0.843209E+02  0.366E-02    0.21       0.0  T
   2    -84.3194731  0.145309E-02  0.122E-01    0.12       1.0  T
   3    -84.3210285 -0.155536E-02  0.142E-02    0.19       1.1  T
   4    -84.3210468 -0.183262E-04  0.471E-03    0.18       3.3  T
   5    -84.3210452  0.162542E-05  0.488E-03    0.18       3.2  T
   6    -84.3210473 -0.212926E-05  0.186E-03    0.18       8.3  T
   7    -84.3210477 -0.353259E-06  0.273E-04    0.18      56.4  T
   8    -84.3210477 -0.774405E-08  0.528E-05    0.18     292.3  T
   9    -84.3210477 -0.206697E-09  0.130E-05    0.18    1186.2  T
     SCC iter.                  ...        0 min,  0.032 sec
     gradient                   ...        0 min,  0.081 sec
 * total energy  :   -83.6009947 Eh     change       -0.1879776E-03 Eh
   gradient norm :     0.0088735 Eh/α   predicted    -0.2547068E-03 (  35.50%)
   displ. norm   :     0.1469053 α      lambda       -0.2113553E-03
   maximum displ.:     0.0940056 α      in ANC's #1, #4, #11, ...

........................................................................
.............................. CYCLE   40 ..............................
........................................................................
   1    -84.3244552 -0.843245E+02  0.112E-02    0.18       0.0  T
   2    -84.3244553 -0.617946E-07  0.675E-03    0.18       2.3  T
   3    -84.3244526  0.262629E-05  0.863E-03    0.18       1.8  T
   4    -84.3244580 -0.533031E-05  0.249E-03    0.18       6.2  T
   5    -84.3244580 -0.755984E-07  0.442E-04    0.18      34.9  T
   6    -84.3244580 -0.380741E-08  0.144E-04    0.18     107.3  T
   7    -84.3244580 -0.129060E-08  0.304E-05    0.18     506.9  T
     SCC iter.                  ...        0 min,  0.024 sec
     gradient                   ...        0 min,  0.081 sec
 * total energy  :   -83.6011394 Eh     change       -0.1447006E-03 Eh
   gradient norm :     0.0058853 Eh/α   predicted    -0.1079605E-03 ( -25.39%)
   displ. norm   :     0.4721531 α      lambda       -0.3151102E-03
   maximum displ.:     0.3310655 α      in ANC's #1, #4, #3, ...

........................................................................
.............................. CYCLE   41 ..............................
........................................................................
   1    -84.3248326 -0.843248E+02  0.243E-02    0.20       0.0  T
   2    -84.3245336  0.299033E-03  0.593E-02    0.15       1.0  T
   3    -84.3248778 -0.344225E-03  0.757E-03    0.19       2.0  T
   4    -84.3248828 -0.497104E-05  0.239E-03    0.18       6.5  T
   5    -84.3248828  0.184849E-07  0.120E-03    0.18      12.8  T
   6    -84.3248828 -0.660291E-07  0.263E-04    0.18      58.7  T
   7    -84.3248828 -0.148999E-08  0.100E-04    0.18     154.2  T
   8    -84.3248828 -0.648015E-09  0.313E-05    0.18     492.4  T
     SCC iter.                  ...        0 min,  0.028 sec
     gradient                   ...        0 min,  0.081 sec
 * total energy  :   -83.6013049 Eh     change       -0.1655033E-03 Eh
   gradient norm :     0.0071208 Eh/α   predicted    -0.1926849E-03 (  16.42%)
   displ. norm   :     0.5067507 α      lambda       -0.2568039E-03
   maximum displ.:     0.3454563 α      in ANC's #1, #4, #11, ...

........................................................................
.............................. CYCLE   42 ..............................
........................................................................
   1    -84.3222058 -0.843222E+02  0.115E-02    0.19       0.0  T
   2    -84.3222067 -0.906966E-06  0.629E-03    0.18       2.5  T
   3    -84.3222051  0.163117E-05  0.703E-03    0.19       2.2  T
   4    -84.3222088 -0.371352E-05  0.236E-03    0.19       6.5  T
   5    -84.3222090 -0.223660E-06  0.647E-04    0.19      23.9  T
   6    -84.3222091 -0.894332E-08  0.122E-04    0.19     126.6  T
   7    -84.3222091 -0.480910E-09  0.406E-05    0.19     380.4  T
     SCC iter.                  ...        0 min,  0.024 sec
     gradient                   ...        0 min,  0.081 sec
 * total energy  :   -83.6014896 Eh     change       -0.1847417E-03 Eh
   gradient norm :     0.0067555 Eh/α   predicted    -0.1613756E-03 ( -12.65%)
   displ. norm   :     0.4721135 α      lambda       -0.2440074E-03
   maximum displ.:     0.3232158 α      in ANC's #1, #4, #3, ...
 * RMSD in coord.:     1.2396254 α      energy gain  -0.4722269E-02 Eh

generating ANC from model Hessian ...
Using Lindh-Hessian (1995)
 Shifting diagonal of input Hessian by   9.799262517978701E-003
 Lowest  eigenvalues of input Hessian
    0.000000    0.000000    0.000000    0.000000    0.000000    0.000000
    0.010000    0.010096    0.010370    0.010638    0.011366    0.011884
    0.012652    0.012931    0.013788    0.014108    0.014732    0.015347
 Highest eigenvalues
    1.950080    1.982750    2.122291    2.138320    2.269826    2.353646
 

........................................................................
.............................. CYCLE   43 ..............................
........................................................................
   1    -84.3227480 -0.843227E+02  0.103E-02    0.19       0.0  T
   2    -84.3227480 -0.216753E-07  0.644E-03    0.18       2.4  T
   3    -84.3227481 -0.491378E-07  0.659E-03    0.19       2.3  T
   4    -84.3227510 -0.294487E-05  0.188E-03    0.19       8.2  T
   5    -84.3227511 -0.202416E-07  0.485E-04    0.19      31.8  T
   6    -84.3227511 -0.582493E-08  0.174E-04    0.19      88.8  T
   7    -84.3227511 -0.137032E-08  0.556E-05    0.19     277.5  T
     SCC iter.                  ...        0 min,  0.024 sec
     gradient                   ...        0 min,  0.081 sec
 * total energy  :   -83.6016705 Eh     change       -0.1809051E-03 Eh
   gradient norm :     0.0077169 Eh/α   predicted     0.0000000E+00 (-100.00%)
   displ. norm   :     0.0560993 α      lambda       -0.1280277E-03
   maximum displ.:     0.0263195 α      in ANC's #1, #3, #11, ...

........................................................................
.............................. CYCLE   44 ..............................
........................................................................
   1    -84.3253254 -0.843253E+02  0.130E-02    0.20       0.0  T
   2    -84.3252787  0.466891E-04  0.251E-02    0.17       1.0  T
   3    -84.3253379 -0.591291E-04  0.341E-03    0.19       4.5  T
   4    -84.3253386 -0.767114E-06  0.146E-03    0.19      10.6  T
   5    -84.3253386  0.176018E-07  0.684E-04    0.19      22.6  T
   6    -84.3253387 -0.352012E-07  0.601E-05    0.19     256.7  T
   7    -84.3253387 -0.278391E-10  0.275E-05    0.19     561.7  T
     SCC iter.                  ...        0 min,  0.024 sec
     gradient                   ...        0 min,  0.081 sec
 * total energy  :   -83.6017661 Eh     change       -0.9556941E-04 Eh
   gradient norm :     0.0026466 Eh/α   predicted    -0.6526896E-04 ( -31.71%)
   displ. norm   :     0.1119861 α      lambda       -0.1032322E-03
   maximum displ.:     0.0571276 α      in ANC's #1, #3, #11, ...

........................................................................
.............................. CYCLE   45 ..............................
........................................................................
   1    -84.3271190 -0.843271E+02  0.127E-02    0.20       0.0  T
   2    -84.3270873  0.316982E-04  0.217E-02    0.18       1.0  T
   3    -84.3271294 -0.421469E-04  0.395E-03    0.19       3.9  T
   4    -84.3271307 -0.133116E-05  0.104E-03    0.19      14.9  T
   5    -84.3271307  0.249013E-07  0.605E-04    0.19      25.5  T
   6    -84.3271307 -0.273316E-07  0.534E-05    0.19     289.0  T
   7    -84.3271307 -0.558629E-10  0.245E-05    0.19     629.2  T
     SCC iter.                  ...        0 min,  0.024 sec
     gradient                   ...        0 min,  0.081 sec
 * total energy  :   -83.6018404 Eh     change       -0.7429987E-04 Eh
   gradient norm :     0.0030011 Eh/α   predicted    -0.5226482E-04 ( -29.66%)
   displ. norm   :     0.1541701 α      lambda       -0.8506155E-04
   maximum displ.:     0.0818007 α      in ANC's #1, #3, #11, ...

........................................................................
.............................. CYCLE   46 ..............................
........................................................................
   1    -84.3275109 -0.843275E+02  0.103E-02    0.20       0.0  T
   2    -84.3274980  0.128938E-04  0.151E-02    0.18       1.0  T
   3    -84.3275170 -0.189680E-04  0.360E-03    0.20       4.3  T
   4    -84.3275182 -0.115327E-05  0.745E-04    0.19      20.7  T
   5    -84.3275182  0.102862E-07  0.403E-04    0.19      38.3  T
   6    -84.3275182 -0.107897E-07  0.438E-05    0.19     352.2  T
   7    -84.3275182 -0.104947E-09  0.170E-05    0.19     905.2  T
     SCC iter.                  ...        0 min,  0.024 sec
     gradient                   ...        0 min,  0.081 sec
 * total energy  :   -83.6019096 Eh     change       -0.6923809E-04 Eh
   gradient norm :     0.0042680 Eh/α   predicted    -0.4355654E-04 ( -37.09%)
   displ. norm   :     0.2444795 α      lambda       -0.1170340E-03
   maximum displ.:     0.1321383 α      in ANC's #1, #3, #11, ...

........................................................................
.............................. CYCLE   47 ..............................
........................................................................
   1    -84.3267098 -0.843267E+02  0.118E-02    0.20       0.0  T
   2    -84.3266986  0.112191E-04  0.154E-02    0.18       1.0  T
   3    -84.3267168 -0.182230E-04  0.442E-03    0.20       3.5  T
   4    -84.3267185 -0.161612E-05  0.135E-03    0.19      11.4  T
   5    -84.3267185  0.384378E-08  0.458E-04    0.19      33.7  T
   6    -84.3267185 -0.149301E-07  0.603E-05    0.19     255.8  T
   7    -84.3267185 -0.112763E-09  0.241E-05    0.19     640.1  T
     SCC iter.                  ...        0 min,  0.024 sec
     gradient                   ...        0 min,  0.081 sec
 * total energy  :   -83.6020013 Eh     change       -0.9167892E-04 Eh
   gradient norm :     0.0039427 Eh/α   predicted    -0.6211168E-04 ( -32.25%)
   displ. norm   :     0.2464672 α      lambda       -0.1009139E-03
   maximum displ.:     0.1384717 α      in ANC's #1, #3, #4, ...

........................................................................
.............................. CYCLE   48 ..............................
........................................................................
   1    -84.3256594 -0.843257E+02  0.925E-03    0.20       0.0  T
   2    -84.3256530  0.644211E-05  0.121E-02    0.19       1.3  T
   3    -84.3256639 -0.109575E-04  0.317E-03    0.20       4.9  T
   4    -84.3256646 -0.707647E-06  0.141E-03    0.20      11.0  T
   5    -84.3256647 -0.368606E-07  0.283E-04    0.20      54.5  T
   6    -84.3256647 -0.332898E-08  0.675E-05    0.20     228.5  T
   7    -84.3256647 -0.113658E-09  0.231E-05    0.20     668.6  T
     SCC iter.                  ...        0 min,  0.024 sec
     gradient                   ...        0 min,  0.081 sec
 * total energy  :   -83.6020800 Eh     change       -0.7865978E-04 Eh
   gradient norm :     0.0035047 Eh/α   predicted    -0.5352236E-04 ( -31.96%)
   displ. norm   :     0.2228251 α      lambda       -0.9147450E-04
   maximum displ.:     0.1312927 α      in ANC's #1, #3, #4, ...

........................................................................
.............................. CYCLE   49 ..............................
........................................................................
   1    -84.3253324 -0.843253E+02  0.752E-03    0.20       0.0  T
   2    -84.3253265  0.591638E-05  0.111E-02    0.19       1.4  T
   3    -84.3253362 -0.974624E-05  0.198E-03    0.20       7.8  T
   4    -84.3253364 -0.160331E-06  0.128E-03    0.20      12.1  T
   5    -84.3253364 -0.502248E-07  0.178E-04    0.20      86.4  T
   6    -84.3253364 -0.938400E-09  0.582E-05    0.20     265.1  T
     SCC iter.                  ...        0 min,  0.020 sec
     gradient                   ...        0 min,  0.081 sec
 * total energy  :   -83.6021554 Eh     change       -0.7540720E-04 Eh
   gradient norm :     0.0034825 Eh/α   predicted    -0.4800885E-04 ( -36.33%)
   displ. norm   :     0.2752234 α      lambda       -0.1060953E-03
   maximum displ.:     0.1658255 α      in ANC's #1, #3, #4, ...

........................................................................
.............................. CYCLE   50 ..............................
........................................................................
   1    -84.3253909 -0.843254E+02  0.111E-02    0.21       0.0  T
   2    -84.3253746  0.162994E-04  0.180E-02    0.19       1.0  T
   3    -84.3254012 -0.265396E-04  0.240E-03    0.20       6.4  T
   4    -84.3254012 -0.863433E-07  0.190E-03    0.20       8.1  T
   5    -84.3254013 -0.973800E-07  0.518E-04    0.20      29.8  T
   6    -84.3254014 -0.193664E-07  0.951E-05    0.20     162.3  T
   7    -84.3254014 -0.232092E-09  0.294E-05    0.20     525.4  T
     SCC iter.                  ...        0 min,  0.024 sec
     gradient                   ...        0 min,  0.081 sec
 * total energy  :   -83.6022448 Eh     change       -0.8943327E-04 Eh
   gradient norm :     0.0035290 Eh/α   predicted    -0.5707298E-04 ( -36.18%)
   displ. norm   :     0.3940747 α      lambda       -0.1316734E-03
   maximum displ.:     0.2389082 α      in ANC's #1, #3, #4, ...

........................................................................
.............................. CYCLE   51 ..............................
........................................................................
   1    -84.3250842 -0.843251E+02  0.167E-02    0.22       0.0  T
   2    -84.3250577  0.265299E-04  0.254E-02    0.19       1.0  T
   3    -84.3251084 -0.507660E-04  0.341E-03    0.21       4.5  T
   4    -84.3251086 -0.203192E-06  0.287E-03    0.21       5.4  T
   5    -84.3251088 -0.127258E-06  0.116E-03    0.21      13.3  T
   6    -84.3251089 -0.109314E-06  0.209E-04    0.21      74.0  T
   7    -84.3251089 -0.174863E-08  0.596E-05    0.21     258.9  T
   8    -84.3251089 -0.247923E-09  0.204E-05    0.21     756.5  T
     SCC iter.                  ...        0 min,  0.027 sec
     gradient                   ...        0 min,  0.081 sec
 * total energy  :   -83.6023540 Eh     change       -0.1092022E-03 Eh
   gradient norm :     0.0037402 Eh/α   predicted    -0.7606172E-04 ( -30.35%)
   displ. norm   :     0.3976132 α      lambda       -0.1287507E-03
   maximum displ.:     0.2466969 α      in ANC's #1, #4, #3, ...

........................................................................
.............................. CYCLE   52 ..............................
........................................................................
   1    -84.3253053 -0.843253E+02  0.158E-02    0.23       0.0  T
   2    -84.3252956  0.968260E-05  0.210E-02    0.20       1.0  T
   3    -84.3253269 -0.313245E-04  0.319E-03    0.22       4.8  T
   4    -84.3253269 -0.117045E-07  0.292E-03    0.21       5.3  T
   5    -84.3253271 -0.184082E-06  0.914E-04    0.21      16.9  T
   6    -84.3253272 -0.629601E-07  0.158E-04    0.21      97.9  T
   7    -84.3253272 -0.620744E-09  0.516E-05    0.21     299.1  T
     SCC iter.                  ...        0 min,  0.024 sec
     gradient                   ...        0 min,  0.081 sec
 * total energy  :   -83.6024619 Eh     change       -0.1079055E-03 Eh
   gradient norm :     0.0038824 Eh/α   predicted    -0.7455371E-04 ( -30.91%)
   displ. norm   :     0.4060102 α      lambda       -0.1352315E-03
   maximum displ.:     0.2573681 α      in ANC's #1, #4, #3, ...

........................................................................
.............................. CYCLE   53 ..............................
........................................................................
   1    -84.3258090 -0.843258E+02  0.138E-02    0.23       0.0  T
   2    -84.3258086  0.386061E-06  0.161E-02    0.21       1.0  T
   3    -84.3258251 -0.164601E-04  0.286E-03    0.22       5.4  T
   4    -84.3258250  0.923341E-07  0.263E-03    0.22       5.9  T
   5    -84.3258252 -0.184057E-06  0.543E-04    0.22      28.4  T
   6    -84.3258252 -0.191963E-07  0.102E-04    0.22     151.6  T
   7    -84.3258252 -0.211188E-09  0.381E-05    0.22     405.2  T
     SCC iter.                  ...        0 min,  0.023 sec
     gradient                   ...        0 min,  0.081 sec
[...]
C24-C5-N6=119.43               C7-N6-C5=118.01                C8-C7-N6=116.13                N21-C7-N6=126.72               
N21-C7-C8=117.13               C9-C8-C7=107.44                C10-C8-C7=110.87               C10-C8-C9=110.24               
N11-C8-C7=107.79               N11-C8-C9=111.41               N11-C8-C10=109.07              H29-C9-C8=109.82               
H30-C9-C8=110.22               H30-C9-H29=108.79              H31-C9-C8=110.06               H31-C9-H29=109.11              
H31-C9-H30=108.81              H32-C10-C8=110.21              H33-C10-C8=109.84              H33-C10-H32=108.68             
H34-C10-C8=110.44              H34-C10-H32=109.00             H34-C10-H33=108.62             
 
 selected dihedral angles (degree)
 ---------------------------------
C3-O2-C1-H26= 63.92           C3-O2-C1-H27=303.17           C3-O2-C1-H28=183.45           O4-C3-O2-C1=  0.52            
C5-C3-O2-C1=180.64            N6-C5-C3-O2=180.63            N6-C5-C3-O4=  0.75            C24-C5-C3-O2=  0.67           
C24-C5-C3-O4=180.80           C7-N6-C5-C3=180.33            C7-N6-C5-C24=  0.29           C8-C7-N6-C5=181.63            
N21-C7-N6-C5=359.97           C9-C8-C7-N6= 71.71            C9-C8-C7-N21=253.20           C10-C8-C7-N6=192.23           
C10-C8-C7-N21= 13.72          N11-C8-C7-N6=311.53           N11-C8-C7-N21=133.03          H29-C9-C8-C7=295.36           
H29-C9-C8-C10=174.44          H29-C9-C8-N11= 53.21          H30-C9-C8-C7=175.52           H30-C9-C8-C10= 54.60          
H30-C9-C8-N11=293.36          H31-C9-C8-C7= 55.49           H31-C9-C8-C10=294.58          H31-C9-C8-N11=173.34          
H32-C10-C8-C7=179.20          H32-C10-C8-C9=298.04          H32-C10-C8-N11= 60.67         H33-C10-C8-C7= 59.49          
H33-C10-C8-C9=178.32          H33-C10-C8-N11=300.95         H34-C10-C8-C7=299.70          H34-C10-C8-C9= 58.54          
H34-C10-C8-N11=181.16         
           -------------------------------------------------
          |                Final Singlepoint                |
           -------------------------------------------------

          ...................................................
          :                      SETUP                      :
          :.................................................:
          :  # basis functions                 134          :
          :  # atomic orbitals                 134          :
          :  # shells                           84          :
          :  # electrons                       136          :
          :  # halogen bonds                     0          :
          :  max. iterations                   250          :
          :  Hamiltonian                  GFN1-xTB          :
          :  restarted?                      false          :
          :  GBSA solvation                   true          :
          :  PC potential                    false          :
          :  electronic temp.          300.0000000     K    :
          :  accuracy                    1.0000000          :
          :  -> integral cutoff          0.2500000E+02      :
          :  -> integral neglect         0.1000000E-07      :
          :  -> SCF convergence          0.1000000E-05 Eh   :
          :  -> wf. convergence          0.2000000E-04 e    :
          :  Broyden damping             0.4000000          :
          ...................................................

 iter      E             dE          RMSdq      gap      omega  full diag
   1    -84.3276186 -0.843276E+02  0.569E-06    0.25       0.0  T
   2    -84.3276186 -0.753175E-12  0.271E-06    0.25    5701.1  T
   3    -84.3276186 -0.468958E-12  0.143E-06    0.25   10804.0  T

   *** convergence criteria satisfied after 3 iterations ***

         #    Occupation            Energy/Eh            Energy/eV
      -------------------------------------------------------------
         1        2.0000           -0.8078341             -21.9823
       ...           ...                  ...                  ...
        62        2.0000           -0.3885608             -10.5733
        63        2.0000           -0.3788728             -10.3097
        64        2.0000           -0.3629395              -9.8761
        65        2.0000           -0.3584789              -9.7547
        66        2.0000           -0.3581398              -9.7455
        67        2.0000           -0.3556497              -9.6777
        68        1.9853           -0.2763629              -7.5202 (HOMO)
        69        0.0147           -0.2670419              -7.2666 (LUMO)
        70                         -0.2116313              -5.7588
        71                         -0.1789307              -4.8690
        72                         -0.1788509              -4.8668
        73                         -0.1339825              -3.6458
       ...                                ...                  ...
       134                          0.7443639              20.2552
      -------------------------------------------------------------
                  HL-Gap            0.0093209 Eh            0.2536 eV
             Fermi-level           -0.2717024 Eh           -7.3934 eV

 SCC (total)                   0 d,  0 h,  0 min,  0.104 sec
 SCC setup                      ...        0 min,  0.002 sec (  1.721%)
 Dispersion                     ...        0 min,  0.000 sec (  0.306%)
 classical contributions        ...        0 min,  0.000 sec (  0.100%)
 integral evaluation            ...        0 min,  0.033 sec ( 31.992%)
 iterations                     ...        0 min,  0.009 sec (  8.827%)
 molecular gradient             ...        0 min,  0.059 sec ( 56.586%)
 printout                       ...        0 min,  0.000 sec (  0.437%)

         :::::::::::::::::::::::::::::::::::::::::::::::::::::
         ::                     SUMMARY                     ::
         :::::::::::::::::::::::::::::::::::::::::::::::::::::
         :: total energy             -83.603283205667 Eh    ::
         :: total w/o Gsasa/hb       -83.580780347960 Eh    ::
         :: gradient norm              0.000911368623 Eh/a0 ::
         :: HOMO-LUMO gap              0.253634718267 eV    ::
         ::.................................................::
         :: SCC energy               -84.327618634172 Eh    ::
         :: -> electrostatic           0.644136264382 Eh    ::
         :: -> Gsolv                  -0.269580229325 Eh    ::
         ::    -> Gelec               -0.247077371617 Eh    ::
         ::    -> Gsasa               -0.025049161281 Eh    ::
         ::    -> Ghb                 -0.005077975432 Eh    ::
         ::    -> Gshift               0.007624279005 Eh    ::
         :: repulsion energy           0.749970104413 Eh    ::
         :: dispersion energy         -0.025634675909 Eh    ::
         :: halogen bond corr.         0.000000000000 Eh    ::
         :: add. restraining           0.000000000000 Eh    ::
         :: total charge              -2.000000000000 e     ::
         :::::::::::::::::::::::::::::::::::::::::::::::::::::

           -------------------------------------------------
          |                Property Printout                |
           -------------------------------------------------

    * Orbital Energies and Occupations

         #    Occupation            Energy/Eh            Energy/eV
      -------------------------------------------------------------
         1        2.0000           -0.8078341             -21.9823
       ...           ...                  ...                  ...
        56        2.0000           -0.4379977             -11.9185
        57        2.0000           -0.4210433             -11.4572
        58        2.0000           -0.4125879             -11.2271
        59        2.0000           -0.4091310             -11.1330
        60        2.0000           -0.4041333             -10.9970
        61        2.0000           -0.3891586             -10.5895
        62        2.0000           -0.3885608             -10.5733
        63        2.0000           -0.3788728             -10.3097
        64        2.0000           -0.3629395              -9.8761
        65        2.0000           -0.3584789              -9.7547
        66        2.0000           -0.3581398              -9.7455
        67        2.0000           -0.3556497              -9.6777
        68        1.9853           -0.2763629              -7.5202 (HOMO)
        69        0.0147           -0.2670419              -7.2666 (LUMO)
        70                         -0.2116313              -5.7588
        71                         -0.1789307              -4.8690
        72                         -0.1788509              -4.8668
        73                         -0.1339825              -3.6458
        74                         -0.1255283              -3.4158
        75                         -0.1128143              -3.0698
        76                         -0.1026813              -2.7941
        77                         -0.0918760              -2.5001
        78                         -0.0868088              -2.3622
        79                         -0.0833814              -2.2689
       ...                                ...                  ...
       134                          0.7443639              20.2552
      -------------------------------------------------------------
                  HL-Gap            0.0093209 Eh            0.2536 eV
             Fermi-level           -0.2717024 Eh           -7.3934 eV

  Mulliken/CM5 charges         n(s)   n(p)   n(d)
     1C     0.17077  0.05095   0.972  2.857  0.000
     2O    -0.42769 -0.51095   1.688  4.740  0.000
     3C     0.55612  0.62150   0.983  2.461  0.000
     4O    -0.59382 -0.63783   1.731  4.863  0.000
     5C     0.05657  0.13412   1.036  2.907  0.000
     6N    -0.43014 -0.61146   1.544  3.886  0.000
     7C     0.28086  0.43536   1.023  2.696  0.000
     8C     0.14576  0.18492   1.065  2.790  0.000
     9C    -0.08921 -0.22796   1.013  3.076  0.000
    10C    -0.08229 -0.21964   1.007  3.075  0.000
    11N    -0.43006 -0.75346   1.489  3.941  0.000
    12C     0.13659  0.21401   0.962  2.901  0.000
    13O    -0.49606 -0.57569   1.697  4.799  0.000
    14C     0.17508  0.05706   0.969  2.856  0.000
    15C     0.29456  0.40309   1.007  2.699  0.000
    16N    -0.44402 -0.54615   1.584  3.860  0.000
    17N    -0.33481 -0.44423   1.576  3.759  0.000
    18C     0.31926  0.42820   0.982  2.699  0.000
    19C    -0.10830 -0.24530   1.006  3.102  0.000
    20O    -0.44507 -0.49397   1.716  4.729  0.000
    21N    -0.48852 -0.66441   1.548  3.941  0.000
    22C     0.41727  0.52462   0.985  2.597  0.000
    23O    -0.69011 -0.73404   1.746  4.944  0.000
    24C     0.18487  0.21763   1.038  2.778  0.000
    25O    -0.54444 -0.73262   1.709  4.836  0.000
    26H     0.03720  0.09855   0.963  0.000  0.000
    27H     0.03811  0.10022   0.962  0.000  0.000
    28H     0.03881  0.09923   0.961  0.000  0.000
    29H     0.02230  0.08403   0.978  0.000  0.000
    30H     0.01427  0.07141   0.986  0.000  0.000
    31H     0.00794  0.06266   0.992  0.000  0.000
    32H     0.01852  0.07693   0.981  0.000  0.000
    33H     0.01405  0.07236   0.986  0.000  0.000
    34H     0.00859  0.06605   0.991  0.000  0.000
    35H     0.17625  0.38002   0.824  0.000  0.000
    36H     0.00166  0.06131   0.998  0.000  0.000
    37H     0.00587  0.06534   0.994  0.000  0.000
    38H    -0.00112  0.05906   1.001  0.000  0.000
    39H     0.03692  0.09094   0.963  0.000  0.000
    40H     0.03695  0.09092   0.963  0.000  0.000
    41H     0.03280  0.08850   0.967  0.000  0.000
    42H     0.37771  0.55869   0.622  0.000  0.000

Wiberg/Mayer (AO) data.
largest (>0.10) Wiberg bond orders for each atom

 ---------------------------------------------------------------------------
     #   Z sym  total        # sym  WBO       # sym  WBO       # sym  WBO
 ---------------------------------------------------------------------------
     1   6 C    3.893 --    28 H    0.987    26 H    0.980    27 H    0.980
                             2 O    0.918
     2   8 O    2.172 --     3 C    1.068     1 C    0.918     4 O    0.120
     3   6 C    3.826 --     4 O    1.627     2 O    1.068     5 C    1.035
     4   8 O    1.887 --     3 C    1.627     2 O    0.120
     5   6 C    3.962 --    24 C    1.467     6 N    1.210     3 C    1.035
     6   7 N    2.999 --     7 C    1.459     5 C    1.210
     7   6 C    3.948 --     6 N    1.459    21 N    1.351     8 C    0.975
     8   6 C    3.970 --    10 C    1.000     7 C    0.975     9 C    0.975
                            11 N    0.957
     9   6 C    3.996 --    31 H    0.988    30 H    0.984    29 H    0.983
                             8 C    0.975
    10   6 C    3.997 --     8 C    1.000    34 H    0.987    33 H    0.986
                            32 H    0.985
    11   7 N    3.015 --    12 C    0.963     8 C    0.957    35 H    0.939
    12   6 C    3.684 --    15 C    1.469    11 N    0.963    13 O    0.919
                            16 N    0.145
    13   8 O    1.996 --    14 C    0.950    12 C    0.919
    14   6 C    3.939 --    37 H    0.986    36 H    0.982    38 H    0.981
                            13 O    0.950
    15   6 C    3.865 --    12 C    1.469    16 N    1.287    20 O    0.961
    16   7 N    2.824 --    15 C    1.287    17 N    1.150    12 C    0.145
                            18 C    0.117
    17   7 N    2.987 --    18 C    1.675    16 N    1.150
    18   6 C    3.883 --    17 N    1.675    19 C    1.017    20 O    0.996
                            16 N    0.117
    19   6 C    3.996 --    18 C    1.017    41 H    0.987    40 H    0.976
                            39 H    0.976
    20   8 O    2.175 --    18 C    0.996    15 C    0.961
    21   7 N    2.977 --     7 C    1.351    22 C    1.268    23 O    0.125
    22   6 C    3.932 --    23 O    1.443    21 N    1.268    24 C    1.084
    23   8 O    1.780 --    22 C    1.443    21 N    0.125
    24   6 C    3.897 --     5 C    1.467    22 C    1.084    25 O    1.057
    25   8 O    2.033 --    24 C    1.057    42 H    0.819
    26   1 H    1.012 --     1 C    0.980
    27   1 H    1.013 --     1 C    0.980
    28   1 H    1.015 --     1 C    0.987
    29   1 H    1.032 --     9 C    0.983
    30   1 H    1.019 --     9 C    0.984
    31   1 H    1.009 --     9 C    0.988
    32   1 H    1.017 --    10 C    0.985
    33   1 H    1.019 --    10 C    0.986
    34   1 H    1.021 --    10 C    0.987
    35   1 H    1.008 --    11 N    0.939
    36   1 H    1.021 --    14 C    0.982
    37   1 H    1.022 --    14 C    0.986
    38   1 H    1.024 --    14 C    0.981
    39   1 H    1.007 --    19 C    0.976
    40   1 H    1.007 --    19 C    0.976
    41   1 H    1.008 --    19 C    0.987
    42   1 H    0.883 --    25 O    0.819
 ---------------------------------------------------------------------------

Topologies differ in total number of bonds
Writing topology from bond orders to xtbtopo.mol

 dipole moment from electron density (au)
     X       Y       Z   
  -1.2554   1.5081   1.3416  total (Debye):    6.042

           -------------------------------------------------
          |                Geometry Summary                 |
           -------------------------------------------------

      molecular mass/u    :      351.3152409
   center of mass at/Å    :        0.3975067      -0.0317033       0.0068872
  moments of inertia/u·Å² :        0.1475238E+04   0.4186226E+04   0.5198730E+04
rotational constants/cm⁻¹ :        0.1142706E-01   0.4026928E-02   0.3242644E-02

 * 35 selected distances

     #   Z          #   Z                                           value/Å
     1   6 C        2   8 O                                       1.4222950
     2   8 O        3   6 C                                       1.3500219
     3   6 C        4   8 O                                       1.2172393
     5   6 C        6   7 N                                       1.3678470
     6   7 N        7   6 C                                       1.3181946
     8   6 C       10   6 C                                       1.5319351 (max)
     8   6 C       11   7 N                                       1.4783873
    13   8 O       14   6 C                                       1.4203061
    12   6 C       15   6 C                                       1.3720583
    15   6 C       16   7 N                                       1.3556337
    17   7 N       18   6 C                                       1.2843697
    18   6 C       19   6 C                                       1.4882122
    15   6 C       20   8 O                                       1.3886032
    18   6 C       20   8 O                                       1.3767706
     7   6 C       21   7 N                                       1.3372512
    21   7 N       22   6 C                                       1.3494479
     5   6 C       24   6 C                                       1.3725035
    24   6 C       25   8 O                                       1.3579765
     1   6 C       26   1 H                                       1.0939369
     1   6 C       27   1 H                                       1.0939342
     1   6 C       28   1 H                                       1.0882649
     9   6 C       29   1 H                                       1.0916543
     9   6 C       30   1 H                                       1.0905541
     9   6 C       31   1 H                                       1.0902504
    10   6 C       32   1 H                                       1.0902900
    10   6 C       33   1 H                                       1.0906965
    10   6 C       34   1 H                                       1.0898333
    11   7 N       35   1 H                                       1.0269581
    14   6 C       36   1 H                                       1.0988317
    14   6 C       37   1 H                                       1.0927381
    14   6 C       38   1 H                                       1.1002964
    19   6 C       39   1 H                                       1.0911462
    19   6 C       40   1 H                                       1.0912667
    19   6 C       41   1 H                                       1.0883070
    25   8 O       42   1 H                                       0.9809865 (min)

 * 6 distinct bonds (by element types)

   Z      Z             #   av. dist./Å        max./Å        min./Å
   1 H    6 C          15     1.0921334     1.1002964     1.0882649
   6 C    6 C           4     1.4411773     1.5319351     1.3720583
   1 H    7 N           1     1.0269581     1.0269581     1.0269581
   6 C    7 N           7     1.3558759     1.4783873     1.2843697
   1 H    8 O           1     0.9809865     0.9809865     0.9809865
   6 C    8 O           7     1.3618875     1.4222950     1.2172393


optimized geometry written to: xtbopt.xyz


           -------------------------------------------------
          | TOTAL ENERGY              -83.603283205667 Eh   |
          | GRADIENT NORM               0.000911368623 Eh/α |
          | HOMO-LUMO GAP               0.253634718267 eV   |
           -------------------------------------------------

------------------------------------------------------------------------
 * finished run on 2023/06/20 at 17:49:19.408     
------------------------------------------------------------------------
 total:
 * wall-time:     0 d,  0 h,  0 min, 10.695 sec
 *  cpu-time:     0 d,  0 h,  0 min, 10.401 sec
 * ratio c/w:     0.973 speedup
 SCF:
 * wall-time:     0 d,  0 h,  0 min,  0.430 sec
 *  cpu-time:     0 d,  0 h,  0 min,  0.229 sec
 * ratio c/w:     0.533 speedup
 ANC optimizer:
 * wall-time:     0 d,  0 h,  0 min, 10.142 sec
 *  cpu-time:     0 d,  0 h,  0 min, 10.129 sec
 * ratio c/w:     0.999 speedup

