42
 energy: -83.603283205667 gnorm: 0.000911368623 xtb: 6.5.1 (579679a)
C            5.03284089294822        2.79577256898889        1.94877816330644
O            4.68462608136441        1.58058530263498        1.29686642742714
C            3.37730715418529        1.41901026270384        1.00128318018380
O            2.55845597724520        2.27715018948442        1.27468732001961
C            3.06907704060796        0.13440817399867        0.33892681936498
N            1.75104688945035       -0.04270510112578        0.01887616652825
C            1.40279192315658       -1.17002135128427       -0.56892757272932
C           -0.06965436832502       -1.30636815300770       -0.94125394055587
C           -0.33613070042363       -0.35750076508607       -2.12950428453937
C           -0.40262129547095       -2.75002401405500       -1.33088907438029
N           -0.87155188343869       -0.92824551037019        0.24179816014044
C           -2.28209759201741       -0.73309103542710       -0.03184711427797
O           -3.10586240643214       -1.84369981012662        0.24729483888629
C           -3.35212828155169       -2.08502131123175        1.62511419695884
C           -2.76978316579785        0.54887039904905       -0.06764087065797
N           -2.02279336226732        1.66691253675905       -0.24006615323760
N           -2.92060257863923        2.71096520935790       -0.34674376906509
C           -4.10632150806168        2.22698083379486       -0.24961038041291
C           -5.39490570928371        2.96838431817510       -0.31777847714087
O           -4.12260352669324        0.86206304061137       -0.07007958765852
N            2.21093670696960       -2.18394972707601       -0.89617622876411
C            3.52631783560836       -2.08318861436092       -0.61222388126087
O            4.37497934001771       -2.96914067896837       -0.86869798514825
C            3.97488923124761       -0.85136884628058        0.03641489455205
O            5.30701152930041       -0.79792144934303        0.29466527881433
H            4.55974327401933        2.85215355577906        2.93351041724994
H            4.71697273539770        3.65765924805969        1.35373988631692
H            6.11550942514706        2.79839099662834        2.05896983261605
H           -0.19162732997251        0.67810040982447       -1.81588353442746
H           -1.36008330976413       -0.47716205965473       -2.48518711200507
H            0.34873136745197       -0.58149099448833       -2.94769617354473
H           -1.46010326557337       -2.83831725957399       -1.58122550746418
H           -0.18406463590716       -3.41832875006794       -0.49709033150801
H            0.19243574434692       -3.05921183896037       -2.18998534619293
H           -0.48190461330151       -0.04561906556258        0.59363391456013
H           -3.89801513630856       -1.25155517887823        2.08854991515441
H           -3.95992695927090       -2.99007528067449        1.69950806456329
H           -2.41369473839988       -2.24034618915932        2.17816818266882
H           -6.00542799053887        2.60921577860434       -1.14775462219432
H           -5.96885336433891        2.83721507484076        0.60104764760672
H           -5.19199923614512        4.02814443266378       -0.45972660247922
H            5.66908280946468       -1.64763034720416       -0.03583975728190
