43
 energy: -76.181621417676 gnorm: 0.000266138381 xtb: 6.5.1 (579679a)
C           -3.55143614595473       -2.53187248133571       -0.51057649440632
N           -2.41526162477954       -1.68404191153451       -0.14213927051523
C           -2.49919040468505       -0.32021926174095       -0.00915263154850
C           -3.79638477799242        0.44489222553354       -0.24435646129416
C           -3.97097893212235        0.67841982214362       -1.75276751042159
C           -3.71319491999701        1.80360875431723        0.47257766223878
N           -4.93831347996750       -0.30732107411508        0.26482995830793
N           -1.46271237251947        0.40294209762499        0.27955890069927
C           -0.23952206614559       -0.15553213733636        0.51540999400793
C            0.85955639173432        0.83171040799348        0.79021487484921
O            0.79383502117645        1.99243302281980        0.40454084880002
N            1.89859902118263        0.35410019464464        1.50175158908806
C            3.07703519979055        1.17599305255961        1.75416373641484
C            4.12299462119317        0.93874681729313        0.68538053533303
C            3.92439939328049        1.43350780118396       -0.60292109005239
C            4.86087377582827        1.20255595133228       -1.59968984389268
C            5.99178937315108        0.47180636487999       -1.28050015003886
F            6.90328622392217        0.24292073642343       -2.24072829973698
C            6.22273465753026       -0.03019956222640       -0.01324895372774
C            5.27277700591304        0.20791285968741        0.97153182253333
C           -0.09920302505644       -1.50949185609353        0.44204669033668
O            1.06482391821362       -2.16312134477161        0.65426439250909
C           -1.22668723941661       -2.35073385164703        0.09395591553169
O           -1.11800735326539       -3.57357826437989        0.00820560420214
H           -4.12879470604237       -2.06343104809561       -1.30104085567048
H           -4.19010234860613       -2.68803561691537        0.35694335024129
H           -3.16153335443086       -3.48922927600909       -0.85594774369989
H           -4.83948312429302        1.31268407401929       -1.92446211007869
H           -3.08793382737702        1.17268307021889       -2.15717638744317
H           -4.12034052072683       -0.26168102763706       -2.28094993328009
H           -4.65732417513735        2.33182133374079        0.35226686403856
H           -3.52448512998880        1.65520696017311        1.53483254721487
H           -2.90902120116742        2.40805226382902        0.05435390751360
H           -5.79134503582148        0.12755703027654       -0.05723626963151
H           -4.94250832387660       -0.27457319984522        1.27602337018564
H            1.95438414582856       -0.61876189555525        1.75051992973963
H            3.46864085065206        0.91780771301760        2.74055943412521
H            2.76201392127354        2.22468328102771        1.75545104877885
H            3.02961353590227        2.00348051336860       -0.82736707870420
H            4.72045601304348        1.57969655263055       -2.60444721716049
H            7.12163860873927       -0.59464492464681        0.19672047025750
H            5.43402742186295       -0.17849680038654        1.97100210182266
H            0.90028298915173       -3.12025736646944        0.55884775253438
