
                                 *****************
                                 * O   R   C   A *
                                 *****************

                                            #,                                       
                                            ###                                      
                                            ####                                     
                                            #####                                    
                                            ######                                   
                                           ########,                                 
                                     ,,################,,,,,                         
                               ,,#################################,,                 
                          ,,##########################################,,             
                       ,#########################################, ''#####,          
                    ,#############################################,,   '####,        
                  ,##################################################,,,,####,       
                ,###########''''           ''''###############################       
              ,#####''   ,,,,##########,,,,          '''####'''          '####       
            ,##' ,,,,###########################,,,                        '##       
           ' ,,###''''                  '''############,,,                           
         ,,##''                                '''############,,,,        ,,,,,,###''
      ,#''                                            '''#######################'''  
     '                                                          ''''####''''         
             ,#######,   #######,   ,#######,      ##                                
            ,#'     '#,  ##    ##  ,#'     '#,    #''#        ######   ,####,        
            ##       ##  ##   ,#'  ##            #'  '#       #        #'  '#        
            ##       ##  #######   ##           ,######,      #####,   #    #        
            '#,     ,#'  ##    ##  '#,     ,#' ,#      #,         ##   #,  ,#        
             '#######'   ##     ##  '#######'  #'      '#     #####' # '####'        



                  #######################################################
                  #                        -***-                        #
                  #          Department of theory and spectroscopy      #
                  #    Directorship and core code : Frank Neese         #
                  #        Max Planck Institute fuer Kohlenforschung    #
                  #                Kaiser Wilhelm Platz 1               #
                  #                 D-45470 Muelheim/Ruhr               #
                  #                      Germany                        #
                  #                                                     #
                  #                  All rights reserved                #
                  #                        -***-                        #
                  #######################################################


                         Program Version 5.0.1 -  RELEASE  -


 With contributions from (in alphabetic order):
   Daniel Aravena         : Magnetic Suceptibility
   Michael Atanasov       : Ab Initio Ligand Field Theory (pilot matlab implementation)
   Alexander A. Auer      : GIAO ZORA, VPT2 properties, NMR spectrum
   Ute Becker             : Parallelization
   Giovanni Bistoni       : ED, misc. LED, open-shell LED, HFLD
   Martin Brehm           : Molecular dynamics
   Dmytro Bykov           : SCF Hessian
   Vijay G. Chilkuri      : MRCI spin determinant printing, contributions to CSF-ICE
   Dipayan Datta          : RHF DLPNO-CCSD density
   Achintya Kumar Dutta   : EOM-CC, STEOM-CC
   Dmitry Ganyushin       : Spin-Orbit,Spin-Spin,Magnetic field MRCI
   Miquel Garcia          : C-PCM and meta-GGA Hessian, CC/C-PCM, Gaussian charge scheme
   Yang Guo               : DLPNO-NEVPT2, F12-NEVPT2, CIM, IAO-localization
   Andreas Hansen         : Spin unrestricted coupled pair/coupled cluster methods
   Benjamin Helmich-Paris : MC-RPA, TRAH-SCF, COSX integrals
   Lee Huntington         : MR-EOM, pCC
   Robert Izsak           : Overlap fitted RIJCOSX, COSX-SCS-MP3, EOM
   Marcus Kettner         : VPT2
   Christian Kollmar      : KDIIS, OOCD, Brueckner-CCSD(T), CCSD density, CASPT2, CASPT2-K
   Simone Kossmann        : Meta GGA functionals, TD-DFT gradient, OOMP2, MP2 Hessian
   Martin Krupicka        : Initial AUTO-CI
   Lucas Lang             : DCDCAS
   Marvin Lechner         : AUTO-CI (C++ implementation), FIC-MRCC
   Dagmar Lenk            : GEPOL surface, SMD
   Dimitrios Liakos       : Extrapolation schemes; Compound Job, initial MDCI parallelization
   Dimitrios Manganas     : Further ROCIS development; embedding schemes
   Dimitrios Pantazis     : SARC Basis sets
   Anastasios Papadopoulos: AUTO-CI, single reference methods and gradients
   Taras Petrenko         : DFT Hessian,TD-DFT gradient, ASA, ECA, R-Raman, ABS, FL, XAS/XES, NRVS
   Peter Pinski           : DLPNO-MP2, DLPNO-MP2 Gradient
   Christoph Reimann      : Effective Core Potentials
   Marius Retegan         : Local ZFS, SOC
   Christoph Riplinger    : Optimizer, TS searches, QM/MM, DLPNO-CCSD(T), (RO)-DLPNO pert. Triples
   Tobias Risthaus        : Range-separated hybrids, TD-DFT gradient, RPA, STAB
   Michael Roemelt        : Original ROCIS implementation
   Masaaki Saitow         : Open-shell DLPNO-CCSD energy and density
   Barbara Sandhoefer     : DKH picture change effects
   Avijit Sen             : IP-ROCIS
   Kantharuban Sivalingam : CASSCF convergence, NEVPT2, FIC-MRCI
   Bernardo de Souza      : ESD, SOC TD-DFT
   Georgi Stoychev        : AutoAux, RI-MP2 NMR, DLPNO-MP2 response
   Willem Van den Heuvel  : Paramagnetic NMR
   Boris Wezisla          : Elementary symmetry handling
   Frank Wennmohs         : Technical directorship


 We gratefully acknowledge several colleagues who have allowed us to
 interface, adapt or use parts of their codes:
   Stefan Grimme, W. Hujo, H. Kruse, P. Pracht,  : VdW corrections, initial TS optimization,
                  C. Bannwarth, S. Ehlert          DFT functionals, gCP, sTDA/sTD-DF
   Ed Valeev, F. Pavosevic, A. Kumar             : LibInt (2-el integral package), F12 methods
   Garnet Chan, S. Sharma, J. Yang, R. Olivares  : DMRG
   Ulf Ekstrom                                   : XCFun DFT Library
   Mihaly Kallay                                 : mrcc  (arbitrary order and MRCC methods)
   Jiri Pittner, Ondrej Demel                    : Mk-CCSD
   Frank Weinhold                                : gennbo (NPA and NBO analysis)
   Christopher J. Cramer and Donald G. Truhlar   : smd solvation model
   Lars Goerigk                                  : TD-DFT with DH, B97 family of functionals
   V. Asgeirsson, H. Jonsson                     : NEB implementation
   FAccTs GmbH                                   : IRC, NEB, NEB-TS, DLPNO-Multilevel, CI-OPT
                                                   MM, QMMM, 2- and 3-layer-ONIOM, Crystal-QMMM,
                                                   LR-CPCM, SF, NACMEs, symmetry and pop. for TD-DFT,
                                                   nearIR, NL-DFT gradient (VV10), updates on ESD,
                                                   ML-optimized integration grids
   S Lehtola, MJT Oliveira, MAL Marques          : LibXC Library
   Liviu Ungur et al                             : ANISO software


 Your calculation uses the libint2 library for the computation of 2-el integrals
 For citations please refer to: http://libint.valeyev.net

 Your ORCA version has been built with support for libXC version: 5.1.0
 For citations please refer to: https://tddft.org/programs/libxc/

 This ORCA versions uses:
   CBLAS   interface :  Fast vector & matrix operations
   LAPACKE interface :  Fast linear algebra routines
   SCALAPACK package :  Parallel linear algebra routines
   Shared memory     :  Shared parallel matrices
   BLAS/LAPACK       :  OpenBLAS 0.3.15  USE64BITINT DYNAMIC_ARCH NO_AFFINITY Zen SINGLE_THREADED
        Core in use  :  Zen
   Copyright (c) 2011-2014, The OpenBLAS Project


Your calculation utilizes the geometrical counterpoise correction gCP
Please cite in your paper:
H.Kruse, S. Grimme J.Chem.Phys., 136, (2012), 154101 
   

Your calculation utilizes the atom-pairwise dispersion correction
based on tight binding partial charges (D4)
Cite in your paper:
E.Caldeweyher, C.Bannwarth, S.Grimme, J.Chem.Phys., (2017), 147, 034112.
E.Caldeweyher, S.Ehlert, A.Hansen, H.Neugebauer, S.Grimme, J.Chem.Phys., (2018), in progress.
   

Your calculation utilizes the SMD solvation module
Please cite in your paper:
A.V. Marenich, C.J. Cramer, D.G. Truhlar J. Phys. Chem. B, 113, (2009), 6378 

================================================================================

----- Orbital basis set information -----
Your calculation utilizes the basis: def2-mTZVPP
   Stefan Grimme, Andreas Hansen, Sebastian Ehlert, and Jan-Michael Mewes 
   J. Chem. Phys. 154, 000000 (2021). DOI: 10.1063/5.0040021

----- AuxJ basis set information -----
Your calculation utilizes the basis: def2-mTZVPP/J
   Stefan Grimme, Andreas Hansen, Sebastian Ehlert, and Jan-Michael Mewes 
   J. Chem. Phys. 154, 000000 (2021). DOI: 10.1063/5.0040021

================================================================================
                                        WARNINGS
                       Please study these warnings very carefully!
================================================================================

Using LibXC functional ID 497 : Re-regularized SCAN exchange by Furness et al
[ 1]  J. W. Furness, A. D. Kaplan, J. Ning, J. P. Perdew, and J. Sun, J. Phys. Chem. Lett. 11, 8208 (2020)
[ 2]  J. W. Furness, A. D. Kaplan, J. Ning, J. P. Perdew, and J. Sun, J. Phys. Chem. Lett. 11, 9248 (2020)
Using LibXC functional ID 498 : Re-regularized SCAN correlation by Furness et al
[ 1]  J. W. Furness, A. D. Kaplan, J. Ning, J. P. Perdew, and J. Sun, J. Phys. Chem. Lett. 11, 8208 (2020)
[ 2]  J. W. Furness, A. D. Kaplan, J. Ning, J. P. Perdew, and J. Sun, J. Phys. Chem. Lett. 11, 9248 (2020)
Using LibXC functional ID 497 : Re-regularized SCAN exchange by Furness et al
[ 1]  J. W. Furness, A. D. Kaplan, J. Ning, J. P. Perdew, and J. Sun, J. Phys. Chem. Lett. 11, 8208 (2020)
[ 2]  J. W. Furness, A. D. Kaplan, J. Ning, J. P. Perdew, and J. Sun, J. Phys. Chem. Lett. 11, 9248 (2020)
Using LibXC functional ID 498 : Re-regularized SCAN correlation by Furness et al
[ 1]  J. W. Furness, A. D. Kaplan, J. Ning, J. P. Perdew, and J. Sun, J. Phys. Chem. Lett. 11, 8208 (2020)
[ 2]  J. W. Furness, A. D. Kaplan, J. Ning, J. P. Perdew, and J. Sun, J. Phys. Chem. Lett. 11, 9248 (2020)

INFO   : the flag for use of the SHARK integral package has been found!

================================================================================
                                       INPUT FILE
================================================================================
NAME = /lustre/hpc/kemi/ree/PhD/git/ReactivityQM/calculations/R02oxygendeprot/reac01prodN13/conf13/gfn1/orca_calc.inp
|  1> # ORCA input file 
|  2> ! SP r2SCAN-3c CPCM 
|  3> 
|  4> %maxcore 1875.0 
|  5> %pal nprocs 4 end 
|  6> %cpcm smd true SMDsolvent "DMSO" end 
|  7> 
|  8> *xyz 0 1
|  9> C       6.898711   -0.640098    1.581326
| 10> O       5.651811    0.055305    1.567430
| 11> C       4.722372   -0.412383    0.732557
| 12> O       4.905831   -1.379132    0.020313
| 13> C       3.453232    0.360322    0.745765
| 14> N       2.559156   -0.068112   -0.169176
| 15> C       1.410911    0.528221   -0.309472
| 16> C       0.451793    0.065137   -1.379367
| 17> C       0.549477    1.007934   -2.583183
| 18> C       0.759726   -1.379896   -1.784182
| 19> N      -0.911470    0.149514   -0.852444
| 20> C      -1.238376   -0.428979    0.324686
| 21> O      -0.441576   -0.943518    1.091547
| 22> C      -2.690632   -0.373311    0.607284
| 23> N      -3.290387   -0.895520    1.688716
| 24> N      -4.555553   -0.718930    1.579526
| 25> C      -4.836885   -0.044320    0.340254
| 26> C      -5.677338   -0.937272   -0.576355
| 27> C      -5.499308    1.310025    0.602175
| 28> O      -3.544339    0.154459   -0.241490
| 29> N       1.065865    1.615257    0.426963
| 30> C       1.850221    2.148770    1.433881
| 31> O       1.460621    3.107784    2.071064
| 32> C       3.183177    1.455636    1.642800
| 33> O       3.933827    1.853601    2.530943
| 34> H       6.757528   -1.661408    1.943065
| 35> H       7.557060   -0.090819    2.251392
| 36> H       7.323813   -0.671801    0.575288
| 37> H      -0.149552    0.692320   -3.354650
| 38> H       0.311514    2.026536   -2.283634
| 39> H       1.560018    0.983060   -2.988005
| 40> H       1.771403   -1.433348   -2.183609
| 41> H       0.685797   -2.035544   -0.917448
| 42> H       0.052262   -1.704994   -2.543178
| 43> H      -1.639617    0.490740   -1.454990
| 44> H      -5.154187   -1.876285   -0.743509
| 45> H      -6.638050   -1.130485   -0.105660
| 46> H      -5.827307   -0.431521   -1.526779
| 47> H      -5.615896    1.837059   -0.341281
| 48> H      -4.874124    1.896490    1.272148
| 49> H      -6.473655    1.148870    1.056640
| 50> H       0.182123    2.066370    0.252647
| 51> **                         ****END OF INPUT****
================================================================================

                       ****************************
                       * Single Point Calculation *
                       ****************************

---------------------------------
CARTESIAN COORDINATES (ANGSTROEM)
---------------------------------
  C      6.898711   -0.640098    1.581326
  O      5.651811    0.055305    1.567430
  C      4.722372   -0.412383    0.732557
  O      4.905831   -1.379132    0.020313
  C      3.453232    0.360322    0.745765
  N      2.559156   -0.068112   -0.169176
  C      1.410911    0.528221   -0.309472
  C      0.451793    0.065137   -1.379367
  C      0.549477    1.007934   -2.583183
  C      0.759726   -1.379896   -1.784182
  N     -0.911470    0.149514   -0.852444
  C     -1.238376   -0.428979    0.324686
  O     -0.441576   -0.943518    1.091547
  C     -2.690632   -0.373311    0.607284
  N     -3.290387   -0.895520    1.688716
  N     -4.555553   -0.718930    1.579526
  C     -4.836885   -0.044320    0.340254
  C     -5.677338   -0.937272   -0.576355
  C     -5.499308    1.310025    0.602175
  O     -3.544339    0.154459   -0.241490
  N      1.065865    1.615257    0.426963
  C      1.850221    2.148770    1.433881
  O      1.460621    3.107784    2.071064
  C      3.183177    1.455636    1.642800
  O      3.933827    1.853601    2.530943
  H      6.757528   -1.661408    1.943065
  H      7.557060   -0.090819    2.251392
  H      7.323813   -0.671801    0.575288
  H     -0.149552    0.692320   -3.354650
  H      0.311514    2.026536   -2.283634
  H      1.560018    0.983060   -2.988005
  H      1.771403   -1.433348   -2.183609
  H      0.685797   -2.035544   -0.917448
  H      0.052262   -1.704994   -2.543178
  H     -1.639617    0.490740   -1.454990
  H     -5.154187   -1.876285   -0.743509
  H     -6.638050   -1.130485   -0.105660
  H     -5.827307   -0.431521   -1.526779
  H     -5.615896    1.837059   -0.341281
  H     -4.874124    1.896490    1.272148
  H     -6.473655    1.148870    1.056640
  H      0.182123    2.066370    0.252647

----------------------------
CARTESIAN COORDINATES (A.U.)
----------------------------
  NO LB      ZA    FRAG     MASS         X           Y           Z
   0 C     6.0000    0    12.011   13.036674   -1.209610    2.988273
   1 O     8.0000    0    15.999   10.680375    0.104511    2.962013
   2 C     6.0000    0    12.011    8.923990   -0.779291    1.384332
   3 O     8.0000    0    15.999    9.270677   -2.606182    0.038386
   4 C     6.0000    0    12.011    6.525663    0.680910    1.409292
   5 N     7.0000    0    14.007    4.836104   -0.128713   -0.319696
   6 C     6.0000    0    12.011    2.666235    0.998193   -0.584817
   7 C     6.0000    0    12.011    0.853765    0.123091   -2.606626
   8 C     6.0000    0    12.011    1.038361    1.904719   -4.881508
   9 C     6.0000    0    12.011    1.435674   -2.607626   -3.371615
  10 N     7.0000    0    14.007   -1.722429    0.282541   -1.610886
  11 C     6.0000    0    12.011   -2.340191   -0.810653    0.613568
  12 O     8.0000    0    15.999   -0.834458   -1.782991    2.062725
  13 C     6.0000    0    12.011   -5.084558   -0.705456    1.147600
  14 N     7.0000    0    14.007   -6.217930   -1.692288    3.191211
  15 N     7.0000    0    14.007   -8.608748   -1.358581    2.984872
  16 C     6.0000    0    12.011   -9.140388   -0.083753    0.642987
  17 C     6.0000    0    12.011  -10.728614   -1.771187   -1.089153
  18 C     6.0000    0    12.011  -10.392186    2.475588    1.137946
  19 O     8.0000    0    15.999   -6.697830    0.291885   -0.456350
  20 N     7.0000    0    14.007    2.014193    3.052393    0.806843
  21 C     6.0000    0    12.011    3.496411    4.060587    2.709642
  22 O     8.0000    0    15.999    2.760174    5.872861    3.913744
  23 C     6.0000    0    12.011    6.015333    2.750753    3.104442
  24 O     8.0000    0    15.999    7.433856    3.502798    4.782789
  25 H     1.0000    0     1.008   12.769877   -3.139606    3.671861
  26 H     1.0000    0     1.008   14.280774   -0.171623    4.254514
  27 H     1.0000    0     1.008   13.840001   -1.269520    1.087137
  28 H     1.0000    0     1.008   -0.282612    1.308295   -6.339370
  29 H     1.0000    0     1.008    0.588676    3.829598   -4.315443
  30 H     1.0000    0     1.008    2.948007    1.857714   -5.646511
  31 H     1.0000    0     1.008    3.347467   -2.708635   -4.126423
  32 H     1.0000    0     1.008    1.295969   -3.846621   -1.733725
  33 H     1.0000    0     1.008    0.098761   -3.221972   -4.805910
  34 H     1.0000    0     1.008   -3.098427    0.927364   -2.749533
  35 H     1.0000    0     1.008   -9.740002   -3.545665   -1.405028
  36 H     1.0000    0     1.008  -12.544097   -2.136307   -0.199668
  37 H     1.0000    0     1.008  -11.012014   -0.815457   -2.885194
  38 H     1.0000    0     1.008  -10.612505    3.471538   -0.644928
  39 H     1.0000    0     1.008   -9.210760    3.583847    2.404011
  40 H     1.0000    0     1.008  -12.233435    2.171050    1.996760
  41 H     1.0000    0     1.008    0.344163    3.904873    0.477434

--------------------------------
INTERNAL COORDINATES (ANGSTROEM)
--------------------------------
 C      0   0   0     0.000000000000     0.00000000     0.00000000
 O      1   0   0     1.427773806044     0.00000000     0.00000000
 C      2   1   0     1.334017183620   116.34633935     0.00000000
 O      3   2   1     1.214723157439   122.73435824     0.34490635
 C      3   2   1     1.485921871395   114.02925602   180.81855735
 N      5   3   2     1.349090293351   113.25776351   175.66297687
 C      6   5   3     1.301446347158   120.81758107   181.87685155
 C      7   6   5     1.509645468315   119.76089687   177.46527929
 C      8   7   6     1.532181878538   109.12097761   259.61875676
 C      8   7   6     1.531932860083   110.42122909    22.00623294
 N      8   7   6     1.463985427942   108.59377781   142.28915444
 C     11   8   7     1.351723611093   120.92887290   307.60489395
 O     12  11   8     1.219719810384   124.75449259     7.12106156
 C     12  11   8     1.480543158899   112.78984654   186.85398512
 N     14  12  11     1.342349980568   125.26820219   178.48090031
 N     15  14  12     1.282088722264   108.58449093   182.96267742
 C     16  15  14     1.438763857034   109.32312944     0.53101909
 C     17  16  15     1.530978960794   110.46035017   116.65982527
 C     17  16  15     1.530247437572   110.62187486   241.75584453
 O     14  12  11     1.314448218008   121.93214436     1.96466268
 N      7   6   5     1.357586283312   122.18522362     1.38025782
 C     21   7   6     1.383377864009   124.02368997   356.36873238
 O     22  21   7     1.215523832627   120.27137884   181.64101711
 C      5   3   2     1.441289094126   124.10813154   355.34821669
 O     24   5   3     1.229084843359   125.54686673   357.14954545
 H      1   2   3     1.092639858192   110.22065598   295.64402099
 H      1   2   3     1.088172444973   106.76833797   175.89305474
 H      1   2   3     1.092624934759   110.17861867    56.15791844
 H      9   8   7     1.087848827699   109.73637167   180.88836385
 H      9   8   7     1.088074458470   110.23045531   300.99953292
 H      9   8   7     1.088895164945   109.70689191    61.12153406
 H     10   8   7     1.088985489785   109.26656714   299.10804538
 H     10   8   7     1.089296848293   110.11191142    58.77998687
 H     10   8   7     1.087321915955   109.61517963   179.11461494
 H     11   8   7     1.004835767079   118.58959086   139.05353252
 H     18  17  16     1.087829418009   109.35728853   303.06585807
 H     18  17  16     1.087130439891   109.24239613    63.21161193
 H     18  17  16     1.087005314954   109.13816946   183.31616178
 H     19  17  16     1.086952999368   109.08693772   174.76633107
 H     19  17  16     1.087961419725   109.49566533    54.87872025
 H     19  17  16     1.087134511760   109.16742724   294.73978022
 H     21   7   6     1.007416958954   119.18614994   177.29216778

---------------------------
INTERNAL COORDINATES (A.U.)
---------------------------
 C      0   0   0     0.000000000000     0.00000000     0.00000000
 O      1   0   0     2.698101474609     0.00000000     0.00000000
 C      2   1   0     2.520927134987   116.34633935     0.00000000
 O      3   2   1     2.295494096091   122.73435824     0.34490635
 C      3   2   1     2.807985393340   114.02925602   180.81855735
 N      5   3   2     2.549411184364   113.25776351   175.66297687
 C      6   5   3     2.459377174120   120.81758107   181.87685155
 C      7   6   5     2.852816494431   119.76089687   177.46527929
 C      8   7   6     2.895404137794   109.12097761   259.61875676
 C      8   7   6     2.894933561112   110.42122909    22.00623294
 N      8   7   6     2.766531522862   108.59377781   142.28915444
 C     11   8   7     2.554387433720   120.92887290   307.60489395
 O     12  11   8     2.304936401743   124.75449259     7.12106156
 C     12  11   8     2.797821099771   112.78984654   186.85398512
 N     14  12  11     2.536673839147   125.26820219   178.48090031
 N     15  14  12     2.422796564468   108.58449093   182.96267742
 C     16  15  14     2.718869661179   109.32312944     0.53101909
 C     17  16  15     2.893130952696   110.46035017   116.65982527
 C     17  16  15     2.891748574145   110.62187486   241.75584453
 O     14  12  11     2.483947149256   121.93214436     1.96466268
 N      7   6   5     2.565466278628   122.18522362     1.38025782
 C     21   7   6     2.614205302705   124.02368997   356.36873238
 O     22  21   7     2.297007152920   120.27137884   181.64101711
 C      5   3   2     2.723641667705   124.10813154   355.34821669
 O     24   5   3     2.322633749301   125.54686673   357.14954545
 H      1   2   3     2.064790094990   110.22065598   295.64402099
 H      1   2   3     2.056347907478   106.76833797   175.89305474
 H      1   2   3     2.064761893788   110.17861867    56.15791844
 H      9   8   7     2.055736359458   109.73637167   180.88836385
 H      9   8   7     2.056162739822   110.23045531   300.99953292
 H      9   8   7     2.057713650297   109.70689191    61.12153406
 H     10   8   7     2.057884339508   109.26656714   299.10804538
 H     10   8   7     2.058472721817   110.11191142    58.77998687
 H     10   8   7     2.054740640565   109.61517963   179.11461494
 H     11   8   7     1.898864409348   118.58959086   139.05353252
 H     18  17  16     2.055699680460   109.35728853   303.06585807
 H     18  17  16     2.054378803244   109.24239613    63.21161193
 H     18  17  16     2.054142351380   109.13816946   183.31616178
 H     19  17  16     2.054043489251   109.08693772   174.76633107
 H     19  17  16     2.055949127552   109.49566533    54.87872025
 H     19  17  16     2.054386497960   109.16742724   294.73978022
 H     21   7   6     1.903742155092   119.18614994   177.29216778

---------------------
BASIS SET INFORMATION
---------------------
There are 4 groups of distinct atoms

 Group   1 Type C   : 11s6p1d contracted to 5s3p1d pattern {62111/411/1}
 Group   2 Type O   : 11s6p2d contracted to 5s3p2d pattern {62111/411/11}
 Group   3 Type N   : 11s6p2d contracted to 5s3p2d pattern {62111/411/11}
 Group   4 Type H   : 4s1p contracted to 2s1p pattern {31/1}

Atom   0C    basis set group =>   1
Atom   1O    basis set group =>   2
Atom   2C    basis set group =>   1
Atom   3O    basis set group =>   2
Atom   4C    basis set group =>   1
Atom   5N    basis set group =>   3
Atom   6C    basis set group =>   1
Atom   7C    basis set group =>   1
Atom   8C    basis set group =>   1
Atom   9C    basis set group =>   1
Atom  10N    basis set group =>   3
Atom  11C    basis set group =>   1
Atom  12O    basis set group =>   2
Atom  13C    basis set group =>   1
Atom  14N    basis set group =>   3
Atom  15N    basis set group =>   3
Atom  16C    basis set group =>   1
Atom  17C    basis set group =>   1
Atom  18C    basis set group =>   1
Atom  19O    basis set group =>   2
Atom  20N    basis set group =>   3
Atom  21C    basis set group =>   1
Atom  22O    basis set group =>   2
Atom  23C    basis set group =>   1
Atom  24O    basis set group =>   2
Atom  25H    basis set group =>   4
Atom  26H    basis set group =>   4
Atom  27H    basis set group =>   4
Atom  28H    basis set group =>   4
Atom  29H    basis set group =>   4
Atom  30H    basis set group =>   4
Atom  31H    basis set group =>   4
Atom  32H    basis set group =>   4
Atom  33H    basis set group =>   4
Atom  34H    basis set group =>   4
Atom  35H    basis set group =>   4
Atom  36H    basis set group =>   4
Atom  37H    basis set group =>   4
Atom  38H    basis set group =>   4
Atom  39H    basis set group =>   4
Atom  40H    basis set group =>   4
Atom  41H    basis set group =>   4
---------------------------------
AUXILIARY/J BASIS SET INFORMATION
---------------------------------
There are 4 groups of distinct atoms

 Group   1 Type C   : 8s3p3d contracted to 6s3p3d pattern {311111/111/111}
 Group   2 Type O   : 8s3p3d contracted to 6s3p3d pattern {311111/111/111}
 Group   3 Type N   : 8s3p3d contracted to 6s3p3d pattern {311111/111/111}
 Group   4 Type H   : 5s2p1d contracted to 3s1p1d pattern {311/2/1}

Atom   0C    basis set group =>   1
Atom   1O    basis set group =>   2
Atom   2C    basis set group =>   1
Atom   3O    basis set group =>   2
Atom   4C    basis set group =>   1
Atom   5N    basis set group =>   3
Atom   6C    basis set group =>   1
Atom   7C    basis set group =>   1
Atom   8C    basis set group =>   1
Atom   9C    basis set group =>   1
Atom  10N    basis set group =>   3
Atom  11C    basis set group =>   1
Atom  12O    basis set group =>   2
Atom  13C    basis set group =>   1
Atom  14N    basis set group =>   3
Atom  15N    basis set group =>   3
Atom  16C    basis set group =>   1
Atom  17C    basis set group =>   1
Atom  18C    basis set group =>   1
Atom  19O    basis set group =>   2
Atom  20N    basis set group =>   3
Atom  21C    basis set group =>   1
Atom  22O    basis set group =>   2
Atom  23C    basis set group =>   1
Atom  24O    basis set group =>   2
Atom  25H    basis set group =>   4
Atom  26H    basis set group =>   4
Atom  27H    basis set group =>   4
Atom  28H    basis set group =>   4
Atom  29H    basis set group =>   4
Atom  30H    basis set group =>   4
Atom  31H    basis set group =>   4
Atom  32H    basis set group =>   4
Atom  33H    basis set group =>   4
Atom  34H    basis set group =>   4
Atom  35H    basis set group =>   4
Atom  36H    basis set group =>   4
Atom  37H    basis set group =>   4
Atom  38H    basis set group =>   4
Atom  39H    basis set group =>   4
Atom  40H    basis set group =>   4
Atom  41H    basis set group =>   4


           ************************************************************
           *        Program running with 4 parallel MPI-processes     *
           *              working on a common directory               *
           ************************************************************
------------------------------------------------------------------------------
                           ORCA GTO INTEGRAL CALCULATION
                           -- RI-GTO INTEGRALS CHOSEN --
------------------------------------------------------------------------------
------------------------------------------------------------------------------
                   ___                                                        
                  /   \      - P O W E R E D   B Y -                         
                 /     \                                                     
                 |  |  |   _    _      __       _____    __    __             
                 |  |  |  | |  | |    /  \     |  _  \  |  |  /  |          
                  \  \/   | |  | |   /    \    | | | |  |  | /  /          
                 / \  \   | |__| |  /  /\  \   | |_| |  |  |/  /          
                |  |  |   |  __  | /  /__\  \  |    /   |      \           
                |  |  |   | |  | | |   __   |  |    \   |  |\   \          
                \     /   | |  | | |  |  |  |  | |\  \  |  | \   \       
                 \___/    |_|  |_| |__|  |__|  |_| \__\ |__|  \__/        
                                                                              
                      - O R C A' S   B I G   F R I E N D -                    
                                      &                                       
                       - I N T E G R A L  F E E D E R -                       
                                                                              
 v1 FN, 2020, v2 2021                                                         
------------------------------------------------------------------------------


Reading SHARK input file /lustre/hpc/kemi/ree/PhD/git/ReactivityQM/calculations/R02oxygendeprot/reac01prodN13/conf13/gfn1/orca_calc.SHARKINP.tmp ... ok
----------------------
SHARK INTEGRAL PACKAGE
----------------------

Number of atoms                             ...     42
Number of basis functions                   ...    615
Number of shells                            ...    287
Maximum angular momentum                    ...      2
Integral batch strategy                     ... SHARK/LIBINT Hybrid
RI-J (if used) integral strategy            ... SPLIT-RIJ (Revised 2003 algorithm where possible)
Printlevel                                  ...      1
Contraction scheme used                     ... SEGMENTED contraction
Coulomb Range Separation                    ... NOT USED
Exchange Range Separation                   ... NOT USED
Finite Nucleus Model                        ... NOT USED
Auxiliary Coulomb fitting basis             ... AVAILABLE
   # of basis functions in Aux-J            ...    937
   # of shells in Aux-J                     ...    385
   Maximum angular momentum in Aux-J        ...      2
Auxiliary J/K fitting basis                 ... NOT available
Auxiliary Correlation fitting basis         ... NOT available
Auxiliary 'external' fitting basis          ... NOT available
Integral threshold                          ...     1.000000e-10
Primitive cut-off                           ...     1.000000e-11
Primitive pair pre-selection threshold      ...     1.000000e-11

Calculating pre-screening integrals         ... done (  0.2 sec) Dimension = 287
Organizing shell pair data                  ... done (  0.2 sec)
Shell pair information
Total number of shell pairs                 ...     41328
Shell pairs after pre-screening             ...     25788
Total number of primitive shell pairs       ...    149932
Primitive shell pairs kept                  ...     58175
          la=0 lb=0:   7276 shell pairs
          la=1 lb=0:   9322 shell pairs
          la=1 lb=1:   2964 shell pairs
          la=2 lb=0:   3532 shell pairs
          la=2 lb=1:   2242 shell pairs
          la=2 lb=2:    452 shell pairs

Calculating one electron integrals          ... done (  0.1 sec)
Calculating RI/J V-Matrix + Cholesky decomp.... done (  0.1 sec)
Calculating Nuclear repulsion               ... done (  0.0 sec) ENN=   2264.519145215525 Eh

SHARK setup successfully completed in   0.6 seconds

Maximum memory used throughout the entire GTOINT-calculation: 38.4 MB


           ************************************************************
           *        Program running with 4 parallel MPI-processes     *
           *              working on a common directory               *
           ************************************************************
-------------------------------------------------------------------------------
                                 ORCA SCF
-------------------------------------------------------------------------------

------------
SCF SETTINGS
------------
Hamiltonian:
 Density Functional     Method          .... DFT(GTOs)
  Functional kind                       .... Exchange
  Functional name                       .... Re-regularized SCAN exchange by Furness et al
  Functional family                     .... MGGA
  Functional refs                              
    [ 0] J. W. Furness, A. D. Kaplan, J. Ning, J. P. Perdew, and J. Sun, J. Phys. Chem. Lett. 11, 8208 (2020)
    [ 1] J. W. Furness, A. D. Kaplan, J. Ning, J. P. Perdew, and J. Sun, J. Phys. Chem. Lett. 11, 9248 (2020)
  Functional external parameters         .... 8
 Parameter  0 :         c1 parameter
 Parameter  1 :         c2 parameter
 Parameter  2 :          d parameter
 Parameter  3 :         k1 parameter
 Parameter  4 :       taur parameter
 Parameter  5 :     alphar parameter
 Parameter  6 :        eta parameter
 Parameter  7 :        dp2 parameter
  Functional kind                       .... Correlation
  Functional name                       .... Re-regularized SCAN correlation by Furness et al
  Functional family                     .... MGGA
  Functional refs                              
    [ 0] J. W. Furness, A. D. Kaplan, J. Ning, J. P. Perdew, and J. Sun, J. Phys. Chem. Lett. 11, 8208 (2020)
    [ 1] J. W. Furness, A. D. Kaplan, J. Ning, J. P. Perdew, and J. Sun, J. Phys. Chem. Lett. 11, 9248 (2020)
  Functional external parameters         .... 0
 Gradients option       PostSCFGGA      .... off
   Density functional embedding theory  .... OFF
 RI-approximation to the Coulomb term is turned on
   Number of AuxJ basis functions       .... 937


General Settings:
 Integral files         IntName         .... /lustre/hpc/kemi/ree/PhD/git/ReactivityQM/calculations/R02oxygendeprot/reac01prodN13/conf13/gfn1/orca_calc
 Hartree-Fock type      HFTyp           .... RHF
 Total Charge           Charge          ....    0
 Multiplicity           Mult            ....    1
 Number of Electrons    NEL             ....  184
 Basis Dimension        Dim             ....  615
 Nuclear Repulsion      ENuc            ....   2264.5191452155 Eh

Convergence Acceleration:
 DIIS                   CNVDIIS         .... on
   Start iteration      DIISMaxIt       ....    12
   Startup error        DIISStart       ....  0.200000
   # of expansion vecs  DIISMaxEq       ....     5
   Bias factor          DIISBfac        ....   1.050
   Max. coefficient     DIISMaxC        ....  10.000
 Trust-Rad. Augm. Hess. CNVTRAH         .... auto
   Auto Start mean grad. ratio tolernc. ....  1.125000
   Auto Start start iteration           ....    20
   Auto Start num. interpolation iter.  ....    10
   Max. Number of Micro iterations      ....    16
   Max. Number of Macro iterations      .... Maxiter - #DIIS iter
   Number of Davidson start vectors     ....     2
   Converg. threshold I  (grad. norm)   ....   5.000e-05
   Converg. threshold II (energy diff.) ....   1.000e-06
   Grad. Scal. Fac. for Micro threshold ....   0.100
   Minimum threshold for Micro iter.    ....   0.010
   NR start threshold (gradient norm)   ....   0.001
   Initial trust radius                 ....   0.400
   Minimum AH scaling param. (alpha)    ....   1.000
   Maximum AH scaling param. (alpha)    .... 1000.000
   Orbital update algorithm             .... Taylor
   White noise on init. David. guess    .... on
   Maximum white noise                  ....   0.010
   Quad. conv. algorithm                .... NR
   COSX micro iterations for RIJONX calc.... off
 SOSCF                  CNVSOSCF        .... on
   Start iteration      SOSCFMaxIt      ....   150
   Startup grad/error   SOSCFStart      ....  0.003300
 Level Shifting         CNVShift        .... on
   Level shift para.    LevelShift      ....    0.2500
   Turn off err/grad.   ShiftErr        ....    0.0010
 Zerner damping         CNVZerner       .... off
 Static damping         CNVDamp         .... on
   Fraction old density DampFac         ....    0.7000
   Max. Damping (<1)    DampMax         ....    0.9800
   Min. Damping (>=0)   DampMin         ....    0.0000
   Turn off err/grad.   DampErr         ....    0.1000
 Fernandez-Rico         CNVRico         .... off

SCF Procedure:
 Maximum # iterations   MaxIter         ....   125
 SCF integral mode      SCFMode         .... Direct
   Integral package                     .... SHARK and LIBINT hybrid scheme
 Reset frequency        DirectResetFreq ....    20
 Integral Threshold     Thresh          ....  1.000e-10 Eh
 Primitive CutOff       TCut            ....  1.000e-11 Eh

Convergence Tolerance:
 Convergence Check Mode ConvCheckMode   .... Total+1el-Energy
 Convergence forced     ConvForced      .... 0
 Energy Change          TolE            ....  1.000e-06 Eh
 1-El. energy change                    ....  1.000e-03 Eh
 Orbital Gradient       TolG            ....  5.000e-05
 Orbital Rotation angle TolX            ....  5.000e-05
 DIIS Error             TolErr          ....  1.000e-06


Diagonalization of the overlap matrix:
Smallest eigenvalue                        ... 1.669e-05
Time for diagonalization                   ...    0.073 sec
Threshold for overlap eigenvalues          ... 1.000e-08
Number of eigenvalues below threshold      ... 0
Time for construction of square roots      ...    0.052 sec
Total time needed                          ...    0.126 sec

Time for model grid setup =    0.642 sec

------------------------------
INITIAL GUESS: MODEL POTENTIAL
------------------------------
Loading Hartree-Fock densities                     ... done
Calculating cut-offs                               ... done
Initializing the effective Hamiltonian             ... done
Setting up the integral package (SHARK)            ... done
Starting the Coulomb interaction                   ... done (   0.7 sec)
Reading the grid                                   ... done
Mapping shells                                     ... done
Starting the XC term evaluation                    ... done (   0.5 sec)
  promolecular density results
     # of electrons  =    183.993770505
     EX              =   -158.314175283
     EC              =     -6.248481233
     EX+EC           =   -164.562656516
Transforming the Hamiltonian                       ... done (   0.0 sec)
Diagonalizing the Hamiltonian                      ... done (   0.1 sec)
Back transforming the eigenvectors                 ... done (   0.0 sec)
Now organizing SCF variables                       ... done
                      ------------------
                      INITIAL GUESS DONE (   2.0 sec)
                      ------------------
-------------------
DFT GRID GENERATION
-------------------

General Integration Accuracy     IntAcc      ... 4.388
Radial Grid Type                 RadialGrid  ... OptM3 with GC (2021)
Angular Grid (max. ang.)         AngularGrid ... 4 (Lebedev-302)
Angular grid pruning method      GridPruning ... 4 (adaptive)
Weight generation scheme         WeightScheme... Becke
Basis function cutoff            BFCut       ... 1.0000e-10
Integration weight cutoff        WCut        ... 1.0000e-14
Angular grids for H and He will be reduced by one unit
Partially contracted basis set               ... off
Rotationally invariant grid construction     ... off

Total number of grid points                  ...   205955
Total number of batches                      ...     3239
Average number of points per batch           ...       63
Average number of grid points per atom       ...     4904
Time for grid setup =    2.198 sec


--------------------
CPCM SOLVATION MODEL
--------------------
CPCM parameters:
  Epsilon                                         ...      46.8260
  Refrac                                          ...       1.4170
  Rsolv                                           ...       1.3000
  Surface type                                    ... GAUSSIAN VDW
  Epsilon function type                           ...         CPCM
Solvent:                                     ... DMSO
SMD-CDS solvent descriptors:
  Soln                                       ...    1.4170
  Soln25                                     ...    1.4773
  Sola                                       ...    0.0000
  Solb                                       ...    0.8800
  Solg                                       ...   61.7800
  Solc                                       ...    0.0000
  Solh                                       ...    0.0000
Radii:
 Radius for C  used is    3.4960 Bohr (=   1.8500 Ang.)
 Radius for O  used is    4.3350 Bohr (=   2.2940 Ang.)
 Radius for N  used is    3.5716 Bohr (=   1.8900 Ang.)
 Radius for H  used is    2.2677 Bohr (=   1.2000 Ang.)
Calculating surface                               ...        done! (  0.0s)
GEPOL surface points                              ...         2129
GEPOL Volume                                      ...    2837.7981
GEPOL Surface-area                                ...    1424.3880
Calculating surface distance matrix               ...        done! (  0.0s)
Performing Cholesky decomposition & store         ...        done! (  0.2s)
Overall time for CPCM initialization              ...                 0.2s
--------------
SCF ITERATIONS
--------------
ITER       Energy         Delta-E        Max-DP      RMS-DP      [F,P]     Damp
               ***  Starting incremental Fock matrix formation  ***
  0  -1267.8089624901   0.000000000000 0.57600589  0.00291161  0.3040416 0.7000
  1  -1268.1838401725  -0.374877682394 0.19963753  0.00142242  0.0990262 0.7000
                               ***Turning on DIIS***
  2  -1268.2355819460  -0.051741773489 0.28577209  0.00302126  0.0922637 0.0000
  3  -1268.3626824402  -0.127100494246 0.06798449  0.00056078  0.1686899 0.7000
  4  -1268.4290270582  -0.066344617956 0.04340324  0.00057257  0.1657868 0.7000
  5  -1268.4789669771  -0.049939918921 0.03335403  0.00051330  0.1521367 0.7000
  6  -1268.5085713791  -0.029604402026 0.03136193  0.00045360  0.1362028 0.7000
  7  -1268.5251249492  -0.016553570083 0.15305191  0.00094205  0.1222220 0.7000
  8  -1268.5524435918  -0.027318642587 0.19450817  0.00136908  0.0311027 0.0000
  9  -1268.5782396508  -0.025796059015 0.09432256  0.00051752  0.0380533 0.0000
 10  -1268.5839225601  -0.005682909239 0.01781074  0.00018301  0.0049229 0.0000
 11  -1268.5844148632  -0.000492303148 0.02317169  0.00010426  0.0052749 0.0000
                      *** Initiating the SOSCF procedure ***
                           *** Shutting down DIIS ***
                      *** Re-Reading the Fockian *** 
                      *** Removing any level shift *** 
ITER      Energy       Delta-E        Grad      Rot      Max-DP    RMS-DP
 12  -1268.58459483  -0.0001799716  0.002241  0.002241  0.010028  0.000058
               *** Restarting incremental Fock matrix formation ***
 13  -1268.58473266  -0.0001378204  0.002557  0.051132  0.015567  0.000175
 14  -1268.58530229  -0.0005696321  0.003711  1.744688  0.595109  0.003696

          ************************************************************
          *                     SERIOUS PROBLEM IN SOSCF             *
          *                     ------------------------             *
          *                  LARGE STEP WAS ABOUT TO BE TAKEN        *
          *                         ABORTING THE RUN                 *
          ************************************************************
              ***Rediagonalizing the Fockian in SOSCF/NRSCF***

TRAH GRID
---------

General Integration Accuracy     IntAcc      ... 3.467
Radial Grid Type                 RadialGrid  ... OptM3 with GC (2021)
Angular Grid (max. ang.)         AngularGrid ... 1 (Lebedev-50)
Angular grid pruning method      GridPruning ... 4 (adaptive)
Weight generation scheme         WeightScheme... Becke
Basis function cutoff            BFCut       ... 1.0000e-10
Integration weight cutoff        WCut        ... 1.0000e-14
Angular grids for H and He will be reduced by one unit
Partially contracted basis set               ... off
Rotationally invariant grid construction     ... off

Total number of grid points                  ...    30337
Total number of batches                      ...      497
Average number of points per batch           ...       61
Average number of grid points per atom       ...      722

 --------------------------------------------------------------------------------------------
   Iter.        energy            ||Error||_2        Shift      TRadius  Mac/Mic        Rej.
 --------------------------------------------------------------------------------------------
WARNING: 24 diagonal Hessian elements are negative!
    0      -1268.335613154072     1.536908e+00                     0.400 (TRAH MAcro)   No
WARNING : negative HOMO - LUMO gap : -0.337903
    0     dE    -1.025999e-01     2.001610e+00    -2.0172e-01      0.131 (TRAH MIcro)
    0     dE    -1.761403e-01     4.255111e-01    -3.2094e-01      0.312 (TRAH MIcro)
    0     dE    -1.897235e-01     2.462454e-01    -3.4179e-01      0.332 (TRAH MIcro)
    0     dE    -2.275071e-01     4.092017e-01    -8.7151e-01      0.400 (TRAH MIcro)
    0     dE    -2.433884e-01     3.345969e-01    -1.2282e+00      0.400 (TRAH MIcro)
    0     dE    -1.608635e-01     5.252852e-01    -2.0583e+00      0.204 (TRAH MIcro)
    0     dE    -1.585892e-01     6.103227e-02    -2.1204e+00      0.186 (TRAH MIcro)
    0     dE    -1.584840e-01     1.514742e-02    -2.1226e+00      0.186 (TRAH MIcro)
    0     dE    -1.584540e-01     4.447339e-03    -2.1227e+00      0.186 (TRAH MIcro)
WARNING: 8 diagonal Hessian elements are negative!
    1      -1268.492303690696     3.687373e-01                     0.480 (TRAH MAcro)   No
WARNING : negative HOMO - LUMO gap : -0.184373
    1     dE    -1.231818e-02     4.172630e-01    -2.4528e-02      0.067 (TRAH MIcro)
    1     dE    -2.699999e-02     2.988714e-01    -5.0379e-02      0.268 (TRAH MIcro)
    1     dE    -3.702885e-02     2.368800e-01    -6.5466e-02      0.362 (TRAH MIcro)
    1     dE    -7.961734e-02     6.420389e-01    -3.8984e-01      0.480 (TRAH MIcro)
    1     dE    -1.100658e-01     2.123094e-01    -7.0071e-01      0.480 (TRAH MIcro)
    1     dE    -4.239143e-02     1.467547e-01    -9.2956e-01      0.223 (TRAH MIcro)
    1     dE    -4.185212e-02     4.025526e-02    -9.4456e-01      0.217 (TRAH MIcro)
    1     dE    -4.143396e-02     1.095260e-02    -9.4591e-01      0.214 (TRAH MIcro)
    1     dE    -4.115727e-02     3.419632e-03    -9.4609e-01      0.213 (TRAH MIcro)
WARNING: 2 diagonal Hessian elements are negative!
    2      -1268.528590793002     1.425184e-01                     0.576 (TRAH MAcro)   No
WARNING : negative HOMO - LUMO gap : -0.101035
    2     dE    -1.069212e-02     6.731417e-01    -2.0932e-02      0.147 (TRAH MIcro)
    2     dE    -3.655871e-02     6.418681e-01    -5.8949e-02      0.490 (TRAH MIcro)
    2     dE    -7.483524e-02     4.786742e-01    -2.6351e-01      0.558 (TRAH MIcro)
    2     dE    -8.004441e-02     2.026969e-01    -4.8227e-01      0.466 (TRAH MIcro)
    2     dE    -9.171762e-02     8.350731e-02    -5.0931e-01      0.495 (TRAH MIcro)
    2     dE    -9.309745e-02     3.117281e-02    -5.1209e-01      0.499 (TRAH MIcro)
    2     dE    -9.358168e-02     1.759813e-02    -5.1278e-01      0.500 (TRAH MIcro)
    2     dE    -9.395438e-02     1.429177e-02    -5.1303e-01      0.501 (TRAH MIcro)
    2     dE    -9.423652e-02     6.745793e-03    -5.1314e-01      0.502 (TRAH MIcro)
WARNING: 1 diagonal Hessian elements are negative!
    3      -1268.583317563233     2.903923e-01                     0.576 (TRAH MAcro)   No
WARNING : negative HOMO - LUMO gap : -0.005641
    3     dE    -4.561695e-03     3.248395e-01    -9.1144e-03      0.031 (TRAH MIcro)
    3     dE    -1.122346e-02     1.314254e-01    -2.1785e-02      0.174 (TRAH MIcro)
    3     dE    -1.294942e-02     8.508506e-02    -2.4821e-02      0.208 (TRAH MIcro)
    3     dE    -1.419625e-02     7.492567e-02    -2.6982e-02      0.229 (TRAH MIcro)
    3     dE    -1.473021e-02     4.659371e-02    -2.7929e-02      0.234 (TRAH MIcro)
    3     dE    -1.481219e-02     1.679078e-02    -2.8093e-02      0.233 (TRAH MIcro)
    3     dE    -1.481914e-02     4.899161e-03    -2.8114e-02      0.233 (TRAH MIcro)
WARNING: 1 diagonal Hessian elements are negative!
    4      -1268.598002291169     2.825932e-02                     0.691 (TRAH MAcro)   No
WARNING : negative HOMO - LUMO gap : -0.002364
    4     dE    -3.298526e-05     3.362867e-02    -6.5970e-05      0.002 (TRAH MIcro)
    4     dE    -9.269272e-05     1.196194e-02    -1.8533e-04      0.017 (TRAH MIcro)
    4     dE    -1.013269e-04     6.587378e-03    -2.0256e-04      0.021 (TRAH MIcro)
    4     dE    -1.060621e-04     5.630119e-03    -2.1201e-04      0.023 (TRAH MIcro)
    4     dE    -1.091146e-04     4.457739e-03    -2.1811e-04      0.023 (TRAH MIcro)
    4     dE    -1.099333e-04     1.506965e-03    -2.1975e-04      0.023 (TRAH MIcro)
WARNING: 1 diagonal Hessian elements are negative!
    5      -1268.598114603406     1.567224e-03                     0.829 (TRAH MAcro)   No
WARNING : negative HOMO - LUMO gap : -0.002843
    5     dE    -2.879121e-08     2.631706e-03    -5.7690e-08      0.000 (TRAH MIcro)
    5     dE    -2.054872e-07     8.191082e-04    -4.1097e-07      0.001 (TRAH MIcro)
    5     dE    -2.658922e-07     3.339439e-04    -5.3178e-07      0.001 (TRAH MIcro)
    5     dE    -2.739942e-07     1.819580e-04    -5.4799e-07      0.001 (TRAH MIcro)
    5     dE    -2.787947e-07     1.934587e-04    -5.5759e-07      0.001 (TRAH MIcro)
    5     dE    -2.820096e-07     1.036009e-04    -5.6402e-07      0.001 (TRAH MIcro)
WARNING: 1 diagonal Hessian elements are negative!
    6      -1268.598114885641     1.035192e-04                           (NR   MAcro)
WARNING : negative HOMO - LUMO gap : -0.002866
    6     dE    -4.849673e-10     5.106809e-05                           (NR   MIcro)
    6     dE    -6.226271e-10     2.083910e-05                           (NR   MIcro)
    6     dE    -6.621747e-10     1.240543e-05                           (NR   MIcro)
    6     dE    -6.838662e-10     1.208894e-05                           (NR   MIcro)
    6     dE    -6.963088e-10     7.238371e-06                           (NR   MIcro)
    6     dE    -6.997684e-10     3.447981e-06                           (NR   MIcro)
WARNING: 1 diagonal Hessian elements are negative!
    7      -1268.598114887322     3.543058e-06                           (NR   MAcro)
WARNING : negative HOMO - LUMO gap : -0.002867

               *****************************************************
               *                     SUCCESS                       *
               *           SCF CONVERGED AFTER  75 CYCLES          *
               *****************************************************


SMD CDS free energy correction energy :                -0.63856     Kcal/mol
Total Energy after SMD CDS correction =             -1268.599132501 Eh

----------------
TOTAL SCF ENERGY
----------------

Total Energy       :        -1268.59913250 Eh          -34520.33738 eV

Components:
Nuclear Repulsion  :         2264.51914522 Eh           61620.69868 eV
Electronic Energy  :        -3533.11827772 Eh          -96141.03605 eV
One Electron Energy:        -6231.50319211 Eh         -169567.82252 eV
Two Electron Energy:         2698.38491440 Eh           73426.78647 eV
CPCM Dielectric    :           -0.06725188 Eh              -1.83002 eV
SMD CDS (Gcds)     :           -0.00101761 Eh              -0.02769 eV

Virial components:
Potential Energy   :        -2532.33999133 Eh          -68908.47440 eV
Kinetic Energy     :         1263.74085883 Eh           34388.13703 eV
Virial Ratio       :            2.00384436


DFT components:
N(Alpha)           :       91.999957680700 electrons
N(Beta)            :       91.999957680700 electrons
N(Total)           :      183.999915361401 electrons
E(X)               :     -161.911147579915 Eh       
E(C)               :       -6.115627514107 Eh       
E(XC)              :     -168.026775094022 Eh       
DFET-embed. en.    :        0.000000000000 Eh       
CPCM Solvation Model Properties:
Surface-charge          :           -0.03431314
Charge-correction       :            0.00025593 Eh               0.00696 eV
Free-energy (cav+disp)  :           -0.00101761 Eh              -0.02769 eV

---------------
SCF CONVERGENCE
---------------

  Last Energy change         ...   -1.6814e-09  Tolerance :   1.0000e-06
  Last Orbital Gradient      ...    3.5431e-06  Tolerance :   5.0000e-05
  Last Orbital Rotation      ...    4.1478e-05

             **** THE GBW FILE WAS UPDATED (/lustre/hpc/kemi/ree/PhD/git/ReactivityQM/calculations/R02oxygendeprot/reac01prodN13/conf13/gfn1/orca_calc.gbw) ****
             **** DENSITY /lustre/hpc/kemi/ree/PhD/git/ReactivityQM/calculations/R02oxygendeprot/reac01prodN13/conf13/gfn1/orca_calc.scfp WAS UPDATED ****
             **** ENERGY FILE WAS UPDATED (/lustre/hpc/kemi/ree/PhD/git/ReactivityQM/calculations/R02oxygendeprot/reac01prodN13/conf13/gfn1/orca_calc.en.tmp) ****
             **** THE GBW FILE WAS UPDATED (/lustre/hpc/kemi/ree/PhD/git/ReactivityQM/calculations/R02oxygendeprot/reac01prodN13/conf13/gfn1/orca_calc.gbw) ****
             **** DENSITY /lustre/hpc/kemi/ree/PhD/git/ReactivityQM/calculations/R02oxygendeprot/reac01prodN13/conf13/gfn1/orca_calc.scfp WAS UPDATED ****
----------------
ORBITAL ENERGIES
----------------

  NO   OCC          E(Eh)            E(eV) 
   0   2.0000     -19.062117      -518.7066 
   1   2.0000     -18.993709      -516.8451 
   2   2.0000     -18.949863      -515.6520 
   3   2.0000     -18.943173      -515.4700 
   4   2.0000     -18.929999      -515.1115 
   5   2.0000     -18.929769      -515.1052 
   6   2.0000     -14.234423      -387.3384 
   7   2.0000     -14.229761      -387.2115 
   8   2.0000     -14.228717      -387.1831 
   9   2.0000     -14.210827      -386.6963 
  10   2.0000     -14.170766      -385.6061 
  11   2.0000     -10.174086      -276.8510 
  12   2.0000     -10.167425      -276.6697 
  13   2.0000     -10.154433      -276.3162 
  14   2.0000     -10.153366      -276.2871 
  15   2.0000     -10.148241      -276.1477 
  16   2.0000     -10.133268      -275.7402 
  17   2.0000     -10.113534      -275.2033 
  18   2.0000     -10.108768      -275.0736 
  19   2.0000     -10.089695      -274.5546 
  20   2.0000     -10.072786      -274.0944 
  21   2.0000     -10.041880      -273.2534 
  22   2.0000     -10.041054      -273.2310 
  23   2.0000     -10.031344      -272.9667 
  24   2.0000     -10.020564      -272.6734 
  25   2.0000      -1.151249       -31.3271 
  26   2.0000      -1.069514       -29.1030 
  27   2.0000      -1.039374       -28.2828 
  28   2.0000      -1.033783       -28.1307 
  29   2.0000      -1.007708       -27.4211 
  30   2.0000      -0.989419       -26.9235 
  31   2.0000      -0.977800       -26.6073 
  32   2.0000      -0.968969       -26.3670 
  33   2.0000      -0.922123       -25.0922 
  34   2.0000      -0.883344       -24.0370 
  35   2.0000      -0.838814       -22.8253 
  36   2.0000      -0.786279       -21.3957 
  37   2.0000      -0.733928       -19.9712 
  38   2.0000      -0.721845       -19.6424 
  39   2.0000      -0.693335       -18.8666 
  40   2.0000      -0.683196       -18.5907 
  41   2.0000      -0.669116       -18.2076 
  42   2.0000      -0.663639       -18.0585 
  43   2.0000      -0.644178       -17.5290 
  44   2.0000      -0.629559       -17.1312 
  45   2.0000      -0.609970       -16.5981 
  46   2.0000      -0.596113       -16.2211 
  47   2.0000      -0.567331       -15.4379 
  48   2.0000      -0.546938       -14.8829 
  49   2.0000      -0.540126       -14.6976 
  50   2.0000      -0.526310       -14.3216 
  51   2.0000      -0.504076       -13.7166 
  52   2.0000      -0.496975       -13.5234 
  53   2.0000      -0.493940       -13.4408 
  54   2.0000      -0.461478       -12.5575 
  55   2.0000      -0.453845       -12.3497 
  56   2.0000      -0.449536       -12.2325 
  57   2.0000      -0.439112       -11.9489 
  58   2.0000      -0.435614       -11.8537 
  59   2.0000      -0.432769       -11.7762 
  60   2.0000      -0.428969       -11.6728 
  61   2.0000      -0.422154       -11.4874 
  62   2.0000      -0.412806       -11.2330 
  63   2.0000      -0.409748       -11.1498 
  64   2.0000      -0.397460       -10.8154 
  65   2.0000      -0.390520       -10.6266 
  66   2.0000      -0.389309       -10.5936 
  67   2.0000      -0.382433       -10.4065 
  68   2.0000      -0.378337       -10.2951 
  69   2.0000      -0.376176       -10.2363 
  70   2.0000      -0.375328       -10.2132 
  71   2.0000      -0.374004       -10.1772 
  72   2.0000      -0.362931        -9.8758 
  73   2.0000      -0.356085        -9.6896 
  74   2.0000      -0.353096        -9.6082 
  75   2.0000      -0.348434        -9.4814 
  76   2.0000      -0.342006        -9.3065 
  77   2.0000      -0.340409        -9.2630 
  78   2.0000      -0.339152        -9.2288 
  79   2.0000      -0.336669        -9.1612 
  80   2.0000      -0.327344        -8.9075 
  81   2.0000      -0.318686        -8.6719 
  82   2.0000      -0.280642        -7.6367 
  83   2.0000      -0.276825        -7.5328 
  84   2.0000      -0.270360        -7.3569 
  85   2.0000      -0.268652        -7.3104 
  86   2.0000      -0.263022        -7.1572 
  87   2.0000      -0.255368        -6.9489 
  88   2.0000      -0.252677        -6.8757 
  89   2.0000      -0.237718        -6.4686 
  90   2.0000      -0.208862        -5.6834 
  91   2.0000      -0.182431        -4.9642 
  92   0.0000      -0.185298        -5.0422 
  93   0.0000      -0.081857        -2.2274 
  94   0.0000      -0.077619        -2.1121 
  95   0.0000      -0.035813        -0.9745 
  96   0.0000       0.018450         0.5021 
  97   0.0000       0.036486         0.9928 
  98   0.0000       0.050579         1.3763 
  99   0.0000       0.063235         1.7207 
 100   0.0000       0.074786         2.0350 
 101   0.0000       0.085861         2.3364 
 102   0.0000       0.094048         2.5592 
 103   0.0000       0.100168         2.7257 
 104   0.0000       0.103294         2.8108 
 105   0.0000       0.109855         2.9893 
 106   0.0000       0.117963         3.2099 
 107   0.0000       0.121704         3.3117 
 108   0.0000       0.124308         3.3826 
 109   0.0000       0.128901         3.5076 
 110   0.0000       0.134000         3.6463 
 111   0.0000       0.139010         3.7827 
 112   0.0000       0.144123         3.9218 
 113   0.0000       0.148391         4.0379 
 114   0.0000       0.150055         4.0832 
 115   0.0000       0.150834         4.1044 
 116   0.0000       0.153817         4.1856 
 117   0.0000       0.158307         4.3078 
 118   0.0000       0.161922         4.4061 
 119   0.0000       0.166163         4.5215 
 120   0.0000       0.172602         4.6967 
 121   0.0000       0.174902         4.7593 
 122   0.0000       0.178507         4.8574 
 123   0.0000       0.183868         5.0033 
 124   0.0000       0.185570         5.0496 
 125   0.0000       0.187989         5.1154 
 126   0.0000       0.192481         5.2377 
 127   0.0000       0.195623         5.3232 
 128   0.0000       0.200027         5.4430 
 129   0.0000       0.201262         5.4766 
 130   0.0000       0.203985         5.5507 
 131   0.0000       0.206874         5.6293 
 132   0.0000       0.209791         5.7087 
 133   0.0000       0.213172         5.8007 
 134   0.0000       0.217084         5.9072 
 135   0.0000       0.218352         5.9417 
 136   0.0000       0.223021         6.0687 
 137   0.0000       0.225249         6.1293 
 138   0.0000       0.228173         6.2089 
 139   0.0000       0.232692         6.3319 
 140   0.0000       0.238772         6.4973 
 141   0.0000       0.244038         6.6406 
 142   0.0000       0.246738         6.7141 
 143   0.0000       0.252269         6.8646 
 144   0.0000       0.258604         7.0370 
 145   0.0000       0.262538         7.1440 
 146   0.0000       0.270280         7.3547 
 147   0.0000       0.272623         7.4185 
 148   0.0000       0.273483         7.4418 
 149   0.0000       0.275675         7.5015 
 150   0.0000       0.283239         7.7073 
 151   0.0000       0.288139         7.8407 
 152   0.0000       0.294571         8.0157 
 153   0.0000       0.300176         8.1682 
 154   0.0000       0.304382         8.2827 
 155   0.0000       0.310127         8.4390 
 156   0.0000       0.314766         8.5652 
 157   0.0000       0.316388         8.6093 
 158   0.0000       0.319690         8.6992 
 159   0.0000       0.322974         8.7886 
 160   0.0000       0.327456         8.9105 
 161   0.0000       0.333159         9.0657 
 162   0.0000       0.340112         9.2549 
 163   0.0000       0.345853         9.4111 
 164   0.0000       0.349636         9.5141 
 165   0.0000       0.354617         9.6496 
 166   0.0000       0.357432         9.7262 
 167   0.0000       0.365008         9.9324 
 168   0.0000       0.367144         9.9905 
 169   0.0000       0.376183        10.2365 
 170   0.0000       0.377324        10.2675 
 171   0.0000       0.388168        10.5626 
 172   0.0000       0.392970        10.6933 
 173   0.0000       0.394014        10.7217 
 174   0.0000       0.399151        10.8615 
 175   0.0000       0.404557        11.0085 
 176   0.0000       0.405928        11.0459 
 177   0.0000       0.414274        11.2730 
 178   0.0000       0.416736        11.3400 
 179   0.0000       0.426213        11.5979 
 180   0.0000       0.435108        11.8399 
 181   0.0000       0.438917        11.9435 
 182   0.0000       0.441689        12.0190 
 183   0.0000       0.443401        12.0656 
 184   0.0000       0.448813        12.2128 
 185   0.0000       0.458495        12.4763 
 186   0.0000       0.469257        12.7691 
 187   0.0000       0.473863        12.8945 
 188   0.0000       0.478317        13.0157 
 189   0.0000       0.481219        13.0946 
 190   0.0000       0.484321        13.1791 
 191   0.0000       0.490513        13.3475 
 192   0.0000       0.492787        13.4094 
 193   0.0000       0.498358        13.5610 
 194   0.0000       0.508348        13.8328 
 195   0.0000       0.514669        14.0048 
 196   0.0000       0.517184        14.0733 
 197   0.0000       0.523241        14.2381 
 198   0.0000       0.527985        14.3672 
 199   0.0000       0.539634        14.6842 
 200   0.0000       0.544175        14.8078 
 201   0.0000       0.549578        14.9548 
 202   0.0000       0.557696        15.1757 
 203   0.0000       0.561244        15.2722 
 204   0.0000       0.566989        15.4286 
 205   0.0000       0.570369        15.5205 
 206   0.0000       0.575361        15.6564 
 207   0.0000       0.577575        15.7166 
 208   0.0000       0.587669        15.9913 
 209   0.0000       0.599125        16.3030 
 210   0.0000       0.606706        16.5093 
 211   0.0000       0.608687        16.5632 
 212   0.0000       0.614580        16.7236 
 213   0.0000       0.622693        16.9443 
 214   0.0000       0.624089        16.9823 
 215   0.0000       0.633178        17.2297 
 216   0.0000       0.634653        17.2698 
 217   0.0000       0.640538        17.4299 
 218   0.0000       0.644870        17.5478 
 219   0.0000       0.652413        17.7531 
 220   0.0000       0.658968        17.9314 
 221   0.0000       0.663011        18.0414 
 222   0.0000       0.670252        18.2385 
 223   0.0000       0.676591        18.4110 
 224   0.0000       0.682280        18.5658 
 225   0.0000       0.682700        18.5772 
 226   0.0000       0.689066        18.7504 
 227   0.0000       0.696766        18.9600 
 228   0.0000       0.700273        19.0554 
 229   0.0000       0.705948        19.2098 
 230   0.0000       0.711257        19.3543 
 231   0.0000       0.715217        19.4620 
 232   0.0000       0.724855        19.7243 
 233   0.0000       0.727864        19.8062 
 234   0.0000       0.731640        19.9089 
 235   0.0000       0.735102        20.0031 
 236   0.0000       0.738214        20.0878 
 237   0.0000       0.745835        20.2952 
 238   0.0000       0.750156        20.4128 
 239   0.0000       0.755243        20.5512 
 240   0.0000       0.758946        20.6520 
 241   0.0000       0.767211        20.8769 
 242   0.0000       0.772834        21.0299 
 243   0.0000       0.784152        21.3379 
 244   0.0000       0.787493        21.4288 
 245   0.0000       0.794992        21.6328 
 246   0.0000       0.800314        21.7776 
 247   0.0000       0.803841        21.8736 
 248   0.0000       0.807506        21.9734 
 249   0.0000       0.813907        22.1475 
 250   0.0000       0.819576        22.3018 
 251   0.0000       0.833715        22.6865 
 252   0.0000       0.834880        22.7182 
 253   0.0000       0.842394        22.9227 
 254   0.0000       0.854812        23.2606 
 255   0.0000       0.856786        23.3143 
 256   0.0000       0.866722        23.5847 
 257   0.0000       0.876048        23.8385 
 258   0.0000       0.878713        23.9110 
 259   0.0000       0.887075        24.1385 
 260   0.0000       0.893827        24.3223 
 261   0.0000       0.899605        24.4795 
 262   0.0000       0.905159        24.6306 
 263   0.0000       0.915196        24.9037 
 264   0.0000       0.917189        24.9580 
 265   0.0000       0.928636        25.2695 
 266   0.0000       0.935188        25.4477 
 267   0.0000       0.940087        25.5811 
 268   0.0000       0.949605        25.8401 
 269   0.0000       0.959857        26.1190 
 270   0.0000       0.967266        26.3207 
 271   0.0000       0.975042        26.5322 
 272   0.0000       0.990213        26.9451 
 273   0.0000       0.991857        26.9898 
 274   0.0000       0.998531        27.1714 
 275   0.0000       1.006512        27.3886 
 276   0.0000       1.017718        27.6935 
 277   0.0000       1.026511        27.9328 
 278   0.0000       1.036821        28.2133 
 279   0.0000       1.046320        28.4718 
 280   0.0000       1.050029        28.5727 
 281   0.0000       1.057653        28.7802 
 282   0.0000       1.064282        28.9606 
 283   0.0000       1.079934        29.3865 
 284   0.0000       1.085567        29.5398 
 285   0.0000       1.090399        29.6713 
 286   0.0000       1.101988        29.9866 
 287   0.0000       1.108812        30.1723 
 288   0.0000       1.113715        30.3057 
 289   0.0000       1.120046        30.4780 
 290   0.0000       1.126384        30.6505 
 291   0.0000       1.140129        31.0245 
 292   0.0000       1.140849        31.0441 
 293   0.0000       1.143189        31.1078 
 294   0.0000       1.149889        31.2901 
 295   0.0000       1.155549        31.4441 
 296   0.0000       1.163591        31.6629 
 297   0.0000       1.169384        31.8206 
 298   0.0000       1.172482        31.9049 
 299   0.0000       1.182378        32.1741 
 300   0.0000       1.196714        32.5642 
 301   0.0000       1.201247        32.6876 
 302   0.0000       1.205242        32.7963 
 303   0.0000       1.218866        33.1670 
 304   0.0000       1.229196        33.4481 
 305   0.0000       1.240925        33.7673 
 306   0.0000       1.261769        34.3345 
 307   0.0000       1.263300        34.3761 
 308   0.0000       1.289240        35.0820 
 309   0.0000       1.303176        35.4612 
 310   0.0000       1.314370        35.7658 
 311   0.0000       1.316754        35.8307 
 312   0.0000       1.319206        35.8974 
 313   0.0000       1.322610        35.9900 
 314   0.0000       1.327450        36.1217 
 315   0.0000       1.335068        36.3290 
 316   0.0000       1.342051        36.5191 
 317   0.0000       1.354224        36.8503 
 318   0.0000       1.357948        36.9516 
 319   0.0000       1.360185        37.0125 
 320   0.0000       1.363964        37.1153 
 321   0.0000       1.366049        37.1721 
 322   0.0000       1.384087        37.6629 
 323   0.0000       1.388432        37.7812 
 324   0.0000       1.395301        37.9681 
 325   0.0000       1.401316        38.1317 
 326   0.0000       1.414982        38.5036 
 327   0.0000       1.427032        38.8315 
 328   0.0000       1.438340        39.1392 
 329   0.0000       1.454552        39.5804 
 330   0.0000       1.458771        39.6952 
 331   0.0000       1.467073        39.9211 
 332   0.0000       1.469898        39.9980 
 333   0.0000       1.474264        40.1168 
 334   0.0000       1.484063        40.3834 
 335   0.0000       1.518186        41.3119 
 336   0.0000       1.520454        41.3737 
 337   0.0000       1.532568        41.7033 
 338   0.0000       1.533550        41.7300 
 339   0.0000       1.547274        42.1035 
 340   0.0000       1.569377        42.7049 
 341   0.0000       1.577347        42.9218 
 342   0.0000       1.585546        43.1449 
 343   0.0000       1.612658        43.8827 
 344   0.0000       1.616871        43.9973 
 345   0.0000       1.623475        44.1770 
 346   0.0000       1.643785        44.7297 
 347   0.0000       1.659307        45.1520 
 348   0.0000       1.675834        45.6018 
 349   0.0000       1.684496        45.8375 
 350   0.0000       1.693421        46.0803 
 351   0.0000       1.721513        46.8447 
 352   0.0000       1.728658        47.0392 
 353   0.0000       1.733008        47.1575 
 354   0.0000       1.739603        47.3370 
 355   0.0000       1.750355        47.6296 
 356   0.0000       1.757601        47.8268 
 357   0.0000       1.771933        48.2167 
 358   0.0000       1.783878        48.5418 
 359   0.0000       1.792983        48.7895 
 360   0.0000       1.800702        48.9996 
 361   0.0000       1.807326        49.1798 
 362   0.0000       1.827216        49.7211 
 363   0.0000       1.835105        49.9357 
 364   0.0000       1.836284        49.9678 
 365   0.0000       1.843593        50.1667 
 366   0.0000       1.848431        50.2984 
 367   0.0000       1.863286        50.7026 
 368   0.0000       1.869202        50.8636 
 369   0.0000       1.872193        50.9450 
 370   0.0000       1.876525        51.0628 
 371   0.0000       1.881992        51.2116 
 372   0.0000       1.888378        51.3854 
 373   0.0000       1.889595        51.4185 
 374   0.0000       1.900817        51.7238 
 375   0.0000       1.903340        51.7925 
 376   0.0000       1.921409        52.2842 
 377   0.0000       1.929898        52.5152 
 378   0.0000       1.938114        52.7388 
 379   0.0000       1.942225        52.8506 
 380   0.0000       1.954078        53.1732 
 381   0.0000       1.958277        53.2874 
 382   0.0000       1.975966        53.7688 
 383   0.0000       1.980157        53.8828 
 384   0.0000       1.987538        54.0837 
 385   0.0000       2.014570        54.8192 
 386   0.0000       2.023724        55.0683 
 387   0.0000       2.041005        55.5386 
 388   0.0000       2.044502        55.6337 
 389   0.0000       2.054059        55.8938 
 390   0.0000       2.058157        56.0053 
 391   0.0000       2.068702        56.2922 
 392   0.0000       2.083807        56.7033 
 393   0.0000       2.085320        56.7444 
 394   0.0000       2.088976        56.8439 
 395   0.0000       2.098095        57.0921 
 396   0.0000       2.104848        57.2758 
 397   0.0000       2.111498        57.4568 
 398   0.0000       2.117307        57.6148 
 399   0.0000       2.139090        58.2076 
 400   0.0000       2.144985        58.3680 
 401   0.0000       2.147989        58.4497 
 402   0.0000       2.153702        58.6052 
 403   0.0000       2.176110        59.2150 
 404   0.0000       2.190839        59.6157 
 405   0.0000       2.198402        59.8216 
 406   0.0000       2.202194        59.9247 
 407   0.0000       2.205728        60.0209 
 408   0.0000       2.213611        60.2354 
 409   0.0000       2.222618        60.4805 
 410   0.0000       2.237712        60.8912 
 411   0.0000       2.248071        61.1731 
 412   0.0000       2.248843        61.1941 
 413   0.0000       2.276776        61.9542 
 414   0.0000       2.284105        62.1537 
 415   0.0000       2.292064        62.3702 
 416   0.0000       2.302318        62.6492 
 417   0.0000       2.303604        62.6843 
 418   0.0000       2.310878        62.8822 
 419   0.0000       2.322697        63.2038 
 420   0.0000       2.324468        63.2520 
 421   0.0000       2.329706        63.3945 
 422   0.0000       2.339661        63.6654 
 423   0.0000       2.347214        63.8709 
 424   0.0000       2.350417        63.9581 
 425   0.0000       2.357335        64.1463 
 426   0.0000       2.366375        64.3923 
 427   0.0000       2.372099        64.5481 
 428   0.0000       2.379251        64.7427 
 429   0.0000       2.383913        64.8696 
 430   0.0000       2.389669        65.0262 
 431   0.0000       2.402729        65.3816 
 432   0.0000       2.410800        65.6012 
 433   0.0000       2.418240        65.8036 
 434   0.0000       2.428276        66.0767 
 435   0.0000       2.435677        66.2781 
 436   0.0000       2.441819        66.4453 
 437   0.0000       2.443630        66.4946 
 438   0.0000       2.461439        66.9792 
 439   0.0000       2.469288        67.1927 
 440   0.0000       2.480850        67.5074 
 441   0.0000       2.490298        67.7644 
 442   0.0000       2.495921        67.9175 
 443   0.0000       2.507516        68.2330 
 444   0.0000       2.513456        68.3946 
 445   0.0000       2.540125        69.1203 
 446   0.0000       2.545735        69.2730 
 447   0.0000       2.550433        69.4008 
 448   0.0000       2.569144        69.9100 
 449   0.0000       2.581929        70.2579 
 450   0.0000       2.591847        70.5278 
 451   0.0000       2.603239        70.8377 
 452   0.0000       2.605111        70.8887 
 453   0.0000       2.614093        71.1331 
 454   0.0000       2.621393        71.3317 
 455   0.0000       2.627066        71.4861 
 456   0.0000       2.635549        71.7169 
 457   0.0000       2.639632        71.8280 
 458   0.0000       2.659217        72.3610 
 459   0.0000       2.667037        72.5738 
 460   0.0000       2.669704        72.6463 
 461   0.0000       2.675653        72.8082 
 462   0.0000       2.682995        73.0080 
 463   0.0000       2.695119        73.3379 
 464   0.0000       2.698169        73.4209 
 465   0.0000       2.708905        73.7131 
 466   0.0000       2.714432        73.8635 
 467   0.0000       2.720134        74.0186 
 468   0.0000       2.723606        74.1131 
 469   0.0000       2.729941        74.2855 
 470   0.0000       2.739200        74.5374 
 471   0.0000       2.746966        74.7488 
 472   0.0000       2.759133        75.0798 
 473   0.0000       2.760777        75.1246 
 474   0.0000       2.768026        75.3218 
 475   0.0000       2.772354        75.4396 
 476   0.0000       2.782208        75.7077 
 477   0.0000       2.788425        75.8769 
 478   0.0000       2.789181        75.8975 
 479   0.0000       2.794130        76.0321 
 480   0.0000       2.798188        76.1426 
 481   0.0000       2.800023        76.1925 
 482   0.0000       2.808693        76.4284 
 483   0.0000       2.813682        76.5642 
 484   0.0000       2.821283        76.7710 
 485   0.0000       2.824025        76.8456 
 486   0.0000       2.834374        77.1272 
 487   0.0000       2.842679        77.3532 
 488   0.0000       2.849628        77.5423 
 489   0.0000       2.850597        77.5687 
 490   0.0000       2.863812        77.9283 
 491   0.0000       2.869486        78.0827 
 492   0.0000       2.871459        78.1364 
 493   0.0000       2.875690        78.2515 
 494   0.0000       2.896285        78.8119 
 495   0.0000       2.898200        78.8640 
 496   0.0000       2.905009        79.0493 
 497   0.0000       2.906448        79.0885 
 498   0.0000       2.915966        79.3475 
 499   0.0000       2.917939        79.4012 
 500   0.0000       2.918535        79.4174 
 501   0.0000       2.930193        79.7346 
 502   0.0000       2.938944        79.9727 
 503   0.0000       2.949548        80.2613 
 504   0.0000       2.956645        80.4544 
 505   0.0000       2.967206        80.7418 
 506   0.0000       2.971777        80.8662 
 507   0.0000       2.977358        81.0180 
 508   0.0000       2.990413        81.3733 
 509   0.0000       3.001047        81.6626 
 510   0.0000       3.006132        81.8010 
 511   0.0000       3.010928        81.9315 
 512   0.0000       3.017614        82.1134 
 513   0.0000       3.028690        82.4148 
 514   0.0000       3.038574        82.6838 
 515   0.0000       3.038757        82.6888 
 516   0.0000       3.048715        82.9598 
 517   0.0000       3.050006        82.9949 
 518   0.0000       3.063139        83.3523 
 519   0.0000       3.072941        83.6190 
 520   0.0000       3.085936        83.9726 
 521   0.0000       3.098613        84.3175 
 522   0.0000       3.116209        84.7964 
 523   0.0000       3.128616        85.1340 
 524   0.0000       3.138319        85.3980 
 525   0.0000       3.143428        85.5370 
 526   0.0000       3.150702        85.7350 
 527   0.0000       3.183717        86.6333 
 528   0.0000       3.201363        87.1135 
 529   0.0000       3.207461        87.2795 
 530   0.0000       3.208193        87.2994 
 531   0.0000       3.219206        87.5990 
 532   0.0000       3.240144        88.1688 
 533   0.0000       3.246962        88.3543 
 534   0.0000       3.255816        88.5953 
 535   0.0000       3.263545        88.8056 
 536   0.0000       3.283601        89.3513 
 537   0.0000       3.292900        89.6044 
 538   0.0000       3.308343        90.0246 
 539   0.0000       3.309809        90.0645 
 540   0.0000       3.319231        90.3209 
 541   0.0000       3.331635        90.6584 
 542   0.0000       3.335017        90.7504 
 543   0.0000       3.346756        91.0699 
 544   0.0000       3.359873        91.4268 
 545   0.0000       3.376466        91.8783 
 546   0.0000       3.397349        92.4466 
 547   0.0000       3.402050        92.5745 
 548   0.0000       3.408675        92.7548 
 549   0.0000       3.454507        94.0019 
 550   0.0000       3.478869        94.6648 
 551   0.0000       3.504424        95.3602 
 552   0.0000       3.518172        95.7343 
 553   0.0000       3.532629        96.1277 
 554   0.0000       3.539197        96.3065 
 555   0.0000       3.542449        96.3949 
 556   0.0000       3.547021        96.5194 
[...]
      pz      :     1.114875  p :     3.030840
      px      :     0.870520
      py      :     1.045445
      dz2     :     0.016647  d :     0.104961
      dxz     :     0.024487
      dyz     :     0.010443
      dx2y2   :     0.026683
      dxy     :     0.026701
  1 O s       :     3.465535  s :     3.465535
      pz      :     1.622299  p :     4.630939
      px      :     1.358407
      py      :     1.650234
      dz2     :     0.063764  d :     0.480247
      dxz     :     0.126295
      dyz     :     0.056727
      dx2y2   :     0.122059
      dxy     :     0.111401
  2 C s       :     2.719785  s :     2.719785
      pz      :     0.828094  p :     2.616212
      px      :     0.894870
      py      :     0.893248
      dz2     :     0.052789  d :     0.271061
      dxz     :     0.053503
      dyz     :     0.048107
      dx2y2   :     0.043753
      dxy     :     0.072909
  3 O s       :     3.542033  s :     3.542033
      pz      :     1.493482  p :     4.660665
      px      :     1.698097
      py      :     1.469085
      dz2     :     0.037181  d :     0.223726
      dxz     :     0.033021
      dyz     :     0.060618
      dx2y2   :     0.047127
      dxy     :     0.045779
  4 C s       :     2.788518  s :     2.788518
      pz      :     0.961660  p :     2.866759
      px      :     0.950831
      py      :     0.954268
      dz2     :     0.022963  d :     0.124914
      dxz     :     0.025053
      dyz     :     0.024709
      dx2y2   :     0.024926
      dxy     :     0.027264
  5 N s       :     3.187945  s :     3.187945
      pz      :     1.299188  p :     3.847816
      px      :     1.173185
      py      :     1.375442
      dz2     :     0.095694  d :     0.507045
      dxz     :     0.118395
      dyz     :     0.063584
      dx2y2   :     0.106588
      dxy     :     0.122784
  6 C s       :     2.714966  s :     2.714966
      pz      :     0.875619  p :     2.736736
      px      :     0.966644
      py      :     0.894473
      dz2     :     0.022913  d :     0.178424
      dxz     :     0.039909
      dyz     :     0.029827
      dx2y2   :     0.044631
      dxy     :     0.041144
  7 C s       :     2.782539  s :     2.782539
      pz      :     1.005191  p :     2.977222
      px      :     0.908247
      py      :     1.063784
      dz2     :     0.018954  d :     0.135667
      dxz     :     0.033390
      dyz     :     0.025751
      dx2y2   :     0.035287
      dxy     :     0.022284
  8 C s       :     2.958296  s :     2.958296
      pz      :     1.055111  p :     3.314682
      px      :     1.156513
      py      :     1.103058
      dz2     :     0.010001  d :     0.060868
      dxz     :     0.014536
      dyz     :     0.015107
      dx2y2   :     0.017446
      dxy     :     0.003778
  9 C s       :     2.958539  s :     2.958539
      pz      :     1.143873  p :     3.322405
      px      :     1.144675
      py      :     1.033857
      dz2     :     0.007146  d :     0.061324
      dxz     :     0.013054
      dyz     :     0.016594
      dx2y2   :     0.019141
      dxy     :     0.005388
 10 N s       :     3.100734  s :     3.100734
      pz      :     1.250598  p :     3.932406
      px      :     1.211880
      py      :     1.469927
      dz2     :     0.096167  d :     0.534090
      dxz     :     0.165775
      dyz     :     0.084528
      dx2y2   :     0.090138
      dxy     :     0.097482
 11 C s       :     2.709042  s :     2.709042
      pz      :     0.924845  p :     2.664346
      px      :     0.922705
      py      :     0.816796
      dz2     :     0.079702  d :     0.251215
      dxz     :     0.046470
      dyz     :     0.047007
      dx2y2   :     0.051366
      dxy     :     0.026670
 12 O s       :     3.541449  s :     3.541449
      pz      :     1.557836  p :     4.649337
      px      :     1.619135
      py      :     1.472365
      dz2     :     0.048808  d :     0.230804
      dxz     :     0.056047
      dyz     :     0.042208
      dx2y2   :     0.041921
      dxy     :     0.041820
 13 C s       :     2.726197  s :     2.726197
      pz      :     0.891282  p :     2.618781
      px      :     0.933983
      py      :     0.793515
      dz2     :     0.042187  d :     0.183742
      dxz     :     0.055726
      dyz     :     0.030844
      dx2y2   :     0.027869
      dxy     :     0.027117
 14 N s       :     3.166996  s :     3.166996
      pz      :     1.282325  p :     3.568812
      px      :     1.174522
      py      :     1.111966
      dz2     :     0.092480  d :     0.545573
      dxz     :     0.166003
      dyz     :     0.051470
      dx2y2   :     0.120378
      dxy     :     0.115242
 15 N s       :     3.204498  s :     3.204498
      pz      :     1.220794  p :     3.540211
      px      :     1.263508
      py      :     1.055909
      dz2     :     0.097808  d :     0.552311
      dxz     :     0.162812
      dyz     :     0.068237
      dx2y2   :     0.108425
      dxy     :     0.115029
 16 C s       :     2.751874  s :     2.751874
      pz      :     0.933966  p :     2.811981
      px      :     0.864442
      py      :     1.013573
      dz2     :     0.032569  d :     0.174799
      dxz     :     0.040546
      dyz     :     0.034674
      dx2y2   :     0.034499
      dxy     :     0.032511
 17 C s       :     2.962421  s :     2.962421
      pz      :     1.086008  p :     3.281239
      px      :     1.093258
      py      :     1.101973
      dz2     :     0.009974  d :     0.058544
      dxz     :     0.012127
      dyz     :     0.013801
      dx2y2   :     0.010189
      dxy     :     0.012454
 18 C s       :     2.962306  s :     2.962306
      pz      :     1.154134  p :     3.283764
      px      :     1.116909
      py      :     1.012721
      dz2     :     0.009052  d :     0.058550
      dxz     :     0.010216
      dyz     :     0.014836
      dx2y2   :     0.011837
      dxy     :     0.012610
 19 O s       :     3.448826  s :     3.448826
      pz      :     1.579088  p :     4.508149
      px      :     1.323360
      py      :     1.605701
      dz2     :     0.080007  d :     0.469578
      dxz     :     0.129597
      dyz     :     0.056923
      dx2y2   :     0.093952
      dxy     :     0.109099
 20 N s       :     3.086133  s :     3.086133
      pz      :     1.307667  p :     3.851647
      px      :     1.262521
      py      :     1.281460
      dz2     :     0.102358  d :     0.495734
      dxz     :     0.086134
      dyz     :     0.114088
      dx2y2   :     0.092997
      dxy     :     0.100156
 21 C s       :     2.735769  s :     2.735769
      pz      :     0.842023  p :     2.650535
      px      :     0.920732
      py      :     0.887780
      dz2     :     0.051621  d :     0.234642
      dxz     :     0.038584
      dyz     :     0.046783
      dx2y2   :     0.036366
      dxy     :     0.061287
 22 O s       :     3.545843  s :     3.545843
      pz      :     1.524859  p :     4.644877
      px      :     1.668768
      py      :     1.451251
      dz2     :     0.038977  d :     0.213806
      dxz     :     0.028567
      dyz     :     0.057446
      dx2y2   :     0.039712
      dxy     :     0.049104
 23 C s       :     2.784103  s :     2.784103
      pz      :     0.915788  p :     2.756685
      px      :     0.931813
      py      :     0.909085
      dz2     :     0.041735  d :     0.199084
      dxz     :     0.038472
      dyz     :     0.044595
      dx2y2   :     0.044117
      dxy     :     0.030165
 24 O s       :     3.558019  s :     3.558019
      pz      :     1.461197  p :     4.652173
      px      :     1.588216
      py      :     1.602760
      dz2     :     0.055331  d :     0.248346
      dxz     :     0.062923
      dyz     :     0.047077
      dx2y2   :     0.037951
      dxy     :     0.045065
 25 H s       :     0.778548  s :     0.778548
      pz      :     0.009931  p :     0.041277
      px      :     0.005845
      py      :     0.025501
 26 H s       :     0.775762  s :     0.775762
      pz      :     0.015810  p :     0.040479
      px      :     0.012063
      py      :     0.012606
 27 H s       :     0.777201  s :     0.777201
      pz      :     0.026028  p :     0.041535
      px      :     0.008320
      py      :     0.007188
 28 H s       :     0.778007  s :     0.778007
      pz      :     0.018472  p :     0.044448
      px      :     0.016609
      py      :     0.009367
 29 H s       :     0.779536  s :     0.779536
      pz      :     0.008939  p :     0.044482
      px      :     0.009100
      py      :     0.026443
 30 H s       :     0.775219  s :     0.775219
      pz      :     0.010573  p :     0.044413
      px      :     0.026153
      py      :     0.007687
 31 H s       :     0.775791  s :     0.775791
      pz      :     0.010403  p :     0.044915
      px      :     0.026787
      py      :     0.007724
 32 H s       :     0.775108  s :     0.775108
      pz      :     0.021950  p :     0.044843
      px      :     0.008043
      py      :     0.014849
 33 H s       :     0.785452  s :     0.785452
      pz      :     0.018070  p :     0.044111
      px      :     0.016735
      py      :     0.009307
 34 H s       :     0.608059  s :     0.608059
      pz      :     0.028659  p :     0.089355
      px      :     0.035337
      py      :     0.025359
 35 H s       :     0.773937  s :     0.773937
      pz      :     0.008067  p :     0.044284
      px      :     0.012240
      py      :     0.023977
 36 H s       :     0.767155  s :     0.767155
      pz      :     0.011456  p :     0.044820
      px      :     0.024965
      py      :     0.008399
 37 H s       :     0.772116  s :     0.772116
      pz      :     0.024612  p :     0.044892
      px      :     0.008246
      py      :     0.012033
 38 H s       :     0.772273  s :     0.772273
      pz      :     0.024014  p :     0.044873
      px      :     0.008177
      py      :     0.012682
 39 H s       :     0.774240  s :     0.774240
      pz      :     0.016177  p :     0.044249
      px      :     0.014504
      py      :     0.013569
 40 H s       :     0.767677  s :     0.767677
      pz      :     0.011867  p :     0.044831
      px      :     0.025484
      py      :     0.007480
 41 H s       :     0.602706  s :     0.602706
      pz      :     0.015573  p :     0.087306
      px      :     0.049011
      py      :     0.022722


                      *****************************
                      * MAYER POPULATION ANALYSIS *
                      *****************************

  NA   - Mulliken gross atomic population
  ZA   - Total nuclear charge
  QA   - Mulliken gross atomic charge
  VA   - Mayer's total valence
  BVA  - Mayer's bonded valence
  FA   - Mayer's free valence

  ATOM       NA         ZA         QA         VA         BVA        FA
  0 C      6.3167     6.0000    -0.3167     3.7655     3.7655     0.0000
  1 O      8.1459     8.0000    -0.1459     2.0209     2.0209    -0.0000
  2 C      5.8507     6.0000     0.1493     4.2133     4.2133    -0.0000
  3 O      8.4097     8.0000    -0.4097     2.0238     2.0238    -0.0000
  4 C      5.8518     6.0000     0.1482     3.1816     3.1816    -0.0000
  5 N      7.1224     7.0000    -0.1224     2.9249     2.9249     0.0000
  6 C      5.7986     6.0000     0.2014     3.6583     3.6583     0.0000
  7 C      5.9384     6.0000     0.0616     3.4587     3.4587    -0.0000
  8 C      6.5326     6.0000    -0.5326     3.7672     3.7672     0.0000
  9 C      6.5953     6.0000    -0.5953     3.8057     3.8057     0.0000
 10 N      7.1714     7.0000    -0.1714     2.9734     2.9734    -0.0000
 11 C      6.0983     6.0000    -0.0983     4.1144     4.1144     0.0000
 12 O      8.4147     8.0000    -0.4147     2.0341     2.0341    -0.0000
 13 C      5.5392     6.0000     0.4608     3.7642     3.7642     0.0000
 14 N      7.0740     7.0000    -0.0740     3.0794     3.0794    -0.0000
 15 N      7.1438     7.0000    -0.1438     2.8090     2.8090    -0.0000
 16 C      5.8918     6.0000     0.1082     3.5827     3.5827     0.0000
 17 C      6.4578     6.0000    -0.4578     3.8415     3.8415     0.0000
 18 C      6.4686     6.0000    -0.4686     3.8451     3.8451     0.0000
 19 O      8.0539     8.0000    -0.0539     2.1480     2.1480    -0.0000
 20 N      7.0139     7.0000    -0.0139     3.1916     3.1916     0.0000
 21 C      5.9247     6.0000     0.0753     4.0631     4.0631     0.0000
 22 O      8.3608     8.0000    -0.3608     2.1280     2.1280     0.0000
 23 C      5.9951     6.0000     0.0049     3.8676     3.8676     0.0000
 24 O      8.3181     8.0000    -0.3181     2.0582     2.0582    -0.0000
 25 H      0.8268     1.0000     0.1732     0.9499     0.9499     0.0000
 26 H      0.8260     1.0000     0.1740     0.9521     0.9521    -0.0000
 27 H      0.8275     1.0000     0.1725     0.9511     0.9511    -0.0000
 28 H      0.8068     1.0000     0.1932     0.9501     0.9501     0.0000
 29 H      0.8081     1.0000     0.1919     0.9498     0.9498    -0.0000
 30 H      0.8010     1.0000     0.1990     0.9499     0.9499     0.0000
 31 H      0.8098     1.0000     0.1902     0.9516     0.9516     0.0000
 32 H      0.8056     1.0000     0.1944     0.9489     0.9489     0.0000
 33 H      0.8127     1.0000     0.1873     0.9513     0.9513     0.0000
 34 H      0.6766     1.0000     0.3234     0.8887     0.8887     0.0000
 35 H      0.8143     1.0000     0.1857     0.9510     0.9510     0.0000
 36 H      0.7990     1.0000     0.2010     0.9487     0.9487     0.0000
 37 H      0.8030     1.0000     0.1970     0.9492     0.9492     0.0000
 38 H      0.8036     1.0000     0.1964     0.9495     0.9495     0.0000
 39 H      0.8143     1.0000     0.1857     0.9510     0.9510     0.0000
 40 H      0.8006     1.0000     0.1994     0.9494     0.9494     0.0000
 41 H      0.6759     1.0000     0.3241     0.8861     0.8861     0.0000

  Mayer bond orders larger than 0.100000
B(  0-C ,  1-O ) :   0.8370 B(  0-C , 25-H ) :   0.9547 B(  0-C , 26-H ) :   0.9656 
B(  0-C , 27-H ) :   0.9569 B(  1-O ,  2-C ) :   1.1640 B(  2-C ,  3-O ) :   1.8956 
B(  2-C ,  4-C ) :   1.0630 B(  4-C ,  5-N ) :   1.0355 B(  4-C , 23-C ) :   0.9505 
B(  4-C , 24-O ) :  -0.1089 B(  5-N ,  6-C ) :   1.6173 B(  6-C ,  7-C ) :   0.7828 
B(  6-C , 12-O ) :   0.1139 B(  6-C , 20-N ) :   1.0946 B(  7-C ,  8-C ) :   0.9390 
B(  7-C ,  9-C ) :   0.9261 B(  7-C , 10-N ) :   0.7679 B(  8-C , 28-H ) :   0.9592 
B(  8-C , 29-H ) :   0.9512 B(  8-C , 30-H ) :   0.9625 B(  9-C , 31-H ) :   0.9602 
B(  9-C , 32-H ) :   0.9602 B(  9-C , 33-H ) :   0.9699 B( 10-N , 11-C ) :   1.1556 
B( 10-N , 34-H ) :   0.8893 B( 11-C , 12-O ) :   1.8074 B( 11-C , 13-C ) :   0.9073 
B( 11-C , 15-N ) :   0.1169 B( 13-C , 14-N ) :   1.3080 B( 13-C , 19-O ) :   1.1754 
B( 14-N , 15-N ) :   1.5933 B( 15-N , 16-C ) :   0.8029 B( 16-C , 17-C ) :   0.9572 
B( 16-C , 18-C ) :   0.9570 B( 16-C , 19-O ) :   0.7330 B( 17-C , 35-H ) :   0.9334 
B( 17-C , 36-H ) :   0.9460 B( 17-C , 37-H ) :   0.9564 B( 18-C , 38-H ) :   0.9562 
B( 18-C , 39-H ) :   0.9375 B( 18-C , 40-H ) :   0.9440 B( 20-N , 21-C ) :   0.9670 
B( 20-N , 41-H ) :   0.8800 B( 21-C , 22-O ) :   2.0550 B( 21-C , 23-C ) :   0.8769 
B( 23-C , 24-O ) :   1.8995 

-------
TIMINGS
-------

Total SCF time: 0 days 0 hours 6 min 58 sec 

Total time                  ....     418.486 sec
Sum of individual times     ....     407.885 sec  ( 97.5%)

Fock matrix formation       ....     255.759 sec  ( 61.1%)
  Split-RI-J                ....      82.828 sec  ( 32.4% of F)
  XC integration            ....     138.130 sec  ( 54.0% of F)
    Basis function eval.    ....      14.358 sec  ( 10.4% of XC)
    Density eval.           ....      54.468 sec  ( 39.4% of XC)
    XC-Functional eval.     ....       6.481 sec  (  4.7% of XC)
    XC-Potential eval.      ....      51.407 sec  ( 37.2% of XC)
Diagonalization             ....       1.546 sec  (  0.4%)
Density matrix formation    ....       0.329 sec  (  0.1%)
Population analysis         ....       0.150 sec  (  0.0%)
Initial guess               ....       1.395 sec  (  0.3%)
Orbital Transformation      ....       2.769 sec  (  0.7%)
Orbital Orthonormalization  ....       0.000 sec  (  0.0%)
DIIS solution               ....       0.842 sec  (  0.2%)
SOSCF solution              ....       0.198 sec  (  0.0%)
TRAH solution               ....       0.010 sec  (  0.0%)
Grid generation             ....       2.840 sec  (  0.7%)

Maximum memory used throughout the entire SCF-calculation: 142.7 MB


-------------------------------------------------------------------------------
                          DFT DISPERSION CORRECTION                            
                                                                               
                                 DFTD4 V2.5                                    
-------------------------------------------------------------------------------
The R2SCAN3C composite method is recognized
Using three-body term ABC
Active option DFTDOPT                   ...         5   

Starting D4
-------------------------   ----------------
Dispersion correction           -0.018728196
-------------------------   ----------------

------------------   -----------------
gCP correction             0.037412045
------------------   -----------------

-------------------------   --------------------
FINAL SINGLE POINT ENERGY     -1268.580448652678
-------------------------   --------------------


                            ***************************************
                            *     ORCA property calculations      *
                            ***************************************

                                    ---------------------
                                    Active property flags
                                    ---------------------
   (+) Dipole Moment


------------------------------------------------------------------------------
                       ORCA ELECTRIC PROPERTIES CALCULATION
------------------------------------------------------------------------------

Dipole Moment Calculation                       ... on
Quadrupole Moment Calculation                   ... off
Polarizability Calculation                      ... off
GBWName                                         ... /lustre/hpc/kemi/ree/PhD/git/ReactivityQM/calculations/R02oxygendeprot/reac01prodN13/conf13/gfn1/orca_calc.gbw
Electron density                                ... /lustre/hpc/kemi/ree/PhD/git/ReactivityQM/calculations/R02oxygendeprot/reac01prodN13/conf13/gfn1/orca_calc.scfp
The origin for moment calculation is the CENTER OF MASS  = ( 0.803544,  0.423739  0.836166)

-------------
DIPOLE MOMENT
-------------
                                X             Y             Z
Electronic contribution:     10.05314       3.99347      12.55237
Nuclear contribution   :    -16.22459      -3.46105     -17.39557
                        -----------------------------------------
Total Dipole Moment    :     -6.17145       0.53241      -4.84320
                        -----------------------------------------
Magnitude (a.u.)       :      7.86301
Magnitude (Debye)      :     19.98617



--------------------
Rotational spectrum 
--------------------
 
Rotational constants in cm-1:     0.016638     0.003390     0.003204 
Rotational constants in MHz :   498.781929   101.634147    96.065285 

 Dipole components along the rotational axes: 
x,y,z [a.u.] :    -6.553538    -2.718957    -3.388992 
x,y,z [Debye]:   -16.657770    -6.911039    -8.614132 

 

Timings for individual modules:

Sum of individual times         ...      419.543 sec (=   6.992 min)
GTO integral calculation        ...        0.830 sec (=   0.014 min)   0.2 %
SCF iterations                  ...      418.712 sec (=   6.979 min)  99.8 %
                             ****ORCA TERMINATED NORMALLY****
TOTAL RUN TIME: 0 days 0 hours 7 minutes 0 seconds 323 msec
