      -----------------------------------------------------------      
     |                   =====================                   |     
     |                           x T B                           |     
     |                   =====================                   |     
     |                         S. Grimme                         |     
     |          Mulliken Center for Theoretical Chemistry        |     
     |                    University of Bonn                     |     
      -----------------------------------------------------------      

   * xtb version 6.5.1 (579679a) compiled by 'ehlert@majestix' on 2022-07-11

   xtb is free software: you can redistribute it and/or modify it under
   the terms of the GNU Lesser General Public License as published by
   the Free Software Foundation, either version 3 of the License, or
   (at your option) any later version.
   
   xtb is distributed in the hope that it will be useful,
   but WITHOUT ANY WARRANTY; without even the implied warranty of
   MERCHANTABILITY or FITNESS FOR A PARTICULAR PURPOSE.  See the
   GNU Lesser General Public License for more details.
   
   Cite this work as:
   * C. Bannwarth, E. Caldeweyher, S. Ehlert, A. Hansen, P. Pracht,
     J. Seibert, S. Spicher, S. Grimme, WIREs Comput. Mol. Sci., 2020, 11,
     e01493. DOI: 10.1002/wcms.1493
   
   for GFN2-xTB:
   * C. Bannwarth, S. Ehlert and S. Grimme., J. Chem. Theory Comput., 2019,
     15, 1652-1671. DOI: 10.1021/acs.jctc.8b01176
   for GFN1-xTB:
   * S. Grimme, C. Bannwarth, P. Shushkov, J. Chem. Theory Comput., 2017,
     13, 1989-2009. DOI: 10.1021/acs.jctc.7b00118
   for GFN0-xTB:
   * P. Pracht, E. Caldeweyher, S. Ehlert, S. Grimme, ChemRxiv, 2019, preprint.
     DOI: 10.26434/chemrxiv.8326202.v1
   for GFN-FF:
   * S. Spicher and S. Grimme, Angew. Chem. Int. Ed., 2020, 59, 15665-15673.
     DOI: 10.1002/anie.202004239
   
   for ALPB and GBSA implicit solvation:
   * S. Ehlert, M. Stahn, S. Spicher, S. Grimme, J. Chem. Theory Comput.,
     2021, 17, 4250-4261. DOI: 10.1021/acs.jctc.1c00471
   
   for DFT-D4:
   * E. Caldeweyher, C. Bannwarth and S. Grimme, J. Chem. Phys., 2017,
     147, 034112. DOI: 10.1063/1.4993215
   * E. Caldeweyher, S. Ehlert, A. Hansen, H. Neugebauer, S. Spicher,
     C. Bannwarth and S. Grimme, J. Chem. Phys., 2019, 150, 154122.
     DOI: 10.1063/1.5090222
   * E. Caldeweyher, J.-M. Mewes, S. Ehlert and S. Grimme, Phys. Chem. Chem. Phys.
     2020, 22, 8499-8512. DOI: 10.1039/D0CP00502A
   
   for sTDA-xTB:
   * S. Grimme and C. Bannwarth, J. Chem. Phys., 2016, 145, 054103.
     DOI: 10.1063/1.4959605
   
   in the mass-spec context:
   * V. Asgeirsson, C. Bauer and S. Grimme, Chem. Sci., 2017, 8, 4879.
     DOI: 10.1039/c7sc00601b
   * J. Koopman and S. Grimme, ACS Omega 2019, 4, 12, 15120-15133.
     DOI: 10.1021/acsomega.9b02011
   
   for metadynamics refer to:
   * S. Grimme, J. Chem. Theory Comput., 2019, 155, 2847-2862
     DOI: 10.1021/acs.jctc.9b00143
   
   for SPH calculations refer to:
   * S. Spicher and S. Grimme, J. Chem. Theory Comput., 2021, 17, 1701-1714
     DOI: 10.1021/acs.jctc.0c01306
   
   with help from (in alphabetical order)
   P. Atkinson, C. Bannwarth, F. Bohle, G. Brandenburg, E. Caldeweyher
   M. Checinski, S. Dohm, S. Ehlert, S. Ehrlich, I. Gerasimov, C. Hölzer
   A. Katbashev, J. Koopman, C. Lavigne, S. Lehtola, F. März, M. Müller,
   F. Musil, H. Neugebauer, J. Pisarek, C. Plett, P. Pracht, F. Pultar,
   J. Seibert, P. Shushkov, S. Spicher, M. Stahn, M. Steiner, T. Strunk,
   J. Stückrath, T. Rose, and J. Unsleber
   
 * started run on 2023/06/20 at 14:51:58.472     

           -------------------------------------------------
          |                Calculation Setup                |
           -------------------------------------------------

          program call               : /lustre/hpc/kemi/ree/PhD/git/ReactivityQM/dep/xtb-6.5.1/bin/xtb --gfn 1 /lustre/hpc/kemi/ree/PhD/git/ReactivityQM/calculations/R01/reac02/conf19/R01_reac02_conf19_gfn1.xyz --opt --vfukui --chrg 0 --uhf 0 --alpb DMSO
          hostname                   : node312
          coordinate file            : /lustre/hpc/kemi/ree/PhD/git/ReactivityQM/calculations/R01/reac02/conf19/R01_reac02_conf19_gfn1.xyz
          omp threads                :                     1

   ID    Z sym.   atoms
    1    6 C      1, 3, 5, 7-10, 13, 15
    2    8 O      2, 4, 14, 16
    3    7 N      6, 11, 12
    4    1 H      17-29

           -------------------------------------------------
          |                 G F N 1 - x T B                 |
           -------------------------------------------------

        Reference                      10.1021/acs.jctc.7b00118
      * Hamiltonian:
        H0-scaling (s, p, d)           1.850000    2.250000    2.000000
        zeta-weighting                 0.000000
      * Dispersion:
        s8                             2.400000
        a1                             0.630000
        a2                             5.000000
        s9                             0.000000
      * Repulsion:
        kExp                           1.500000
        rExp                           1.000000
      * Coulomb:
        alpha                          2.000000
        third order                    atomic
        anisotropic                    false
      * Halogen bond correction:
        rad-scale                      1.300000
        damping                        0.440000

      * Solvation model:               ALPB
        Solvent                        DMSO
        Parameter file                 internal GFN1-xTB/ALPB
        Dielectric constant                4.6680E+01
        Reference state                gsolv [1 M gas/solution]
        Free energy shift                  7.6243E-03 Eh       4.7843E+00 kcal/mol
        Temperature                        2.9815E+02 K
        Density                            1.1000E+00 kg/L
        Solvent mass                       7.8130E+01 g/mol
        Interaction kernel             P16
        Born radius scaling (c1)           1.7672E+00
        Born radii integrator          GBOBC
        Born offset                        0.0000E+00 a0       0.0000E+00 AA
        H-bond correction              true
        Ion screening                  false
        Surface tension                    1.0000E-05 Eh       1.5569E+01 dyn/cm
        Grid points                               230 per atom

          ...................................................
          :                      SETUP                      :
          :.................................................:
          :  # basis functions                  90          :
          :  # atomic orbitals                  90          :
          :  # shells                           58          :
          :  # electrons                        88          :
          :  # halogen bonds                     0          :
          :  max. iterations                   250          :
          :  Hamiltonian                  GFN1-xTB          :
          :  restarted?                      false          :
          :  GBSA solvation                   true          :
          :  PC potential                    false          :
          :  electronic temp.          300.0000000     K    :
          :  accuracy                    1.0000000          :
          :  -> integral cutoff          0.2500000E+02      :
          :  -> integral neglect         0.1000000E-07      :
          :  -> SCF convergence          0.1000000E-05 Eh   :
          :  -> wf. convergence          0.2000000E-04 e    :
          :  Broyden damping             0.4000000          :
          ...................................................

 iter      E             dE          RMSdq      gap      omega  full diag
   1    -54.8197867 -0.548198E+02  0.830E+00    2.71       0.0  T
   2    -55.0177779 -0.197991E+00  0.493E+00    2.32       1.0  T
   3    -55.0111837  0.659427E-02  0.145E+00    2.38       1.0  T
   4    -55.0240193 -0.128356E-01  0.188E-01    2.35       1.0  T
   5    -55.0249807 -0.961413E-03  0.543E-02    2.31       1.0  T
   6    -55.0250512 -0.705209E-04  0.153E-02    2.31       1.2  T
   7    -55.0250549 -0.373861E-05  0.377E-03    2.31       4.9  T
   8    -55.0250550 -0.859606E-07  0.925E-04    2.31      20.1  T
   9    -55.0250550 -0.572251E-08  0.278E-04    2.31      66.8  T
  10    -55.0250550 -0.108684E-08  0.814E-05    2.31     228.1  T
  11    -55.0250550 -0.617035E-10  0.229E-05    2.31     809.8  T

   *** convergence criteria satisfied after 11 iterations ***

         #    Occupation            Energy/Eh            Energy/eV
      -------------------------------------------------------------
         1        2.0000           -0.8388923             -22.8274
       ...           ...                  ...                  ...
        38        2.0000           -0.4902124             -13.3394
        39        2.0000           -0.4858365             -13.2203
        40        2.0000           -0.4831105             -13.1461
        41        2.0000           -0.4615168             -12.5585
        42        2.0000           -0.4471088             -12.1665
        43        2.0000           -0.4303561             -11.7106
        44        2.0000           -0.4161513             -11.3241 (HOMO)
        45                         -0.3311931              -9.0122 (LUMO)
        46                         -0.2841137              -7.7311
        47                         -0.2439986              -6.6395
        48                         -0.1610611              -4.3827
        49                         -0.1357878              -3.6950
       ...                                ...                  ...
        90                          0.6976174              18.9831
      -------------------------------------------------------------
                  HL-Gap            0.0849582 Eh            2.3118 eV
             Fermi-level           -0.3736722 Eh          -10.1681 eV

 SCC (total)                   0 d,  0 h,  0 min,  0.065 sec
 SCC setup                      ...        0 min,  0.001 sec (  2.071%)
 Dispersion                     ...        0 min,  0.000 sec (  0.338%)
 classical contributions        ...        0 min,  0.000 sec (  0.123%)
 integral evaluation            ...        0 min,  0.021 sec ( 31.493%)
 iterations                     ...        0 min,  0.018 sec ( 27.717%)
 molecular gradient             ...        0 min,  0.025 sec ( 37.754%)
 printout                       ...        0 min,  0.000 sec (  0.446%)

         :::::::::::::::::::::::::::::::::::::::::::::::::::::
         ::                     SUMMARY                     ::
         :::::::::::::::::::::::::::::::::::::::::::::::::::::
         :: total energy             -54.506792900455 Eh    ::
         :: total w/o Gsasa/hb       -54.488327211950 Eh    ::
         :: gradient norm              0.077296912775 Eh/a0 ::
         :: HOMO-LUMO gap              2.311830950926 eV    ::
         ::.................................................::
         :: SCC energy               -55.025055034238 Eh    ::
         :: -> electrostatic           0.243419381304 Eh    ::
         :: -> Gsolv                  -0.040334372690 Eh    ::
         ::    -> Gelec               -0.021868684185 Eh    ::
         ::    -> Gsasa               -0.017549882642 Eh    ::
         ::    -> Ghb                 -0.008540084867 Eh    ::
         ::    -> Gshift               0.007624279005 Eh    ::
         :: repulsion energy           0.534293340721 Eh    ::
         :: dispersion energy         -0.016031206938 Eh    ::
         :: halogen bond corr.         0.000000000000 Eh    ::
         :: add. restraining           0.000000000000 Eh    ::
         :: total charge              -0.000000000000 e     ::
         :::::::::::::::::::::::::::::::::::::::::::::::::::::

      ----------------------------------------------------------- 
     |                   =====================                   |
     |                        A N C O P T                        |
     |                   =====================                   |
     |               Approximate Normal Coordinate               |
     |                Rational Function Optimizer                |
      ----------------------------------------------------------- 

          ...................................................
          :                      SETUP                      :
          :.................................................:
          :   optimization level            normal          :
          :   max. optcycles                   200          :
          :   ANC micro-cycles                  20          :
          :   degrees of freedom                81          :
          :.................................................:
          :   RF solver                   davidson          :
          :   write xtbopt.log                true          :
          :   linear?                        false          :
          :   energy convergence         0.5000000E-05 Eh   :
          :   grad. convergence          0.1000000E-02 Eh/α :
          :   maximium RF displ.         1.0000000          :
          :   Hlow (freq-cutoff)         0.1000000E-01      :
          :   Hmax (freq-cutoff)         5.0000000          :
          :   S6 in model hess.         20.0000000          :
          ...................................................

generating ANC from model Hessian ...
Using Lindh-Hessian (1995)
 Shifting diagonal of input Hessian by   9.348196428148627E-003
 Lowest  eigenvalues of input Hessian
    0.000000    0.000000    0.000000    0.000000    0.000000    0.000000
    0.010000    0.011150    0.011709    0.012559    0.014036    0.015866
    0.017863    0.018896    0.019413    0.021219    0.022504    0.023732
 Highest eigenvalues
    1.801424    1.971987    1.989568    2.175424    2.318181    2.429884
 

........................................................................
.............................. CYCLE    1 ..............................
........................................................................
   1    -55.0250550 -0.550251E+02  0.510E-06    2.31       0.0  T
   2    -55.0250550  0.497380E-13  0.251E-06    2.31    7392.6  T
   3    -55.0250550 -0.113687E-12  0.125E-06    2.31   14875.0  T
     SCC iter.                  ...        0 min,  0.005 sec
     gradient                   ...        0 min,  0.044 sec
 * total energy  :   -54.5067929 Eh     change       -0.5421441E-11 Eh
   gradient norm :     0.0772970 Eh/α   predicted     0.0000000E+00 (-100.00%)
   displ. norm   :     0.2558286 α      lambda       -0.8193409E-02
   maximum displ.:     0.1112567 α      in ANC's #14, #11, #15, ...

........................................................................
.............................. CYCLE    2 ..............................
........................................................................
   1    -55.0337947 -0.550338E+02  0.759E-02    2.42       0.0  T
   2    -55.0339387 -0.143961E-03  0.313E-02    2.41       1.0  T
   3    -55.0339594 -0.207385E-04  0.141E-02    2.41       1.3  T
   4    -55.0339598 -0.443320E-06  0.560E-03    2.41       3.3  T
   5    -55.0339600 -0.117904E-06  0.105E-03    2.41      17.6  T
   6    -55.0339600 -0.239271E-07  0.245E-04    2.41      75.9  T
   7    -55.0339600 -0.331532E-09  0.896E-05    2.41     207.3  T
   8    -55.0339600 -0.385754E-10  0.156E-05    2.41    1188.1  T
     SCC iter.                  ...        0 min,  0.011 sec
     gradient                   ...        0 min,  0.032 sec
 * total energy  :   -54.5125588 Eh     change       -0.5765943E-02 Eh
   gradient norm :     0.0346869 Eh/α   predicted    -0.4366405E-02 ( -24.27%)
   displ. norm   :     0.2440311 α      lambda       -0.2882191E-02
   maximum displ.:     0.1258486 α      in ANC's #11, #14, #12, ...

........................................................................
.............................. CYCLE    3 ..............................
........................................................................
   1    -55.0372774 -0.550373E+02  0.612E-02    2.49       0.0  T
   2    -55.0373869 -0.109409E-03  0.246E-02    2.49       1.0  T
   3    -55.0373986 -0.117961E-04  0.111E-02    2.49       1.7  T
   4    -55.0373989 -0.242264E-06  0.489E-03    2.49       3.8  T
   5    -55.0373990 -0.842236E-07  0.863E-04    2.49      21.5  T
   6    -55.0373990 -0.149321E-07  0.240E-04    2.49      77.3  T
   7    -55.0373990 -0.314479E-09  0.833E-05    2.49     222.9  T
   8    -55.0373990 -0.313420E-10  0.176E-05    2.49    1056.1  T
     SCC iter.                  ...        0 min,  0.009 sec
     gradient                   ...        0 min,  0.024 sec
 * total energy  :   -54.5141694 Eh     change       -0.1610538E-02 Eh
   gradient norm :     0.0088496 Eh/α   predicted    -0.1527264E-02 (  -5.17%)
   displ. norm   :     0.0981115 α      lambda       -0.2673690E-03
   maximum displ.:     0.0572872 α      in ANC's #11, #6, #14, ...

........................................................................
.............................. CYCLE    4 ..............................
........................................................................
   1    -55.0373556 -0.550374E+02  0.876E-03    2.49       0.0  T
   2    -55.0373582 -0.259431E-05  0.382E-03    2.49       4.9  T
   3    -55.0373583 -0.843838E-07  0.212E-03    2.49       8.8  T
   4    -55.0373583 -0.136760E-08  0.622E-04    2.49      29.9  T
   5    -55.0373583 -0.446809E-08  0.131E-04    2.49     142.0  T
   6    -55.0373583 -0.180925E-09  0.556E-05    2.49     334.3  T
     SCC iter.                  ...        0 min,  0.007 sec
     gradient                   ...        0 min,  0.026 sec
 * total energy  :   -54.5143665 Eh     change       -0.1971590E-03 Eh
   gradient norm :     0.0055041 Eh/α   predicted    -0.1349757E-03 ( -31.54%)
   displ. norm   :     0.1205165 α      lambda       -0.1809770E-03
   maximum displ.:     0.0671710 α      in ANC's #11, #6, #4, ...

........................................................................
.............................. CYCLE    5 ..............................
........................................................................
   1    -55.0374764 -0.550375E+02  0.913E-03    2.50       0.0  T
   2    -55.0374782 -0.181322E-05  0.445E-03    2.50       4.2  T
   3    -55.0374785 -0.327029E-06  0.246E-03    2.50       7.6  T
   4    -55.0374785 -0.122333E-07  0.573E-04    2.50      32.4  T
   5    -55.0374785 -0.232337E-08  0.132E-04    2.50     140.4  T
   6    -55.0374785 -0.301654E-09  0.390E-05    2.50     476.0  T
     SCC iter.                  ...        0 min,  0.007 sec
     gradient                   ...        0 min,  0.023 sec
 * total energy  :   -54.5144793 Eh     change       -0.1127459E-03 Eh
   gradient norm :     0.0034404 Eh/α   predicted    -0.9181716E-04 ( -18.56%)
   displ. norm   :     0.0768928 α      lambda       -0.4691919E-04
   maximum displ.:     0.0388089 α      in ANC's #6, #11, #4, ...

........................................................................
.............................. CYCLE    6 ..............................
........................................................................
   1    -55.0378378 -0.550378E+02  0.471E-03    2.50       0.0  T
   2    -55.0378382 -0.430026E-06  0.208E-03    2.50       8.9  T
   3    -55.0378383 -0.105116E-06  0.119E-03    2.50      15.6  T
   4    -55.0378383 -0.555331E-08  0.293E-04    2.50      63.3  T
   5    -55.0378383 -0.331369E-09  0.558E-05    2.50     332.6  T
   6    -55.0378383 -0.561613E-10  0.136E-05    2.50    1363.4  T
     SCC iter.                  ...        0 min,  0.007 sec
     gradient                   ...        0 min,  0.023 sec
 * total energy  :   -54.5145156 Eh     change       -0.3627302E-04 Eh
   gradient norm :     0.0025791 Eh/α   predicted    -0.2359843E-04 ( -34.94%)
   displ. norm   :     0.1296506 α      lambda       -0.6020400E-04
   maximum displ.:     0.0634141 α      in ANC's #3, #4, #6, ...

........................................................................
.............................. CYCLE    7 ..............................
........................................................................
   1    -55.0384413 -0.550384E+02  0.618E-03    2.50       0.0  T
   2    -55.0384421 -0.745694E-06  0.250E-03    2.50       7.4  T
   3    -55.0384422 -0.134795E-06  0.156E-03    2.50      11.9  T
   4    -55.0384422 -0.142771E-07  0.472E-04    2.50      39.3  T
   5    -55.0384422 -0.236497E-09  0.928E-05    2.50     200.0  T
   6    -55.0384422 -0.983249E-10  0.223E-05    2.50     831.9  T
     SCC iter.                  ...        0 min,  0.007 sec
     gradient                   ...        0 min,  0.037 sec
 * total energy  :   -54.5145575 Eh     change       -0.4194508E-04 Eh
   gradient norm :     0.0018948 Eh/α   predicted    -0.3061190E-04 ( -27.02%)
   displ. norm   :     0.1672603 α      lambda       -0.3598653E-04
   maximum displ.:     0.0913366 α      in ANC's #3, #4, #1, ...

........................................................................
.............................. CYCLE    8 ..............................
........................................................................
   1    -55.0390060 -0.550390E+02  0.498E-03    2.51       0.0  T
   2    -55.0390064 -0.463368E-06  0.199E-03    2.51       9.3  T
   3    -55.0390065 -0.333344E-07  0.125E-03    2.51      14.9  T
   4    -55.0390065 -0.831381E-08  0.385E-04    2.51      48.3  T
   5    -55.0390065 -0.779792E-09  0.981E-05    2.50     189.2  T
   6    -55.0390065 -0.692921E-10  0.300E-05    2.51     618.8  T
     SCC iter.                  ...        0 min,  0.007 sec
     gradient                   ...        0 min,  0.023 sec
 * total energy  :   -54.5145886 Eh     change       -0.3107272E-04 Eh
   gradient norm :     0.0028023 Eh/α   predicted    -0.1822723E-04 ( -41.34%)
   displ. norm   :     0.0481572 α      lambda       -0.2020398E-04
   maximum displ.:     0.0285746 α      in ANC's #1, #4, #3, ...

........................................................................
.............................. CYCLE    9 ..............................
........................................................................
   1    -55.0392806 -0.550393E+02  0.222E-03    2.51       0.0  T
   2    -55.0392808 -0.127999E-06  0.100E-03    2.51      18.5  T
   3    -55.0392808 -0.247121E-07  0.534E-04    2.51      34.8  T
   4    -55.0392808 -0.170380E-08  0.209E-04    2.51      88.7  T
   5    -55.0392808 -0.750759E-10  0.305E-05    2.51     609.4  T
   6    -55.0392808 -0.111697E-10  0.998E-06    2.51    1859.8  T
     SCC iter.                  ...        0 min,  0.007 sec
     gradient                   ...        0 min,  0.023 sec
 * total energy  :   -54.5146056 Eh     change       -0.1699004E-04 Eh
   gradient norm :     0.0019859 Eh/α   predicted    -0.1013433E-04 ( -40.35%)
   displ. norm   :     0.1647964 α      lambda       -0.3489913E-04
   maximum displ.:     0.1037644 α      in ANC's #1, #4, #3, ...

........................................................................
.............................. CYCLE   10 ..............................
........................................................................
   1    -55.0392200 -0.550392E+02  0.652E-03    2.51       0.0  T
   2    -55.0392211 -0.114539E-05  0.279E-03    2.50       6.6  T
   3    -55.0392213 -0.200507E-06  0.157E-03    2.50      11.8  T
   4    -55.0392214 -0.153902E-07  0.664E-04    2.50      28.0  T
   5    -55.0392214 -0.501032E-09  0.979E-05    2.50     189.6  T
   6    -55.0392214 -0.140339E-09  0.247E-05    2.50     751.6  T
     SCC iter.                  ...        0 min,  0.007 sec
     gradient                   ...        0 min,  0.023 sec
 * total energy  :   -54.5146349 Eh     change       -0.2932256E-04 Eh
   gradient norm :     0.0017051 Eh/α   predicted    -0.1766136E-04 ( -39.77%)
   displ. norm   :     0.0815271 α      lambda       -0.1169914E-04
   maximum displ.:     0.0583676 α      in ANC's #1, #4, #2, ...

........................................................................
.............................. CYCLE   11 ..............................
........................................................................
   1    -55.0391436 -0.550391E+02  0.122E-03    2.50       0.0  T
   2    -55.0391436 -0.222284E-07  0.494E-04    2.50      37.6  T
   3    -55.0391436 -0.180160E-08  0.276E-04    2.50      67.3  T
   4    -55.0391436 -0.467708E-09  0.890E-05    2.50     208.6  T
   5    -55.0391436 -0.465477E-10  0.251E-05    2.50     738.9  T
     SCC iter.                  ...        0 min,  0.006 sec
     gradient                   ...        0 min,  0.023 sec
 * total energy  :   -54.5146506 Eh     change       -0.1567918E-04 Eh
   gradient norm :     0.0013787 Eh/α   predicted    -0.5867548E-05 ( -62.58%)
   displ. norm   :     0.1256279 α      lambda       -0.2375209E-04
   maximum displ.:     0.0916992 α      in ANC's #1, #4, #2, ...

........................................................................
.............................. CYCLE   12 ..............................
........................................................................
   1    -55.0392793 -0.550393E+02  0.387E-03    2.50       0.0  T
   2    -55.0392796 -0.240425E-06  0.176E-03    2.50      10.6  T
   3    -55.0392796 -0.392643E-07  0.103E-03    2.50      18.0  T
   4    -55.0392796 -0.818915E-08  0.282E-04    2.50      65.9  T
   5    -55.0392796 -0.148546E-09  0.611E-05    2.50     304.1  T
   6    -55.0392796 -0.354987E-10  0.177E-05    2.50    1049.1  T
     SCC iter.                  ...        0 min,  0.007 sec
     gradient                   ...        0 min,  0.023 sec
 * total energy  :   -54.5146795 Eh     change       -0.2893854E-04 Eh
   gradient norm :     0.0011165 Eh/α   predicted    -0.1196234E-04 ( -58.66%)
   displ. norm   :     0.1859244 α      lambda       -0.2663454E-04
   maximum displ.:     0.1342416 α      in ANC's #1, #4, #2, ...

........................................................................
.............................. CYCLE   13 ..............................
........................................................................
   1    -55.0389768 -0.550390E+02  0.376E-03    2.50       0.0  T
   2    -55.0389771 -0.303574E-06  0.168E-03    2.50      11.0  T
   3    -55.0389771 -0.440626E-07  0.934E-04    2.50      19.9  T
   4    -55.0389771 -0.623859E-08  0.317E-04    2.50      58.6  T
   5    -55.0389771 -0.941611E-10  0.749E-05    2.50     248.0  T
   6    -55.0389771 -0.437694E-10  0.181E-05    2.50    1025.0  T
     SCC iter.                  ...        0 min,  0.007 sec
     gradient                   ...        0 min,  0.023 sec
 * total energy  :   -54.5147114 Eh     change       -0.3185898E-04 Eh
   gradient norm :     0.0019084 Eh/α   predicted    -0.1352442E-04 ( -57.55%)
   displ. norm   :     0.1740889 α      lambda       -0.2222948E-04
   maximum displ.:     0.1284420 α      in ANC's #1, #4, #2, ...

........................................................................
.............................. CYCLE   14 ..............................
........................................................................
   1    -55.0388389 -0.550388E+02  0.232E-03    2.50       0.0  T
   2    -55.0388390 -0.753291E-07  0.107E-03    2.50      17.3  T
   3    -55.0388390 -0.555958E-08  0.515E-04    2.50      36.1  T
   4    -55.0388390 -0.141210E-08  0.179E-04    2.50     103.9  T
   5    -55.0388390 -0.100400E-09  0.364E-05    2.50     510.5  T
     SCC iter.                  ...        0 min,  0.006 sec
     gradient                   ...        0 min,  0.023 sec
 * total energy  :   -54.5147400 Eh     change       -0.2858430E-04 Eh
   gradient norm :     0.0019016 Eh/α   predicted    -0.1126641E-04 ( -60.59%)
   displ. norm   :     0.1528603 α      lambda       -0.2054971E-04
   maximum displ.:     0.1159321 α      in ANC's #1, #2, #4, ...

........................................................................
.............................. CYCLE   15 ..............................
........................................................................
   1    -55.0392228 -0.550392E+02  0.298E-03    2.50       0.0  T
   2    -55.0392229 -0.883064E-07  0.131E-03    2.50      14.1  T
   3    -55.0392229 -0.110049E-07  0.726E-04    2.50      25.6  T
   4    -55.0392229 -0.473803E-08  0.171E-04    2.50     108.8  T
   5    -55.0392229 -0.102659E-09  0.583E-05    2.50     318.8  T
     SCC iter.                  ...        0 min,  0.006 sec
     gradient                   ...        0 min,  0.023 sec
 * total energy  :   -54.5147662 Eh     change       -0.2620044E-04 Eh
   gradient norm :     0.0012465 Eh/α   predicted    -0.1038594E-04 ( -60.36%)
   displ. norm   :     0.1795713 α      lambda       -0.2110949E-04
   maximum displ.:     0.1403230 α      in ANC's #1, #2, #4, ...

........................................................................
.............................. CYCLE   16 ..............................
........................................................................
   1    -55.0389996 -0.550390E+02  0.269E-03    2.50       0.0  T
   2    -55.0389998 -0.164938E-06  0.117E-03    2.50      15.9  T
   3    -55.0389998 -0.346579E-07  0.634E-04    2.50      29.3  T
   4    -55.0389998 -0.172964E-08  0.194E-04    2.50      95.8  T
   5    -55.0389998 -0.812577E-10  0.521E-05    2.50     356.4  T
     SCC iter.                  ...        0 min,  0.006 sec
     gradient                   ...        0 min,  0.023 sec
 * total energy  :   -54.5147905 Eh     change       -0.2439768E-04 Eh
   gradient norm :     0.0010086 Eh/α   predicted    -0.1070657E-04 ( -56.12%)
   displ. norm   :     0.0835875 α      lambda       -0.9354984E-05
   maximum displ.:     0.0722169 α      in ANC's #1, #2, #4, ...

........................................................................
.............................. CYCLE   17 ..............................
........................................................................
   1    -55.0393597 -0.550394E+02  0.167E-03    2.50       0.0  T
   2    -55.0393598 -0.647578E-07  0.845E-04    2.50      22.0  T
   3    -55.0393598 -0.112297E-07  0.399E-04    2.50      46.5  T
   4    -55.0393598 -0.948525E-09  0.134E-04    2.50     138.1  T
   5    -55.0393598 -0.424834E-10  0.359E-05    2.50     517.6  T
     SCC iter.                  ...        0 min,  0.006 sec
     gradient                   ...        0 min,  0.023 sec
 * total energy  :   -54.5148029 Eh     change       -0.1231915E-04 Eh
   gradient norm :     0.0007442 Eh/α   predicted    -0.4696536E-05 ( -61.88%)
   displ. norm   :     0.0623825 α      lambda       -0.8098873E-05
   maximum displ.:     0.0584733 α      in ANC's #1, #2, #13, ...

........................................................................
.............................. CYCLE   18 ..............................
........................................................................
   1    -55.0395657 -0.550396E+02  0.103E-03    2.50       0.0  T
   2    -55.0395658 -0.180943E-07  0.556E-04    2.50      33.4  T
   3    -55.0395658 -0.223479E-08  0.288E-04    2.50      64.6  T
   4    -55.0395658 -0.314841E-09  0.974E-05    2.50     190.6  T
   5    -55.0395658 -0.431584E-10  0.144E-05    2.50    1288.2  T
     SCC iter.                  ...        0 min,  0.006 sec
     gradient                   ...        0 min,  0.023 sec
 * total energy  :   -54.5148142 Eh     change       -0.1130960E-04 Eh
   gradient norm :     0.0007627 Eh/α   predicted    -0.4057984E-05 ( -64.12%)
   displ. norm   :     0.0580020 α      lambda       -0.8763214E-05
   maximum displ.:     0.0542785 α      in ANC's #1, #3, #4, ...

........................................................................
.............................. CYCLE   19 ..............................
........................................................................
   1    -55.0397162 -0.550397E+02  0.830E-04    2.50       0.0  T
   2    -55.0397162 -0.978091E-08  0.434E-04    2.50      42.8  T
   3    -55.0397162 -0.290143E-09  0.199E-04    2.50      93.2  T
   4    -55.0397162 -0.989928E-10  0.849E-05    2.50     218.8  T
     SCC iter.                  ...        0 min,  0.005 sec
     gradient                   ...        0 min,  0.023 sec
 * total energy  :   -54.5148265 Eh     change       -0.1232087E-04 Eh
   gradient norm :     0.0006686 Eh/α   predicted    -0.4389306E-05 ( -64.38%)
   displ. norm   :     0.0668120 α      lambda       -0.9793675E-05
   maximum displ.:     0.0582494 α      in ANC's #1, #3, #4, ...

........................................................................
.............................. CYCLE   20 ..............................
........................................................................
   1    -55.0396360 -0.550396E+02  0.949E-04    2.50       0.0  T
   2    -55.0396360 -0.161716E-07  0.423E-04    2.50      43.9  T
   3    -55.0396360 -0.167499E-08  0.265E-04    2.50      70.1  T
   4    -55.0396360 -0.218996E-09  0.689E-05    2.50     269.3  T
   5    -55.0396360 -0.589466E-10  0.121E-05    2.50    1536.4  T
     SCC iter.                  ...        0 min,  0.006 sec
     gradient                   ...        0 min,  0.023 sec
 * total energy  :   -54.5148399 Eh     change       -0.1344055E-04 Eh
   gradient norm :     0.0005547 Eh/α   predicted    -0.4908082E-05 ( -63.48%)
   displ. norm   :     0.0725523 α      lambda       -0.9323679E-05
   maximum displ.:     0.0605025 α      in ANC's #1, #3, #4, ...
 * RMSD in coord.:     0.3331814 α      energy gain  -0.8047039E-02 Eh

generating ANC from model Hessian ...
Using Lindh-Hessian (1995)
 Shifting diagonal of input Hessian by   9.345071144433234E-003
 Lowest  eigenvalues of input Hessian
    0.000000    0.000000    0.000000    0.000000    0.000000    0.000000
    0.010000    0.011150    0.011651    0.012499    0.013809    0.015780
    0.017614    0.019427    0.019575    0.021176    0.022944    0.024258
 Highest eigenvalues
    1.862591    1.992498    2.028953    2.201346    2.376182    2.437317
 

........................................................................
.............................. CYCLE   21 ..............................
........................................................................
   1    -55.0396896 -0.550397E+02  0.802E-04    2.50       0.0  T
   2    -55.0396896 -0.670620E-08  0.356E-04    2.50      52.1  T
   3    -55.0396896 -0.979313E-09  0.219E-04    2.50      84.7  T
   4    -55.0396896 -0.312944E-09  0.379E-05    2.50     489.4  T
   5    -55.0396896 -0.111342E-10  0.122E-05    2.50    1523.2  T
     SCC iter.                  ...        0 min,  0.006 sec
     gradient                   ...        0 min,  0.024 sec
 * total energy  :   -54.5148525 Eh     change       -0.1258857E-04 Eh
   gradient norm :     0.0005611 Eh/α   predicted     0.0000000E+00 (-100.00%)
   displ. norm   :     0.0271909 α      lambda       -0.2888961E-06
   maximum displ.:     0.0261572 α      in ANC's #1, #2, #5, ...

........................................................................
.............................. CYCLE   22 ..............................
........................................................................
   1    -55.0395700 -0.550396E+02  0.524E-04    2.50       0.0  T
   2    -55.0395700 -0.716962E-08  0.326E-04    2.50      57.0  T
   3    -55.0395700 -0.962551E-09  0.164E-04    2.50     113.1  T
   4    -55.0395700 -0.314202E-10  0.658E-05    2.50     282.3  T
     SCC iter.                  ...        0 min,  0.005 sec
     gradient                   ...        0 min,  0.025 sec
 * total energy  :   -54.5148579 Eh     change       -0.5323499E-05 Eh
   gradient norm :     0.0003304 Eh/α   predicted    -0.1927606E-05 ( -63.79%)
   displ. norm   :     0.0348199 α      lambda       -0.4468790E-05
   maximum displ.:     0.0318712 α      in ANC's #1, #2, #5, ...

........................................................................
.............................. CYCLE   23 ..............................
........................................................................
   1    -55.0394849 -0.550395E+02  0.641E-04    2.50       0.0  T
   2    -55.0394849 -0.125743E-07  0.407E-04    2.50      45.6  T
   3    -55.0394849 -0.158269E-08  0.213E-04    2.50      87.1  T
   4    -55.0394849 -0.118661E-10  0.878E-05    2.50     211.6  T
   5    -55.0394849 -0.375593E-10  0.853E-06    2.50    2176.8  T
     SCC iter.                  ...        0 min,  0.006 sec
     gradient                   ...        0 min,  0.023 sec
 * total energy  :   -54.5148639 Eh     change       -0.6000324E-05 Eh
   gradient norm :     0.0003061 Eh/α   predicted    -0.2235802E-05 ( -62.74%)
   displ. norm   :     0.0398681 α      lambda       -0.4518760E-05
   maximum displ.:     0.0362659 α      in ANC's #1, #2, #4, ...

........................................................................
.............................. CYCLE   24 ..............................
........................................................................
   1    -55.0394825 -0.550395E+02  0.498E-04    2.50       0.0  T
   2    -55.0394825 -0.803178E-08  0.320E-04    2.50      58.1  T
   3    -55.0394825 -0.103962E-08  0.171E-04    2.50     108.9  T
   4    -55.0394825 -0.614619E-11  0.674E-05    2.50     275.4  T
     SCC iter.                  ...        0 min,  0.005 sec
     gradient                   ...        0 min,  0.032 sec
 * total energy  :   -54.5148699 Eh     change       -0.6053614E-05 Eh
   gradient norm :     0.0003225 Eh/α   predicted    -0.2262089E-05 ( -62.63%)
   displ. norm   :     0.0369587 α      lambda       -0.3701586E-05
   maximum displ.:     0.0338180 α      in ANC's #1, #2, #4, ...

........................................................................
.............................. CYCLE   25 ..............................
........................................................................
   1    -55.0394552 -0.550395E+02  0.296E-04    2.50       0.0  T
   2    -55.0394552 -0.210233E-08  0.158E-04    2.50     117.7  T
   3    -55.0394552 -0.272088E-09  0.781E-05    2.50     237.8  T
     SCC iter.                  ...        0 min,  0.004 sec
     gradient                   ...        0 min,  0.023 sec
 * total energy  :   -54.5148751 Eh     change       -0.5202717E-05 Eh
   gradient norm :     0.0003399 Eh/α   predicted    -0.1854956E-05 ( -64.35%)
   displ. norm   :     0.0335399 α      lambda       -0.3330197E-05
   maximum displ.:     0.0313212 α      in ANC's #1, #2, #4, ...

........................................................................
.............................. CYCLE   26 ..............................
........................................................................
   1    -55.0394531 -0.550395E+02  0.240E-04    2.50       0.0  T
   2    -55.0394531 -0.593467E-09  0.983E-05    2.50     189.0  T
   3    -55.0394531 -0.260556E-10  0.446E-05    2.50     416.8  T
     SCC iter.                  ...        0 min,  0.004 sec
     gradient                   ...        0 min,  0.023 sec
 * total energy  :   -54.5148799 Eh     change       -0.4801851E-05 Eh
   gradient norm :     0.0003201 Eh/α   predicted    -0.1666472E-05 ( -65.30%)
   displ. norm   :     0.0318215 α      lambda       -0.3237448E-05
   maximum displ.:     0.0302607 α      in ANC's #1, #4, #13, ...

   *** GEOMETRY OPTIMIZATION CONVERGED AFTER 26 ITERATIONS ***

------------------------------------------------------------------------
 total energy gain   :        -0.0080870 Eh       -5.0747 kcal/mol
 total RMSD          :         0.3538472 a0        0.1872 Å
 total power (kW/mol):        -0.8166323 (step)  -17.9680 (real)
------------------------------------------------------------------------

 ANCopt (total)                0 d,  0 h,  0 min,  1.182 sec
 optimizer setup                ...        0 min,  0.001 sec (  0.052%)
 model hessian                  ...        0 min,  0.025 sec (  2.110%)
 ANC generation                 ...        0 min,  0.002 sec (  0.168%)
 coordinate transformation      ...        0 min,  0.000 sec (  0.036%)
 single point calculation       ...        0 min,  1.146 sec ( 97.001%)
 optimization log               ...        0 min,  0.004 sec (  0.336%)
 hessian update                 ...        0 min,  0.000 sec (  0.032%)
 rational function              ...        0 min,  0.002 sec (  0.152%)

================
 final structure:
================
29
 xtb: 6.5.1 (579679a)
C            3.90644732904075        1.97163509068361       -0.33709422944130
O            2.65410244448546        1.28840870490429       -0.22057846519999
C            2.70093305584745       -0.03686885709907       -0.21685831119401
O            3.74288460123256       -0.66392764839055       -0.31140289627412
C            1.37846504476982       -0.68711708591035       -0.07690274077614
N            0.28053183836694        0.13290981678560       -0.00474765844680
C           -0.88731852310969       -0.39766882823820        0.14221246069051
C           -2.12640906112418        0.47802277897781        0.21618049173029
C           -1.71096517987301        1.93668606846972        0.42959977850346
C           -2.92249739947842        0.32747810022486       -1.08664994794329
N           -2.97678870395896        0.06723224730507        1.32742523972272
N           -1.05920327153199       -1.74879990925731        0.22971127386841
C           -0.04106296109810       -2.67906329883085        0.15916824616787
O           -0.27156829039808       -3.87346435262682        0.24168582848364
C            1.27570540865714       -2.05613152934627       -0.01419876121781
O            2.31570349205658       -2.88958637829470       -0.09098829714874
H            4.57883681953096        1.65925502590251        0.46512434510675
H            3.68947407012487        3.03496785073011       -0.25869748292426
H            4.36567527511939        1.74641029317670       -1.30224637578243
H           -1.11722615377875        2.28738589388534       -0.41378186035421
H           -2.60150686491995        2.55579379414180        0.52703461167506
H           -1.11515243558989        2.02634236779747        1.33729427786744
H           -3.83119689571913        0.92495000272013       -1.02730291641994
H           -3.19794200774089       -0.71462815526618       -1.24258901657607
H           -2.32713571398098        0.66430637696063       -1.93447871702463
H           -3.44214945468700       -0.80415599362281        1.12146881466205
H           -2.42691781179788       -0.05062254006767        2.16703577341584
H           -1.98682119249278       -2.11870883442754        0.37182454597039
H            3.15310454204777       -2.38104300128725       -0.19724901114108
 
 Bond Distances (Angstroems)
 ---------------------------
C1-O2=1.4313         C1-H17=1.0924        C1-H18=1.0881        C1-H19=1.0923        O2-C1=1.4313         O2-C3=1.3261         
C3-O2=1.3261         C3-O4=1.2198         C3-C5=1.4803         O4-C3=1.2198         C5-C3=1.4803         C5-N6=1.3723         
C5-C15=1.3743        N6-C5=1.3723         N6-C7=1.2911         C7-N6=1.2911         C7-C8=1.5191         C7-N12=1.3648        
C8-C7=1.5191         C8-C9=1.5316         C8-C10=1.5342        C8-N11=1.4583        C9-C8=1.5316         C9-H20=1.0894        
C9-H21=1.0890        C9-H22=1.0895        C10-C8=1.5342        C10-H23=1.0891       C10-H24=1.0891       C10-H25=1.0894       
N11-C8=1.4583        N11-H26=1.0091       N11-H27=1.0105       N12-C7=1.3648        N12-C13=1.3809       N12-H28=1.0087       
C13-N12=1.3809       C13-O14=1.2192       C13-C15=1.4670       O14-C13=1.2192       C15-C5=1.3743        C15-C13=1.4670       
C15-O16=1.3350       O16-C15=1.3350       O16-H29=0.9855       H17-C1=1.0924        H18-C1=1.0881        H19-C1=1.0923        
H20-C9=1.0894        H21-C9=1.0890        H22-C9=1.0895        H23-C10=1.0891       H24-C10=1.0891       H25-C10=1.0894       
H26-N11=1.0091       H27-N11=1.0105       H28-N12=1.0087       H29-O16=0.9855       
 C  H  Rav=1.0898 sigma=0.0014  Rmin=1.0881  Rmax=1.0924     9
 C  C  Rav=1.4844 sigma=0.0553  Rmin=1.3743  Rmax=1.5342     6
 N  H  Rav=1.0095 sigma=0.0008  Rmin=1.0087  Rmax=1.0105     3
 N  C  Rav=1.3735 sigma=0.0531  Rmin=1.2911  Rmax=1.4583     5
 O  H  Rav=0.9855 sigma=0.0000  Rmin=0.9855  Rmax=0.9855     1
 O  C  Rav=1.3063 sigma=0.0799  Rmin=1.2192  Rmax=1.4313     5
 
 selected bond angles (degree)
 --------------------
H17-C1-O2=110.02               H18-C1-O2=106.63               H18-C1-H17=110.44              H19-C1-O2=109.96               
H19-C1-H17=109.34              H19-C1-H18=110.43              C3-O2-C1=116.51                O4-C3-O2=122.94                
C5-C3-O2=114.06                C5-C3-O4=123.00                N6-C5-C3=117.21                C15-C5-C3=120.58               
C15-C5-N6=122.21               C7-N6-C5=118.95                C8-C7-N6=120.43                N12-C7-N6=121.87               
N12-C7-C8=117.70               C9-C8-C7=109.54                C10-C8-C7=108.99               C10-C8-C9=110.64               
N11-C8-C7=110.51               N11-C8-C9=108.68               N11-C8-C10=108.47              H20-C9-C8=110.28               
H21-C9-C8=109.40               H21-C9-H20=109.39              H22-C9-C8=110.05               H22-C9-H20=108.69              
H22-C9-H21=109.02              H23-C10-C8=109.44              H24-C10-C8=110.29              H24-C10-H23=108.77             
H25-C10-C8=110.30              H25-C10-H23=109.19             H25-C10-H24=108.82             
 
 selected dihedral angles (degree)
 ---------------------------------
C3-O2-C1-H17=303.36           C3-O2-C1-H18=183.58           C3-O2-C1-H19= 63.84           O4-C3-O2-C1=359.74            
C5-C3-O2-C1=179.27            N6-C5-C3-O2=  1.65            N6-C5-C3-O4=181.18            C15-C5-C3-O2=182.09           
C15-C5-C3-O4=  1.62           C7-N6-C5-C3=181.25            C7-N6-C5-C15=  0.80           C8-C7-N6-C5=180.43            
N12-C7-N6-C5=  0.11           C9-C8-C7-N6=346.55            C9-C8-C7-N12=166.86           C10-C8-C7-N6=107.73           
C10-C8-C7-N12=288.04          N11-C8-C7-N6=226.83           N11-C8-C7-N12= 47.15          H20-C9-C8-C7= 62.18           
H20-C9-C8-C10=302.00          H20-C9-C8-N11=183.00          H21-C9-C8-C7=182.52           H21-C9-C8-C10= 62.35          
H21-C9-C8-N11=303.35          H22-C9-C8-C7=302.28           H22-C9-C8-C10=182.10          H22-C9-C8-N11= 63.10          
H23-C10-C8-C7=177.99          H23-C10-C8-C9=298.50          H23-C10-C8-N11= 57.62         H24-C10-C8-C7= 58.38          
H24-C10-C8-C9=178.88          H24-C10-C8-N11=298.01         H25-C10-C8-C7=298.14          H25-C10-C8-C9= 58.65          
H25-C10-C8-N11=177.77         
           -------------------------------------------------
          |                Final Singlepoint                |
           -------------------------------------------------

          ...................................................
          :                      SETUP                      :
          :.................................................:
          :  # basis functions                  90          :
          :  # atomic orbitals                  90          :
          :  # shells                           58          :
          :  # electrons                        88          :
          :  # halogen bonds                     0          :
          :  max. iterations                   250          :
          :  Hamiltonian                  GFN1-xTB          :
          :  restarted?                      false          :
          :  GBSA solvation                   true          :
          :  PC potential                    false          :
          :  electronic temp.          300.0000000     K    :
          :  accuracy                    1.0000000          :
          :  -> integral cutoff          0.2500000E+02      :
          :  -> integral neglect         0.1000000E-07      :
          :  -> SCF convergence          0.1000000E-05 Eh   :
          :  -> wf. convergence          0.2000000E-04 e    :
          :  Broyden damping             0.4000000          :
          ...................................................

 iter      E             dE          RMSdq      gap      omega  full diag
   1    -55.0394531 -0.550395E+02  0.112E-05    2.50       0.0  T
   2    -55.0394531 -0.554223E-12  0.634E-06    2.50    2930.4  T
   3    -55.0394531 -0.156319E-12  0.300E-06    2.50    6194.0  T

   *** convergence criteria satisfied after 3 iterations ***

         #    Occupation            Energy/Eh            Energy/eV
      -------------------------------------------------------------
         1        2.0000           -0.8427555             -22.9325
       ...           ...                  ...                  ...
        38        2.0000           -0.4886860             -13.2978
        39        2.0000           -0.4848782             -13.1942
        40        2.0000           -0.4814101             -13.0998
        41        2.0000           -0.4583907             -12.4734
        42        2.0000           -0.4430114             -12.0550
        43        2.0000           -0.4265899             -11.6081
        44        2.0000           -0.4146970             -11.2845 (HOMO)
        45                         -0.3228320              -8.7847 (LUMO)
        46                         -0.2781513              -7.5689
        47                         -0.2395829              -6.5194
        48                         -0.1558167              -4.2400
        49                         -0.1379229              -3.7531
       ...                                ...                  ...
        90                          0.7229643              19.6729
      -------------------------------------------------------------
                  HL-Gap            0.0918650 Eh            2.4998 eV
             Fermi-level           -0.3687645 Eh          -10.0346 eV

 SCC (total)                   0 d,  0 h,  0 min,  0.039 sec
 SCC setup                      ...        0 min,  0.001 sec (  1.970%)
 Dispersion                     ...        0 min,  0.000 sec (  0.277%)
 classical contributions        ...        0 min,  0.000 sec (  0.109%)
 integral evaluation            ...        0 min,  0.010 sec ( 27.212%)
 iterations                     ...        0 min,  0.004 sec (  9.591%)
 molecular gradient             ...        0 min,  0.023 sec ( 60.034%)
 printout                       ...        0 min,  0.000 sec (  0.721%)

         :::::::::::::::::::::::::::::::::::::::::::::::::::::
         ::                     SUMMARY                     ::
         :::::::::::::::::::::::::::::::::::::::::::::::::::::
         :: total energy             -54.514879909699 Eh    ::
         :: total w/o Gsasa/hb       -54.496348521024 Eh    ::
         :: gradient norm              0.000324734479 Eh/a0 ::
         :: HOMO-LUMO gap              2.499773438859 eV    ::
         ::.................................................::
         :: SCC energy               -55.039453130872 Eh    ::
         :: -> electrostatic           0.242964175842 Eh    ::
         :: -> Gsolv                  -0.040351144380 Eh    ::
         ::    -> Gelec               -0.021819755705 Eh    ::
         ::    -> Gsasa               -0.017680595874 Eh    ::
         ::    -> Ghb                 -0.008475071806 Eh    ::
         ::    -> Gshift               0.007624279005 Eh    ::
         :: repulsion energy           0.540589780893 Eh    ::
         :: dispersion energy         -0.016016559720 Eh    ::
         :: halogen bond corr.         0.000000000000 Eh    ::
         :: add. restraining           0.000000000000 Eh    ::
         :: total charge              -0.000000000000 e     ::
         :::::::::::::::::::::::::::::::::::::::::::::::::::::

           -------------------------------------------------
          |                Property Printout                |
           -------------------------------------------------

    * Orbital Energies and Occupations

         #    Occupation            Energy/Eh            Energy/eV
      -------------------------------------------------------------
         1        2.0000           -0.8427555             -22.9325
       ...           ...                  ...                  ...
        32        2.0000           -0.5158944             -14.0382
        33        2.0000           -0.5142689             -13.9940
        34        2.0000           -0.5109674             -13.9041
        35        2.0000           -0.5013317             -13.6419
        36        2.0000           -0.4996248             -13.5955
        37        2.0000           -0.4953709             -13.4797
        38        2.0000           -0.4886860             -13.2978
        39        2.0000           -0.4848782             -13.1942
        40        2.0000           -0.4814101             -13.0998
        41        2.0000           -0.4583907             -12.4734
        42        2.0000           -0.4430114             -12.0550
        43        2.0000           -0.4265899             -11.6081
        44        2.0000           -0.4146970             -11.2845 (HOMO)
        45                         -0.3228320              -8.7847 (LUMO)
        46                         -0.2781513              -7.5689
        47                         -0.2395829              -6.5194
        48                         -0.1558167              -4.2400
        49                         -0.1379229              -3.7531
        50                         -0.1320369              -3.5929
        51                         -0.1243923              -3.3849
        52                         -0.1135152              -3.0889
        53                         -0.0806357              -2.1942
        54                         -0.0789335              -2.1479
        55                         -0.0750468              -2.0421
       ...                                ...                  ...
        90                          0.7229643              19.6729
      -------------------------------------------------------------
                  HL-Gap            0.0918650 Eh            2.4998 eV
             Fermi-level           -0.3687645 Eh          -10.0346 eV

  Mulliken/CM5 charges         n(s)   n(p)   n(d)
     1C     0.16218  0.04143   0.981  2.856  0.000
     2O    -0.40182 -0.48457   1.683  4.719  0.000
     3C     0.57272  0.63719   0.971  2.456  0.000
     4O    -0.57386 -0.63862   1.726  4.847  0.000
     5C     0.06216  0.13833   1.042  2.895  0.000
     6N    -0.37606 -0.56037   1.528  3.848  0.000
     7C     0.27585  0.42569   1.028  2.696  0.000
     8C     0.14373  0.17875   1.062  2.794  0.000
     9C    -0.09687 -0.23546   1.015  3.082  0.000
    10C    -0.10675 -0.24746   1.020  3.086  0.000
    11N    -0.51827 -0.97330   1.467  4.051  0.000
    12N    -0.29239 -0.64010   1.438  3.854  0.000
    13C     0.45614  0.55846   0.981  2.563  0.000
    14O    -0.57654 -0.61510   1.726  4.850  0.000
    15C     0.23266  0.26693   1.030  2.737  0.000
    16O    -0.50818 -0.69627   1.696  4.812  0.000
    17H     0.05585  0.11803   0.944  0.000  0.000
    18H     0.05482  0.11513   0.945  0.000  0.000
    19H     0.05510  0.11657   0.945  0.000  0.000
    20H     0.03638  0.09352   0.964  0.000  0.000
    21H     0.04024  0.09593   0.960  0.000  0.000
    22H     0.03976  0.09775   0.960  0.000  0.000
    23H     0.05138  0.10692   0.949  0.000  0.000
    24H     0.04311  0.10062   0.957  0.000  0.000
    25H     0.04172  0.09609   0.958  0.000  0.000
    26H     0.22053  0.41414   0.779  0.000  0.000
    27H     0.22255  0.41475   0.777  0.000  0.000
    28H     0.27762  0.48130   0.722  0.000  0.000
    29H     0.40626  0.59373   0.594  0.000  0.000

Wiberg/Mayer (AO) data.
largest (>0.10) Wiberg bond orders for each atom

 ---------------------------------------------------------------------------
     #   Z sym  total        # sym  WBO       # sym  WBO       # sym  WBO
 ---------------------------------------------------------------------------
     1   6 C    3.868 --    18 H    0.986    17 H    0.979    19 H    0.979
                             2 O    0.893
     2   8 O    2.215 --     3 C    1.133     1 C    0.893     4 O    0.128
     3   6 C    3.847 --     4 O    1.604     2 O    1.133     5 C    1.022
     4   8 O    1.942 --     3 C    1.604     2 O    0.128
     5   6 C    3.965 --    15 C    1.486     6 N    1.178     3 C    1.022
     6   7 N    3.022 --     7 C    1.582     5 C    1.178
     7   6 C    3.919 --     6 N    1.582    12 N    1.168     8 C    0.969
     8   6 C    3.967 --     9 C    0.998    11 N    0.983    10 C    0.983
                             7 C    0.969
     9   6 C    3.995 --     8 C    0.998    21 H    0.986    20 H    0.986
                            22 H    0.985
    10   6 C    3.993 --    25 H    0.986    24 H    0.984    23 H    0.983
                             8 C    0.983
    11   7 N    2.958 --     8 C    0.983    27 H    0.941    26 H    0.940
    12   7 N    3.464 --     7 C    1.168    13 C    1.126    28 H    0.885
                            14 O    0.136
    13   6 C    3.910 --    14 O    1.596    12 N    1.126    15 C    1.057
    14   8 O    1.895 --    13 C    1.596    12 N    0.136
    15   6 C    3.921 --     5 C    1.486    16 O    1.122    13 C    1.057
    16   8 O    2.089 --    15 C    1.122    29 H    0.777
    17   1 H    1.007 --     1 C    0.979
    18   1 H    1.010 --     1 C    0.986
    19   1 H    1.006 --     1 C    0.979
    20   1 H    1.010 --     9 C    0.986
    21   1 H    1.007 --     9 C    0.986
    22   1 H    1.006 --     9 C    0.985
    23   1 H    1.002 --    10 C    0.983
    24   1 H    1.000 --    10 C    0.984
    25   1 H    1.002 --    10 C    0.986
    26   1 H    0.955 --    11 N    0.940
    27   1 H    0.956 --    11 N    0.941
    28   1 H    0.933 --    12 N    0.885
    29   1 H    0.853 --    16 O    0.777
 ---------------------------------------------------------------------------

Topologies differ in total number of bonds
Writing topology from bond orders to xtbtopo.mol

 dipole moment from electron density (au)
     X       Y       Z   
  -0.8573   2.0074   0.0706  total (Debye):    5.551

           -------------------------------------------------
          |                Geometry Summary                 |
           -------------------------------------------------

      molecular mass/u    :      227.2175822
   center of mass at/Å    :        0.4182737      -0.5489597       0.0256625
  moments of inertia/u·Å² :        0.7219105E+03   0.1230000E+04   0.1841596E+04
rotational constants/cm⁻¹ :        0.2335141E-01   0.1370539E-01   0.9153816E-02

 * 26 selected distances

     #   Z          #   Z                                           value/Å
     1   6 C        2   8 O                                       1.4313428
     2   8 O        3   6 C                                       1.3261101
     3   6 C        4   8 O                                       1.2197560
     5   6 C        6   7 N                                       1.3722639
     6   7 N        7   6 C                                       1.2911180
     8   6 C        9   6 C                                       1.5316137
     8   6 C       10   6 C                                       1.5342060 (max)
     8   6 C       11   7 N                                       1.4583414
     7   6 C       12   7 N                                       1.3648282
    12   7 N       13   6 C                                       1.3809331
    13   6 C       14   8 O                                       1.2192358
     5   6 C       15   6 C                                       1.3742970
    15   6 C       16   8 O                                       1.3349682
     1   6 C       17   1 H                                       1.0923570
     1   6 C       18   1 H                                       1.0880718
     1   6 C       19   1 H                                       1.0923074
     9   6 C       20   1 H                                       1.0894077
     9   6 C       21   1 H                                       1.0889686
     9   6 C       22   1 H                                       1.0894680
    10   6 C       23   1 H                                       1.0891417
    10   6 C       24   1 H                                       1.0891154
    10   6 C       25   1 H                                       1.0893680
    11   7 N       26   1 H                                       1.0091067
    11   7 N       27   1 H                                       1.0105413
    12   7 N       28   1 H                                       1.0087140
    16   8 O       29   1 H                                       0.9854686 (min)

 * 6 distinct bonds (by element types)

   Z      Z             #   av. dist./Å        max./Å        min./Å
   1 H    6 C           9     1.0898006     1.0923570     1.0880718
   6 C    6 C           3     1.4800389     1.5342060     1.3742970
   1 H    7 N           3     1.0094540     1.0105413     1.0087140
   6 C    7 N           5     1.3734969     1.4583414     1.2911180
   1 H    8 O           1     0.9854686     0.9854686     0.9854686
   6 C    8 O           5     1.3062826     1.4313428     1.2192358


optimized geometry written to: xtbopt.xyz


           -------------------------------------------------
          | TOTAL ENERGY              -54.514879909699 Eh   |
          | GRADIENT NORM               0.000324734479 Eh/α |
          | HOMO-LUMO GAP               2.499773438859 eV   |
           -------------------------------------------------

------------------------------------------------------------------------
 * finished run on 2023/06/20 at 14:51:59.855     
------------------------------------------------------------------------
 total:
 * wall-time:     0 d,  0 h,  0 min,  1.383 sec
 *  cpu-time:     0 d,  0 h,  0 min,  1.313 sec
 * ratio c/w:     0.949 speedup
 SCF:
 * wall-time:     0 d,  0 h,  0 min,  0.065 sec
 *  cpu-time:     0 d,  0 h,  0 min,  0.065 sec
 * ratio c/w:     0.993 speedup
 ANC optimizer:
 * wall-time:     0 d,  0 h,  0 min,  1.225 sec
 *  cpu-time:     0 d,  0 h,  0 min,  1.219 sec
 * ratio c/w:     0.995 speedup

