29
 energy: -54.514879909699 gnorm: 0.000324734479 xtb: 6.5.1 (579679a)
C            3.90644732904075        1.97163509068361       -0.33709422944130
O            2.65410244448546        1.28840870490429       -0.22057846519999
C            2.70093305584745       -0.03686885709907       -0.21685831119401
O            3.74288460123256       -0.66392764839055       -0.31140289627412
C            1.37846504476982       -0.68711708591035       -0.07690274077614
N            0.28053183836694        0.13290981678560       -0.00474765844680
C           -0.88731852310969       -0.39766882823820        0.14221246069051
C           -2.12640906112418        0.47802277897781        0.21618049173029
C           -1.71096517987301        1.93668606846972        0.42959977850346
C           -2.92249739947842        0.32747810022486       -1.08664994794329
N           -2.97678870395896        0.06723224730507        1.32742523972272
N           -1.05920327153199       -1.74879990925731        0.22971127386841
C           -0.04106296109810       -2.67906329883085        0.15916824616787
O           -0.27156829039808       -3.87346435262682        0.24168582848364
C            1.27570540865714       -2.05613152934627       -0.01419876121781
O            2.31570349205658       -2.88958637829470       -0.09098829714874
H            4.57883681953096        1.65925502590251        0.46512434510675
H            3.68947407012487        3.03496785073011       -0.25869748292426
H            4.36567527511939        1.74641029317670       -1.30224637578243
H           -1.11722615377875        2.28738589388534       -0.41378186035421
H           -2.60150686491995        2.55579379414180        0.52703461167506
H           -1.11515243558989        2.02634236779747        1.33729427786744
H           -3.83119689571913        0.92495000272013       -1.02730291641994
H           -3.19794200774089       -0.71462815526618       -1.24258901657607
H           -2.32713571398098        0.66430637696063       -1.93447871702463
H           -3.44214945468700       -0.80415599362281        1.12146881466205
H           -2.42691781179788       -0.05062254006767        2.16703577341584
H           -1.98682119249278       -2.11870883442754        0.37182454597039
H            3.15310454204777       -2.38104300128725       -0.19724901114108
