      -----------------------------------------------------------      
     |                   =====================                   |     
     |                           x T B                           |     
     |                   =====================                   |     
     |                         S. Grimme                         |     
     |          Mulliken Center for Theoretical Chemistry        |     
     |                    University of Bonn                     |     
      -----------------------------------------------------------      

   * xtb version 6.5.1 (579679a) compiled by 'ehlert@majestix' on 2022-07-11

   xtb is free software: you can redistribute it and/or modify it under
   the terms of the GNU Lesser General Public License as published by
   the Free Software Foundation, either version 3 of the License, or
   (at your option) any later version.
   
   xtb is distributed in the hope that it will be useful,
   but WITHOUT ANY WARRANTY; without even the implied warranty of
   MERCHANTABILITY or FITNESS FOR A PARTICULAR PURPOSE.  See the
   GNU Lesser General Public License for more details.
   
   Cite this work as:
   * C. Bannwarth, E. Caldeweyher, S. Ehlert, A. Hansen, P. Pracht,
     J. Seibert, S. Spicher, S. Grimme, WIREs Comput. Mol. Sci., 2020, 11,
     e01493. DOI: 10.1002/wcms.1493
   
   for GFN2-xTB:
   * C. Bannwarth, S. Ehlert and S. Grimme., J. Chem. Theory Comput., 2019,
     15, 1652-1671. DOI: 10.1021/acs.jctc.8b01176
   for GFN1-xTB:
   * S. Grimme, C. Bannwarth, P. Shushkov, J. Chem. Theory Comput., 2017,
     13, 1989-2009. DOI: 10.1021/acs.jctc.7b00118
   for GFN0-xTB:
   * P. Pracht, E. Caldeweyher, S. Ehlert, S. Grimme, ChemRxiv, 2019, preprint.
     DOI: 10.26434/chemrxiv.8326202.v1
   for GFN-FF:
   * S. Spicher and S. Grimme, Angew. Chem. Int. Ed., 2020, 59, 15665-15673.
     DOI: 10.1002/anie.202004239
   
   for ALPB and GBSA implicit solvation:
   * S. Ehlert, M. Stahn, S. Spicher, S. Grimme, J. Chem. Theory Comput.,
     2021, 17, 4250-4261. DOI: 10.1021/acs.jctc.1c00471
   
   for DFT-D4:
   * E. Caldeweyher, C. Bannwarth and S. Grimme, J. Chem. Phys., 2017,
     147, 034112. DOI: 10.1063/1.4993215
   * E. Caldeweyher, S. Ehlert, A. Hansen, H. Neugebauer, S. Spicher,
     C. Bannwarth and S. Grimme, J. Chem. Phys., 2019, 150, 154122.
     DOI: 10.1063/1.5090222
   * E. Caldeweyher, J.-M. Mewes, S. Ehlert and S. Grimme, Phys. Chem. Chem. Phys.
     2020, 22, 8499-8512. DOI: 10.1039/D0CP00502A
   
   for sTDA-xTB:
   * S. Grimme and C. Bannwarth, J. Chem. Phys., 2016, 145, 054103.
     DOI: 10.1063/1.4959605
   
   in the mass-spec context:
   * V. Asgeirsson, C. Bauer and S. Grimme, Chem. Sci., 2017, 8, 4879.
     DOI: 10.1039/c7sc00601b
   * J. Koopman and S. Grimme, ACS Omega 2019, 4, 12, 15120-15133.
     DOI: 10.1021/acsomega.9b02011
   
   for metadynamics refer to:
   * S. Grimme, J. Chem. Theory Comput., 2019, 155, 2847-2862
     DOI: 10.1021/acs.jctc.9b00143
   
   for SPH calculations refer to:
   * S. Spicher and S. Grimme, J. Chem. Theory Comput., 2021, 17, 1701-1714
     DOI: 10.1021/acs.jctc.0c01306
   
   with help from (in alphabetical order)
   P. Atkinson, C. Bannwarth, F. Bohle, G. Brandenburg, E. Caldeweyher
   M. Checinski, S. Dohm, S. Ehlert, S. Ehrlich, I. Gerasimov, C. Hölzer
   A. Katbashev, J. Koopman, C. Lavigne, S. Lehtola, F. März, M. Müller,
   F. Musil, H. Neugebauer, J. Pisarek, C. Plett, P. Pracht, F. Pultar,
   J. Seibert, P. Shushkov, S. Spicher, M. Stahn, M. Steiner, T. Strunk,
   J. Stückrath, T. Rose, and J. Unsleber
   
 * started run on 2023/06/21 at 17:14:18.795     

           -------------------------------------------------
          |                Calculation Setup                |
           -------------------------------------------------

          program call               : /lustre/hpc/kemi/ree/PhD/git/ReactivityQM/dep/xtb-6.5.1/bin/xtb --gfn 1 /lustre/hpc/kemi/ree/PhD/git/ReactivityQM/calculations/R02oxygendeprot/reac01prodE12/conf05/R02oxygendeprot_reac01prodE12_conf05_gfn1.xyz --opt --vfukui --chrg -2 --uhf 0 --alpb DMSO
          hostname                   : node070
          coordinate file            : /lustre/hpc/kemi/ree/PhD/git/ReactivityQM/calculations/R02oxygendeprot/reac01prodE12/conf05/R02oxygendeprot_reac01prodE12_conf05_gfn1.xyz
          omp threads                :                     1

   ID    Z sym.   atoms
    1    6 C      1, 3, 5, 6, 8, 9, 12-15, 17, 19, 22, 23
    2    8 O      2, 4, 7, 10, 18, 24
    3    7 N      11, 16, 20, 21, 25
    4    1 H      26-42

           -------------------------------------------------
          |                 G F N 1 - x T B                 |
           -------------------------------------------------

        Reference                      10.1021/acs.jctc.7b00118
      * Hamiltonian:
        H0-scaling (s, p, d)           1.850000    2.250000    2.000000
        zeta-weighting                 0.000000
      * Dispersion:
        s8                             2.400000
        a1                             0.630000
        a2                             5.000000
        s9                             0.000000
      * Repulsion:
        kExp                           1.500000
        rExp                           1.000000
      * Coulomb:
        alpha                          2.000000
        third order                    atomic
        anisotropic                    false
      * Halogen bond correction:
        rad-scale                      1.300000
        damping                        0.440000

      * Solvation model:               ALPB
        Solvent                        DMSO
        Parameter file                 internal GFN1-xTB/ALPB
        Dielectric constant                4.6680E+01
        Reference state                gsolv [1 M gas/solution]
        Free energy shift                  7.6243E-03 Eh       4.7843E+00 kcal/mol
        Temperature                        2.9815E+02 K
        Density                            1.1000E+00 kg/L
        Solvent mass                       7.8130E+01 g/mol
        Interaction kernel             P16
        Born radius scaling (c1)           1.7672E+00
        Born radii integrator          GBOBC
        Born offset                        0.0000E+00 a0       0.0000E+00 AA
        H-bond correction              true
        Ion screening                  false
        Surface tension                    1.0000E-05 Eh       1.5569E+01 dyn/cm
        Grid points                               230 per atom

          ...................................................
          :                      SETUP                      :
          :.................................................:
          :  # basis functions                 134          :
          :  # atomic orbitals                 134          :
          :  # shells                           84          :
          :  # electrons                       136          :
          :  # halogen bonds                     0          :
          :  max. iterations                   250          :
          :  Hamiltonian                  GFN1-xTB          :
          :  restarted?                      false          :
          :  GBSA solvation                   true          :
          :  PC potential                    false          :
          :  electronic temp.          300.0000000     K    :
          :  accuracy                    1.0000000          :
          :  -> integral cutoff          0.2500000E+02      :
          :  -> integral neglect         0.1000000E-07      :
          :  -> SCF convergence          0.1000000E-05 Eh   :
          :  -> wf. convergence          0.2000000E-04 e    :
          :  Broyden damping             0.4000000          :
          ...................................................

 iter      E             dE          RMSdq      gap      omega  full diag
   1    -83.9953679 -0.839954E+02  0.869E+00    2.13       0.0  T
   2    -84.2936597 -0.298292E+00  0.519E+00    0.65       1.0  T
   3    -83.6978571  0.595803E+00  0.298E+00    0.21       1.0  T
   4    -84.2447243 -0.546867E+00  0.133E+00    1.96       1.0  T
   5    -84.3047704 -0.600461E-01  0.654E-01    1.06       1.0  T
   6    -84.3108216 -0.605119E-02  0.474E-01    0.70       1.0  T
   7    -84.3180598 -0.723822E-02  0.270E-01    0.23       1.0  T
   8    -84.1567765  0.161283E+00  0.109E+00    0.05       1.0  T
   9    -84.1701315 -0.133550E-01  0.105E+00    0.04       1.0  T
  10    -84.1547926  0.153389E-01  0.107E+00    0.04       1.0  T
  11    -84.3218297 -0.167037E+00  0.142E-01    0.14       1.0  T
  12    -84.3217116  0.118124E-03  0.119E-01    0.16       1.0  T
  13    -84.3223205 -0.608946E-03  0.841E-02    0.14       1.0  T
  14    -84.3229642 -0.643620E-03  0.250E-02    0.11       1.0  T
  15    -84.3230081 -0.439849E-04  0.171E-02    0.11       1.0  T
  16    -84.3230410 -0.328840E-04  0.690E-03    0.12       2.2  T
  17    -84.3230354  0.564169E-05  0.811E-03    0.12       1.9  T
  18    -84.3230436 -0.824106E-05  0.334E-03    0.12       4.6  T
  19    -84.3230444 -0.769808E-06  0.187E-03    0.12       8.3  T
  20    -84.3230447 -0.272289E-06  0.805E-04    0.12      19.2  T
  21    -84.3230447 -0.681150E-07  0.334E-04    0.12      46.3  T
  22    -84.3230448 -0.146781E-07  0.863E-05    0.12     178.9  T
  23    -84.3230448 -0.261736E-09  0.579E-05    0.12     266.3  T

   *** convergence criteria satisfied after 23 iterations ***

         #    Occupation            Energy/Eh            Energy/eV
      -------------------------------------------------------------
         1        2.0000           -0.8360317             -22.7496
       ...           ...                  ...                  ...
        62        2.0000           -0.4014418             -10.9238
        63        2.0000           -0.3932182             -10.7000
        64        2.0000           -0.3755246             -10.2185
        65        2.0000           -0.3510334              -9.5521
        66        2.0000           -0.3208495              -8.7308
        67        1.9894           -0.2982695              -8.1163
        68        1.8259           -0.2955279              -8.0417 (HOMO)
        69        0.1847           -0.2911240              -7.9219 (LUMO)
        70                         -0.2395309              -6.5180
        71                         -0.1981513              -5.3920
        72                         -0.1929628              -5.2508
        73                         -0.1762996              -4.7974
       ...                                ...                  ...
       134                          0.7548724              20.5411
      -------------------------------------------------------------
                  HL-Gap            0.0044039 Eh            0.1198 eV
             Fermi-level           -0.2932951 Eh           -7.9810 eV

 SCC (total)                   0 d,  0 h,  0 min,  0.129 sec
 SCC setup                      ...        0 min,  0.002 sec (  1.331%)
 Dispersion                     ...        0 min,  0.000 sec (  0.165%)
 classical contributions        ...        0 min,  0.000 sec (  0.061%)
 integral evaluation            ...        0 min,  0.017 sec ( 12.970%)
 iterations                     ...        0 min,  0.074 sec ( 57.655%)
 molecular gradient             ...        0 min,  0.035 sec ( 27.169%)
 printout                       ...        0 min,  0.001 sec (  0.633%)

         :::::::::::::::::::::::::::::::::::::::::::::::::::::
         ::                     SUMMARY                     ::
         :::::::::::::::::::::::::::::::::::::::::::::::::::::
         :: total energy             -83.600000615597 Eh    ::
         :: total w/o Gsasa/hb       -83.580531020602 Eh    ::
         :: gradient norm              0.152986395850 Eh/a0 ::
         :: HOMO-LUMO gap              0.119836616395 eV    ::
         ::.................................................::
         :: SCC energy               -84.323044755630 Eh    ::
         :: -> electrostatic           0.738117358735 Eh    ::
         :: -> Gsolv                  -0.287670329801 Eh    ::
         ::    -> Gelec               -0.268200734807 Eh    ::
         ::    -> Gsasa               -0.024776439802 Eh    ::
         ::    -> Ghb                 -0.002317434197 Eh    ::
         ::    -> Gshift               0.007624279005 Eh    ::
         :: repulsion energy           0.748316176457 Eh    ::
         :: dispersion energy         -0.025272036425 Eh    ::
         :: halogen bond corr.         0.000000000000 Eh    ::
         :: add. restraining           0.000000000000 Eh    ::
         :: total charge              -1.999999999999 e     ::
         :::::::::::::::::::::::::::::::::::::::::::::::::::::

      ----------------------------------------------------------- 
     |                   =====================                   |
     |                        A N C O P T                        |
     |                   =====================                   |
     |               Approximate Normal Coordinate               |
     |                Rational Function Optimizer                |
      ----------------------------------------------------------- 

          ...................................................
          :                      SETUP                      :
          :.................................................:
          :   optimization level            normal          :
          :   max. optcycles                   200          :
          :   ANC micro-cycles                  20          :
          :   degrees of freedom               120          :
          :.................................................:
          :   RF solver                   davidson          :
          :   write xtbopt.log                true          :
          :   linear?                        false          :
          :   energy convergence         0.5000000E-05 Eh   :
          :   grad. convergence          0.1000000E-02 Eh/α :
          :   maximium RF displ.         1.0000000          :
          :   Hlow (freq-cutoff)         0.1000000E-01      :
          :   Hmax (freq-cutoff)         5.0000000          :
          :   S6 in model hess.         20.0000000          :
          ...................................................

generating ANC from model Hessian ...
Using Lindh-Hessian (1995)
 Shifting diagonal of input Hessian by   9.846427681207713E-003
 Lowest  eigenvalues of input Hessian
    0.000000    0.000000    0.000000    0.000000    0.000000    0.000000
    0.010000    0.010159    0.010660    0.011190    0.011467    0.012219
    0.012608    0.013517    0.014636    0.015741    0.016199    0.016371
 Highest eigenvalues
    1.915640    2.086327    2.095919    2.172300    2.260138    2.290823
 

........................................................................
.............................. CYCLE    1 ..............................
........................................................................
   1    -84.3230448 -0.843230E+02  0.217E-05    0.12       0.0  T
   2    -84.3230448  0.244036E-08  0.132E-04    0.12     117.2  T
   3    -84.3230448 -0.249101E-08  0.107E-05    0.12    1443.1  T
     SCC iter.                  ...        0 min,  0.012 sec
     gradient                   ...        0 min,  0.050 sec
 * total energy  :   -83.6000006 Eh     change       -0.4531557E-09 Eh
   gradient norm :     0.1529924 Eh/α   predicted     0.0000000E+00 (-100.00%)
   displ. norm   :     0.2672347 α      lambda       -0.1990175E-01
   maximum displ.:     0.0814086 α      in ANC's #65, #22, #27, ...

........................................................................
.............................. CYCLE    2 ..............................
........................................................................
   1    -84.3344523 -0.843345E+02  0.183E-01    0.33       0.0  T
   2    -84.0854873  0.248965E+00  0.138E+00    0.06       1.0  T
   3    -84.3360053 -0.250518E+00  0.117E-01    0.24       1.0  T
   4    -84.3367020 -0.696724E-03  0.856E-02    0.19       1.0  T
   5    -84.3370868 -0.384842E-03  0.649E-02    0.17       1.0  T
   6    -84.3374498 -0.362950E-03  0.352E-02    0.16       1.0  T
   7    -84.3376022 -0.152422E-03  0.482E-03    0.14       3.2  T
   8    -84.3376044 -0.219693E-05  0.139E-03    0.14      11.1  T
   9    -84.3376046 -0.168583E-06  0.114E-03    0.14      13.5  T
  10    -84.3376046 -0.232158E-07  0.602E-04    0.14      25.6  T
  11    -84.3376046 -0.472785E-07  0.147E-04    0.14     104.9  T
  12    -84.3376046 -0.117375E-08  0.801E-05    0.14     192.8  T
     SCC iter.                  ...        0 min,  0.038 sec
     gradient                   ...        0 min,  0.033 sec
 * total energy  :   -83.6144930 Eh     change       -0.1449238E-01 Eh
   gradient norm :     0.0815424 Eh/α   predicted    -0.1067021E-01 ( -26.37%)
   displ. norm   :     0.2935592 α      lambda       -0.1066344E-01
   maximum displ.:     0.0982409 α      in ANC's #22, #9, #21, ...

........................................................................
.............................. CYCLE    3 ..............................
........................................................................
   1    -84.3544993 -0.843545E+02  0.147E-01    0.33       0.0  T
   2    -84.3380294  0.164700E-01  0.386E-01    0.07       1.0  T
   3    -84.3553177 -0.172883E-01  0.889E-02    0.30       1.0  T
   4    -84.3556511 -0.333483E-03  0.621E-02    0.24       1.0  T
   5    -84.3559842 -0.333016E-03  0.284E-02    0.20       1.0  T
   6    -84.3560657 -0.815243E-04  0.511E-03    0.17       3.0  T
   7    -84.3560665 -0.772665E-06  0.326E-03    0.17       4.7  T
   8    -84.3560663  0.142154E-06  0.305E-03    0.17       5.1  T
   9    -84.3560675 -0.115655E-05  0.125E-04    0.17     123.1  T
  10    -84.3560675  0.129218E-08  0.128E-04    0.17     120.4  T
  11    -84.3560675 -0.150047E-08  0.615E-05    0.17     251.1  T
     SCC iter.                  ...        0 min,  0.035 sec
     gradient                   ...        0 min,  0.033 sec
 * total energy  :   -83.6207700 Eh     change       -0.6277038E-02 Eh
   gradient norm :     0.0268736 Eh/α   predicted    -0.5795335E-02 (  -7.67%)
   displ. norm   :     0.2211082 α      lambda       -0.1829162E-02
   maximum displ.:     0.0841895 α      in ANC's #9, #8, #5, ...

........................................................................
.............................. CYCLE    4 ..............................
........................................................................
   1    -84.3592934 -0.843593E+02  0.464E-02    0.23       0.0  T
   2    -84.3579435  0.134995E-02  0.113E-01    0.13       1.0  T
   3    -84.3594410 -0.149753E-02  0.242E-02    0.21       1.0  T
   4    -84.3594840 -0.430302E-04  0.106E-02    0.20       1.4  T
   5    -84.3594907 -0.669346E-05  0.362E-03    0.19       4.3  T
   6    -84.3594909 -0.174591E-06  0.194E-03    0.19       8.0  T
   7    -84.3594913 -0.443499E-06  0.185E-04    0.19      83.3  T
   8    -84.3594913 -0.131959E-08  0.864E-05    0.19     178.6  T
     SCC iter.                  ...        0 min,  0.026 sec
     gradient                   ...        0 min,  0.034 sec
 * total energy  :   -83.6221803 Eh     change       -0.1410251E-02 Eh
   gradient norm :     0.0191656 Eh/α   predicted    -0.9594581E-03 ( -31.97%)
   displ. norm   :     0.3846091 α      lambda       -0.2098893E-02
   maximum displ.:     0.1445830 α      in ANC's #9, #8, #5, ...

........................................................................
.............................. CYCLE    5 ..............................
........................................................................
   1    -84.3592814 -0.843593E+02  0.540E-02    0.25       0.0  T
   2    -84.3592758  0.560720E-05  0.469E-02    0.18       1.0  T
   3    -84.3594206 -0.144828E-03  0.251E-02    0.24       1.0  T
   4    -84.3594555 -0.348836E-04  0.117E-02    0.21       1.3  T
   5    -84.3594543  0.120609E-05  0.413E-03    0.21       3.7  T
   6    -84.3594557 -0.142535E-05  0.635E-04    0.21      24.3  T
   7    -84.3594557 -0.668601E-08  0.393E-04    0.21      39.3  T
   8    -84.3594557 -0.108354E-07  0.885E-05    0.21     174.3  T
   9    -84.3594557  0.151772E-10  0.353E-05    0.21     437.1  T
     SCC iter.                  ...        0 min,  0.028 sec
     gradient                   ...        0 min,  0.033 sec
 * total energy  :   -83.6235778 Eh     change       -0.1397522E-02 Eh
   gradient norm :     0.0182514 Eh/α   predicted    -0.1204736E-02 ( -13.79%)
   displ. norm   :     0.2978463 α      lambda       -0.9630199E-03
   maximum displ.:     0.1281542 α      in ANC's #8, #5, #9, ...

........................................................................
.............................. CYCLE    6 ..............................
........................................................................
   1    -84.3590912 -0.843591E+02  0.347E-02    0.24       0.0  T
   2    -84.3591417 -0.504468E-04  0.224E-02    0.21       1.0  T
   3    -84.3591579 -0.162094E-04  0.110E-02    0.23       1.4  T
   4    -84.3591575  0.392447E-06  0.804E-03    0.22       1.9  T
   5    -84.3591601 -0.264248E-05  0.163E-03    0.23       9.5  T
   6    -84.3591603 -0.136796E-06  0.289E-04    0.23      53.4  T
   7    -84.3591603 -0.164081E-08  0.113E-04    0.23     136.7  T
   8    -84.3591603 -0.289518E-09  0.338E-05    0.23     456.4  T
     SCC iter.                  ...        0 min,  0.025 sec
     gradient                   ...        0 min,  0.033 sec
 * total energy  :   -83.6242703 Eh     change       -0.6924752E-03 Eh
   gradient norm :     0.0180033 Eh/α   predicted    -0.5242302E-03 ( -24.30%)
   displ. norm   :     0.3027001 α      lambda       -0.8920186E-03
   maximum displ.:     0.1335405 α      in ANC's #8, #5, #2, ...

........................................................................
.............................. CYCLE    7 ..............................
........................................................................
   1    -84.3596691 -0.843597E+02  0.277E-02    0.23       0.0  T
   2    -84.3597117 -0.426069E-04  0.170E-02    0.23       1.0  T
   3    -84.3597183 -0.661546E-05  0.677E-03    0.23       2.3  T
   4    -84.3597183 -0.907758E-08  0.307E-03    0.23       5.0  T
   5    -84.3597184 -0.529637E-07  0.309E-04    0.23      49.9  T
   6    -84.3597184 -0.319142E-08  0.107E-04    0.23     144.2  T
   7    -84.3597184 -0.149612E-09  0.711E-05    0.23     217.1  T
     SCC iter.                  ...        0 min,  0.022 sec
     gradient                   ...        0 min,  0.033 sec
 * total energy  :   -83.6248893 Eh     change       -0.6190238E-03 Eh
   gradient norm :     0.0127174 Eh/α   predicted    -0.4868878E-03 ( -21.35%)
   displ. norm   :     0.2277318 α      lambda       -0.5076360E-03
   maximum displ.:     0.1200496 α      in ANC's #2, #8, #5, ...

........................................................................
.............................. CYCLE    8 ..............................
........................................................................
   1    -84.3614895 -0.843615E+02  0.171E-02    0.21       0.0  T
   2    -84.3615017 -0.122081E-04  0.135E-02    0.23       1.1  T
   3    -84.3615109 -0.916703E-05  0.572E-03    0.22       2.7  T
   4    -84.3615109  0.452797E-07  0.387E-03    0.23       4.0  T
   5    -84.3615114 -0.502099E-06  0.125E-03    0.22      12.4  T
   6    -84.3615114 -0.685257E-07  0.158E-04    0.22      97.5  T
   7    -84.3615114 -0.141189E-08  0.335E-05    0.22     460.8  T
     SCC iter.                  ...        0 min,  0.022 sec
     gradient                   ...        0 min,  0.033 sec
 * total energy  :   -83.6252248 Eh     change       -0.3354888E-03 Eh
   gradient norm :     0.0087576 Eh/α   predicted    -0.2669886E-03 ( -20.42%)
   displ. norm   :     0.1836804 α      lambda       -0.2266310E-03
   maximum displ.:     0.1103274 α      in ANC's #2, #8, #5, ...

........................................................................
.............................. CYCLE    9 ..............................
........................................................................
   1    -84.3618207 -0.843618E+02  0.132E-02    0.22       0.0  T
   2    -84.3618303 -0.960936E-05  0.552E-03    0.22       2.8  T
   3    -84.3618308 -0.467845E-06  0.295E-03    0.22       5.2  T
   4    -84.3618306  0.135147E-06  0.216E-03    0.22       7.1  T
   5    -84.3618309 -0.244515E-06  0.887E-04    0.22      17.4  T
   6    -84.3618309 -0.420480E-07  0.854E-05    0.22     180.8  T
   7    -84.3618309 -0.232319E-09  0.335E-05    0.22     460.5  T
     SCC iter.                  ...        0 min,  0.022 sec
     gradient                   ...        0 min,  0.034 sec
 * total energy  :   -83.6253901 Eh     change       -0.1653333E-03 Eh
   gradient norm :     0.0069088 Eh/α   predicted    -0.1171395E-03 ( -29.15%)
   displ. norm   :     0.2187930 α      lambda       -0.2156397E-03
   maximum displ.:     0.1365038 α      in ANC's #2, #5, #8, ...

........................................................................
.............................. CYCLE   10 ..............................
........................................................................
   1    -84.3628591 -0.843629E+02  0.966E-03    0.22       0.0  T
   2    -84.3628632 -0.418094E-05  0.377E-03    0.22       4.1  T
   3    -84.3628635 -0.239726E-06  0.275E-03    0.22       5.6  T
   4    -84.3628638 -0.328646E-06  0.135E-03    0.22      11.4  T
   5    -84.3628639 -0.678083E-07  0.548E-04    0.22      28.1  T
   6    -84.3628639 -0.124499E-07  0.946E-05    0.22     163.1  T
   7    -84.3628639 -0.278774E-09  0.313E-05    0.22     493.1  T
     SCC iter.                  ...        0 min,  0.022 sec
     gradient                   ...        0 min,  0.033 sec
 * total energy  :   -83.6255547 Eh     change       -0.1645265E-03 Eh
   gradient norm :     0.0076953 Eh/α   predicted    -0.1129832E-03 ( -31.33%)
   displ. norm   :     0.2961188 α      lambda       -0.2380549E-03
   maximum displ.:     0.1848490 α      in ANC's #2, #8, #5, ...

........................................................................
.............................. CYCLE   11 ..............................
........................................................................
   1    -84.3620786 -0.843621E+02  0.107E-02    0.23       0.0  T
   2    -84.3620807 -0.203095E-05  0.785E-03    0.21       2.0  T
   3    -84.3620842 -0.354238E-05  0.341E-03    0.22       4.5  T
   4    -84.3620851 -0.870901E-06  0.201E-03    0.22       7.7  T
   5    -84.3620852 -0.126643E-06  0.469E-04    0.22      32.9  T
   6    -84.3620852 -0.781027E-08  0.981E-05    0.22     157.2  T
   7    -84.3620852 -0.358625E-09  0.273E-05    0.22     565.7  T
     SCC iter.                  ...        0 min,  0.022 sec
     gradient                   ...        0 min,  0.033 sec
 * total energy  :   -83.6257373 Eh     change       -0.1826881E-03 Eh
   gradient norm :     0.0083225 Eh/α   predicted    -0.1294651E-03 ( -29.13%)
   displ. norm   :     0.3269019 α      lambda       -0.2438549E-03
   maximum displ.:     0.2141990 α      in ANC's #2, #5, #8, ...

........................................................................
.............................. CYCLE   12 ..............................
........................................................................
   1    -84.3625882 -0.843626E+02  0.793E-03    0.22       0.0  T
   2    -84.3625886 -0.440734E-06  0.620E-03    0.21       2.5  T
   3    -84.3625907 -0.214391E-05  0.315E-03    0.22       4.9  T
   4    -84.3625911 -0.400450E-06  0.153E-03    0.22      10.1  T
   5    -84.3625912 -0.763844E-07  0.406E-04    0.22      38.0  T
   6    -84.3625912 -0.143066E-08  0.632E-05    0.22     244.3  T
   7    -84.3625912 -0.118263E-09  0.186E-05    0.22     827.5  T
     SCC iter.                  ...        0 min,  0.022 sec
     gradient                   ...        0 min,  0.033 sec
 * total energy  :   -83.6259250 Eh     change       -0.1876352E-03 Eh
   gradient norm :     0.0082047 Eh/α   predicted    -0.1349620E-03 ( -28.07%)
   displ. norm   :     0.3606787 α      lambda       -0.2331732E-03
   maximum displ.:     0.2434072 α      in ANC's #2, #8, #5, ...

........................................................................
.............................. CYCLE   13 ..............................
........................................................................
   1    -84.3613450 -0.843613E+02  0.132E-02    0.24       0.0  T
   2    -84.3613390  0.603238E-05  0.147E-02    0.21       1.0  T
   3    -84.3613599 -0.209542E-04  0.310E-03    0.23       5.0  T
   4    -84.3613602 -0.314531E-06  0.156E-03    0.22       9.9  T
   5    -84.3613602 -0.122995E-07  0.470E-04    0.22      32.8  T
   6    -84.3613602 -0.144326E-07  0.867E-05    0.23     178.1  T
   7    -84.3613602 -0.200231E-09  0.343E-05    0.23     450.0  T
     SCC iter.                  ...        0 min,  0.022 sec
     gradient                   ...        0 min,  0.033 sec
 * total energy  :   -83.6261035 Eh     change       -0.1784782E-03 Eh
   gradient norm :     0.0073907 Eh/α   predicted    -0.1317559E-03 ( -26.18%)
   displ. norm   :     0.3180340 α      lambda       -0.2264909E-03
   maximum displ.:     0.2359846 α      in ANC's #2, #8, #5, ...

........................................................................
.............................. CYCLE   14 ..............................
........................................................................
   1    -84.3626643 -0.843627E+02  0.112E-02    0.24       0.0  T
   2    -84.3626676 -0.330635E-05  0.678E-03    0.22       2.3  T
   3    -84.3626704 -0.281240E-05  0.361E-03    0.23       4.3  T
   4    -84.3626709 -0.513365E-06  0.146E-03    0.23      10.5  T
   5    -84.3626709 -0.130644E-07  0.533E-04    0.23      29.0  T
   6    -84.3626709 -0.647408E-08  0.100E-04    0.23     153.8  T
   7    -84.3626709 -0.263739E-09  0.332E-05    0.23     464.1  T
     SCC iter.                  ...        0 min,  0.022 sec
     gradient                   ...        0 min,  0.032 sec
 * total energy  :   -83.6262667 Eh     change       -0.1632311E-03 Eh
   gradient norm :     0.0063459 Eh/α   predicted    -0.1247003E-03 ( -23.61%)
   displ. norm   :     0.2878628 α      lambda       -0.1754234E-03
   maximum displ.:     0.2104327 α      in ANC's #2, #8, #5, ...

........................................................................
.............................. CYCLE   15 ..............................
........................................................................
   1    -84.3620561 -0.843621E+02  0.103E-02    0.25       0.0  T
   2    -84.3620593 -0.320568E-05  0.810E-03    0.23       1.9  T
   3    -84.3620650 -0.563864E-05  0.219E-03    0.24       7.0  T
   4    -84.3620651 -0.134552E-06  0.115E-03    0.24      13.4  T
   5    -84.3620651 -0.924960E-08  0.300E-04    0.24      51.5  T
   6    -84.3620651 -0.163016E-08  0.657E-05    0.24     234.9  T
   7    -84.3620651 -0.800355E-10  0.244E-05    0.24     633.6  T
     SCC iter.                  ...        0 min,  0.022 sec
     gradient                   ...        0 min,  0.034 sec
 * total energy  :   -83.6263941 Eh     change       -0.1274493E-03 Eh
   gradient norm :     0.0062720 Eh/α   predicted    -0.9498237E-04 ( -25.47%)
   displ. norm   :     0.2238132 α      lambda       -0.1702135E-03
   maximum displ.:     0.1787861 α      in ANC's #2, #1, #8, ...

........................................................................
.............................. CYCLE   16 ..............................
........................................................................
   1    -84.3644808 -0.843645E+02  0.974E-03    0.24       0.0  T
   2    -84.3644842 -0.341557E-05  0.493E-03    0.24       3.1  T
   3    -84.3644850 -0.715652E-06  0.205E-03    0.24       7.5  T
   4    -84.3644849  0.392675E-07  0.141E-03    0.24      10.9  T
   5    -84.3644850 -0.793079E-07  0.218E-04    0.24      70.9  T
   6    -84.3644850 -0.160981E-08  0.102E-04    0.24     151.5  T
   7    -84.3644850 -0.526896E-09  0.179E-05    0.24     862.6  T
     SCC iter.                  ...        0 min,  0.023 sec
     gradient                   ...        0 min,  0.040 sec
 * total energy  :   -83.6265138 Eh     change       -0.1196922E-03 Eh
   gradient norm :     0.0060798 Eh/α   predicted    -0.8937105E-04 ( -25.33%)
   displ. norm   :     0.2662019 α      lambda       -0.1394487E-03
   maximum displ.:     0.2100726 α      in ANC's #2, #6, #8, ...

........................................................................
.............................. CYCLE   17 ..............................
........................................................................
   1    -84.3639543 -0.843640E+02  0.706E-03    0.25       0.0  T
   2    -84.3639563 -0.201422E-05  0.279E-03    0.24       5.5  T
   3    -84.3639565 -0.201988E-06  0.141E-03    0.25      10.9  T
   4    -84.3639565 -0.167262E-07  0.902E-04    0.25      17.1  T
   5    -84.3639565 -0.208299E-07  0.190E-04    0.25      81.0  T
   6    -84.3639565 -0.165397E-08  0.591E-05    0.25     261.1  T
     SCC iter.                  ...        0 min,  0.019 sec
     gradient                   ...        0 min,  0.034 sec
 * total energy  :   -83.6266255 Eh     change       -0.1116867E-03 Eh
   gradient norm :     0.0062956 Eh/α   predicted    -0.7466907E-04 ( -33.14%)
   displ. norm   :     0.2830183 α      lambda       -0.1682358E-03
   maximum displ.:     0.2275255 α      in ANC's #2, #6, #11, ...

........................................................................
.............................. CYCLE   18 ..............................
........................................................................
   1    -84.3642032 -0.843642E+02  0.831E-03    0.24       0.0  T
   2    -84.3642061 -0.285387E-05  0.336E-03    0.25       4.6  T
   3    -84.3642066 -0.533264E-06  0.165E-03    0.25       9.4  T
   4    -84.3642067 -0.546429E-07  0.823E-04    0.25      18.7  T
   5    -84.3642067 -0.102354E-07  0.297E-04    0.25      52.0  T
   6    -84.3642067 -0.260046E-08  0.799E-05    0.25     193.0  T
   7    -84.3642067 -0.171482E-09  0.198E-05    0.25     777.7  T
     SCC iter.                  ...        0 min,  0.038 sec
     gradient                   ...        0 min,  0.079 sec
 * total energy  :   -83.6267690 Eh     change       -0.1435000E-03 Eh
   gradient norm :     0.0057196 Eh/α   predicted    -0.9085872E-04 ( -36.68%)
   displ. norm   :     0.4387641 α      lambda       -0.2393938E-03
   maximum displ.:     0.3535896 α      in ANC's #2, #6, #9, ...

........................................................................
.............................. CYCLE   19 ..............................
........................................................................
   1    -84.3627670 -0.843628E+02  0.117E-02    0.25       0.0  T
   2    -84.3627720 -0.501107E-05  0.439E-03    0.25       3.5  T
   3    -84.3627724 -0.378464E-06  0.249E-03    0.25       6.2  T
   4    -84.3627724 -0.224506E-07  0.102E-03    0.25      15.2  T
   5    -84.3627725 -0.207447E-07  0.366E-04    0.25      42.2  T
   6    -84.3627725 -0.753440E-08  0.107E-04    0.25     144.4  T
   7    -84.3627725 -0.401513E-09  0.317E-05    0.25     487.0  T
     SCC iter.                  ...        0 min,  0.037 sec
     gradient                   ...        0 min,  0.058 sec
 * total energy  :   -83.6269678 Eh     change       -0.1987833E-03 Eh
   gradient norm :     0.0072007 Eh/α   predicted    -0.1427439E-03 ( -28.19%)
   displ. norm   :     0.4469163 α      lambda       -0.2393756E-03
   maximum displ.:     0.3639741 α      in ANC's #2, #6, #9, ...

........................................................................
.............................. CYCLE   20 ..............................
........................................................................
   1    -84.3620464 -0.843620E+02  0.104E-02    0.25       0.0  T
   2    -84.3620499 -0.346461E-05  0.408E-03    0.25       3.8  T
   3    -84.3620501 -0.190584E-06  0.232E-03    0.25       6.7  T
   4    -84.3620501 -0.142735E-07  0.991E-04    0.25      15.6  T
   5    -84.3620501 -0.256217E-07  0.268E-04    0.25      57.6  T
   6    -84.3620501 -0.433759E-08  0.875E-05    0.25     176.4  T
   7    -84.3620501 -0.243105E-09  0.239E-05    0.25     645.1  T
     SCC iter.                  ...        0 min,  0.038 sec
     gradient                   ...        0 min,  0.058 sec
 * total energy  :   -83.6271617 Eh     change       -0.1939353E-03 Eh
   gradient norm :     0.0088320 Eh/α   predicted    -0.1435951E-03 ( -25.96%)
   displ. norm   :     0.4590514 α      lambda       -0.2454562E-03
   maximum displ.:     0.3792303 α      in ANC's #2, #9, #6, ...
 * RMSD in coord.:     0.7148163 α      energy gain  -0.2716112E-01 Eh

generating ANC from model Hessian ...
Using Lindh-Hessian (1995)
 Shifting diagonal of input Hessian by   9.836354856713893E-003
 Lowest  eigenvalues of input Hessian
    0.000000    0.000000    0.000000    0.000000    0.000000    0.000000
    0.010000    0.010175    0.010618    0.011454    0.011564    0.012110
    0.012917    0.013566    0.013831    0.015882    0.016247    0.016604
 Highest eigenvalues
    2.014370    2.018225    2.145270    2.167964    2.245588    2.386728
 

........................................................................
.............................. CYCLE   21 ..............................
........................................................................
   1    -84.3611902 -0.843612E+02  0.972E-03    0.26       0.0  T
   2    -84.3611931 -0.285888E-05  0.403E-03    0.25       3.8  T
   3    -84.3611933 -0.255688E-06  0.230E-03    0.26       6.7  T
   4    -84.3611934 -0.573751E-07  0.110E-03    0.25      14.0  T
   5    -84.3611934 -0.252049E-07  0.194E-04    0.25      79.6  T
   6    -84.3611934 -0.146926E-08  0.661E-05    0.25     233.6  T
     SCC iter.                  ...        0 min,  0.033 sec
     gradient                   ...        0 min,  0.058 sec
 * total energy  :   -83.6273767 Eh     change       -0.2149425E-03 Eh
   gradient norm :     0.0092345 Eh/α   predicted     0.0000000E+00 (-100.00%)
   displ. norm   :     0.0695214 α      lambda       -0.1500777E-03
   maximum displ.:     0.0519655 α      in ANC's #2, #4, #7, ...

........................................................................
.............................. CYCLE   22 ..............................
........................................................................
   1    -84.3634421 -0.843634E+02  0.778E-03    0.26       0.0  T
   2    -84.3634443 -0.217635E-05  0.355E-03    0.25       4.4  T
   3    -84.3634448 -0.535210E-06  0.155E-03    0.26      10.0  T
   4    -84.3634449 -0.199147E-07  0.618E-04    0.26      25.0  T
   5    -84.3634449 -0.466402E-08  0.245E-04    0.26      62.9  T
   6    -84.3634449 -0.167036E-08  0.500E-05    0.26     308.7  T
   7    -84.3634449 -0.904095E-10  0.136E-05    0.26    1134.2  T
     SCC iter.                  ...        0 min,  0.038 sec
     gradient                   ...        0 min,  0.054 sec
 * total energy  :   -83.6274959 Eh     change       -0.1192137E-03 Eh
   gradient norm :     0.0044142 Eh/α   predicted    -0.7540188E-04 ( -36.75%)
   displ. norm   :     0.1567050 α      lambda       -0.1833592E-03
   maximum displ.:     0.1188506 α      in ANC's #2, #4, #7, ...

........................................................................
.............................. CYCLE   23 ..............................
........................................................................
   1    -84.3652445 -0.843652E+02  0.112E-02    0.27       0.0  T
   2    -84.3652495 -0.502266E-05  0.496E-03    0.26       3.1  T
   3    -84.3652507 -0.116884E-05  0.174E-03    0.27       8.9  T
   4    -84.3652507 -0.275010E-07  0.738E-04    0.26      20.9  T
   5    -84.3652507 -0.416216E-08  0.280E-04    0.27      55.1  T
   6    -84.3652507 -0.143271E-08  0.581E-05    0.27     265.4  T
   7    -84.3652507 -0.999734E-10  0.182E-05    0.27     849.1  T
     SCC iter.                  ...        0 min,  0.026 sec
     gradient                   ...        0 min,  0.034 sec
 * total energy  :   -83.6276218 Eh     change       -0.1258925E-03 Eh
   gradient norm :     0.0034808 Eh/α   predicted    -0.9393178E-04 ( -25.39%)
   displ. norm   :     0.1380998 α      lambda       -0.8610659E-04
   maximum displ.:     0.1084124 α      in ANC's #2, #7, #4, ...

........................................................................
.............................. CYCLE   24 ..............................
........................................................................
   1    -84.3651123 -0.843651E+02  0.534E-03    0.27       0.0  T
   2    -84.3651136 -0.122576E-05  0.236E-03    0.27       6.5  T
   3    -84.3651138 -0.221671E-06  0.898E-04    0.27      17.2  T
   4    -84.3651138 -0.317424E-08  0.403E-04    0.27      38.3  T
   5    -84.3651138 -0.172979E-08  0.102E-04    0.27     151.6  T
   6    -84.3651138 -0.161521E-09  0.237E-05    0.27     650.5  T
     SCC iter.                  ...        0 min,  0.020 sec
     gradient                   ...        0 min,  0.035 sec
 * total energy  :   -83.6276926 Eh     change       -0.7083004E-04 Eh
   gradient norm :     0.0048188 Eh/α   predicted    -0.4387480E-04 ( -38.06%)
   displ. norm   :     0.1462585 α      lambda       -0.8714876E-04
   maximum displ.:     0.1125114 α      in ANC's #2, #4, #7, ...

........................................................................
.............................. CYCLE   25 ..............................
........................................................................
   1    -84.3642842 -0.843643E+02  0.396E-03    0.28       0.0  T
   2    -84.3642849 -0.685493E-06  0.194E-03    0.27       7.9  T
   3    -84.3642849 -0.610641E-07  0.998E-04    0.27      15.5  T
   4    -84.3642849  0.118945E-09  0.349E-04    0.27      44.2  T
   5    -84.3642849 -0.163611E-08  0.491E-05    0.27     314.1  T
   6    -84.3642849 -0.818119E-10  0.159E-05    0.27     969.2  T
     SCC iter.                  ...        0 min,  0.019 sec
     gradient                   ...        0 min,  0.044 sec
 * total energy  :   -83.6277699 Eh     change       -0.7723876E-04 Eh
   gradient norm :     0.0041105 Eh/α   predicted    -0.4450725E-04 ( -42.38%)
   displ. norm   :     0.1871420 α      lambda       -0.1092737E-03
   maximum displ.:     0.1412829 α      in ANC's #2, #4, #7, ...

........................................................................
.............................. CYCLE   26 ..............................
........................................................................
   1    -84.3632440 -0.843632E+02  0.511E-03    0.28       0.0  T
   2    -84.3632451 -0.111481E-05  0.229E-03    0.28       6.7  T
   3    -84.3632452 -0.738969E-07  0.123E-03    0.28      12.6  T
   4    -84.3632452 -0.250782E-08  0.443E-04    0.28      34.8  T
   5    -84.3632452 -0.131163E-08  0.889E-05    0.28     173.6  T
   6    -84.3632452 -0.185707E-09  0.211E-05    0.28     730.3  T
     SCC iter.                  ...        0 min,  0.025 sec
     gradient                   ...        0 min,  0.058 sec
 * total energy  :   -83.6278652 Eh     change       -0.9532038E-04 Eh
   gradient norm :     0.0030843 Eh/α   predicted    -0.5655333E-04 ( -40.67%)
   displ. norm   :     0.2250731 α      lambda       -0.1185899E-03
   maximum displ.:     0.1691695 α      in ANC's #2, #6, #4, ...

........................................................................
.............................. CYCLE   27 ..............................
........................................................................
   1    -84.3623599 -0.843624E+02  0.603E-03    0.28       0.0  T
   2    -84.3623614 -0.144175E-05  0.231E-03    0.28       6.7  T
   3    -84.3623614 -0.729943E-07  0.127E-03    0.28      12.2  T
   4    -84.3623614 -0.360374E-08  0.467E-04    0.28      33.0  T
   5    -84.3623614 -0.147706E-08  0.105E-04    0.28     146.3  T
   6    -84.3623614 -0.262006E-09  0.274E-05    0.28     562.3  T
     SCC iter.                  ...        0 min,  0.031 sec
     gradient                   ...        0 min,  0.046 sec
 * total energy  :   -83.6279692 Eh     change       -0.1040527E-03 Eh
   gradient norm :     0.0038313 Eh/α   predicted    -0.6230114E-04 ( -40.13%)
   displ. norm   :     0.2505893 α      lambda       -0.1283778E-03
   maximum displ.:     0.1887591 α      in ANC's #2, #6, #4, ...

........................................................................
.............................. CYCLE   28 ..............................
........................................................................
   1    -84.3618110 -0.843618E+02  0.676E-03    0.29       0.0  T
   2    -84.3618127 -0.172047E-05  0.225E-03    0.29       6.8  T
   3    -84.3618128 -0.771118E-07  0.127E-03    0.29      12.1  T
   4    -84.3618128 -0.426732E-08  0.484E-04    0.29      31.9  T
   5    -84.3618128 -0.138255E-08  0.111E-04    0.29     138.9  T
   6    -84.3618128 -0.273971E-09  0.308E-05    0.29     500.7  T
     SCC iter.                  ...        0 min,  0.031 sec
     gradient                   ...        0 min,  0.058 sec
 * total energy  :   -83.6280875 Eh     change       -0.1183151E-03 Eh
   gradient norm :     0.0052349 Eh/α   predicted    -0.6822077E-04 ( -42.34%)
   displ. norm   :     0.3146517 α      lambda       -0.1754784E-03
   maximum displ.:     0.2383468 α      in ANC's #2, #6, #9, ...

........................................................................
.............................. CYCLE   29 ..............................
........................................................................
   1    -84.3614178 -0.843614E+02  0.892E-03    0.30       0.0  T
   2    -84.3614208 -0.293346E-05  0.272E-03    0.30       5.7  T
   3    -84.3614209 -0.119480E-06  0.156E-03    0.30       9.9  T
   4    -84.3614209 -0.673421E-08  0.601E-04    0.30      25.7  T
   5    -84.3614209 -0.180547E-08  0.128E-04    0.30     120.1  T
   6    -84.3614209 -0.368260E-09  0.366E-05    0.30     421.5  T
     SCC iter.                  ...        0 min,  0.030 sec
     gradient                   ...        0 min,  0.037 sec
 * total energy  :   -83.6282497 Eh     change       -0.1621293E-03 Eh
   gradient norm :     0.0065796 Eh/α   predicted    -0.9643011E-04 ( -40.52%)
   displ. norm   :     0.4095066 α      lambda       -0.2492621E-03
   maximum displ.:     0.3155273 α      in ANC's #2, #6, #9, ...

........................................................................
.............................. CYCLE   30 ..............................
........................................................................
   1    -84.3610199 -0.843610E+02  0.122E-02    0.32       0.0  T
   2    -84.3610253 -0.537104E-05  0.361E-03    0.32       4.3  T
   3    -84.3610255 -0.223445E-06  0.209E-03    0.32       7.4  T
   4    -84.3610255 -0.120506E-07  0.822E-04    0.32      18.8  T
   5    -84.3610255 -0.306086E-08  0.156E-04    0.32      99.2  T
   6    -84.3610255 -0.519506E-09  0.441E-05    0.32     349.6  T
     SCC iter.                  ...        0 min,  0.019 sec
     gradient                   ...        0 min,  0.053 sec
 * total energy  :   -83.6284697 Eh     change       -0.2200508E-03 Eh
   gradient norm :     0.0076655 Eh/α   predicted    -0.1455354E-03 ( -33.86%)
   displ. norm   :     0.4320237 α      lambda       -0.2739298E-03
   maximum displ.:     0.3452974 α      in ANC's #2, #6, #9, ...

........................................................................
.............................. CYCLE   31 ..............................
........................................................................
   1    -84.3613025 -0.843613E+02  0.131E-02    0.34       0.0  T
   2    -84.3613088 -0.625205E-05  0.378E-03    0.34       4.1  T
   3    -84.3613091 -0.292178E-06  0.218E-03    0.34       7.1  T
   4    -84.3613091 -0.152192E-07  0.913E-04    0.34      16.9  T
   5    -84.3613091 -0.259692E-08  0.149E-04    0.34     103.7  T
   6    -84.3613091 -0.457746E-09  0.402E-05    0.34     383.9  T
     SCC iter.                  ...        0 min,  0.033 sec
     gradient                   ...        0 min,  0.058 sec
 * total energy  :   -83.6287055 Eh     change       -0.2357629E-03 Eh
   gradient norm :     0.0074141 Eh/α   predicted    -0.1625302E-03 ( -31.06%)
   displ. norm   :     0.4126472 α      lambda       -0.2703320E-03
   maximum displ.:     0.3446014 α      in ANC's #2, #6, #9, ...

........................................................................
.............................. CYCLE   32 ..............................
........................................................................
   1    -84.3627536 -0.843628E+02  0.125E-02    0.36       0.0  T
   2    -84.3627592 -0.555755E-05  0.383E-03    0.37       4.0  T
   3    -84.3627595 -0.326408E-06  0.214E-03    0.37       7.2  T
   4    -84.3627595 -0.158473E-07  0.892E-04    0.37      17.3  T
   5    -84.3627595 -0.218877E-08  0.140E-04    0.37     110.6  T
   6    -84.3627595 -0.352415E-09  0.398E-05    0.37     387.8  T
     SCC iter.                  ...        0 min,  0.032 sec
     gradient                   ...        0 min,  0.058 sec
 * total energy  :   -83.6289416 Eh     change       -0.2361163E-03 Eh
   gradient norm :     0.0052740 Eh/α   predicted    -0.1581821E-03 ( -33.01%)
   displ. norm   :     0.4821811 α      lambda       -0.2857379E-03
   maximum displ.:     0.4087056 α      in ANC's #2, #6, #9, ...

........................................................................
.............................. CYCLE   33 ..............................
........................................................................
   1    -84.3622730 -0.843623E+02  0.133E-02    0.40       0.0  T
   2    -84.3622795 -0.654375E-05  0.440E-03    0.41       3.5  T
   3    -84.3622800 -0.473674E-06  0.217E-03    0.41       7.1  T
   4    -84.3622800 -0.221368E-07  0.853E-04    0.41      18.1  T
   5    -84.3622800 -0.252047E-08  0.207E-04    0.41      74.4  T
   6    -84.3622800 -0.396582E-09  0.559E-05    0.41     276.0  T
   7    -84.3622800 -0.637357E-10  0.191E-05    0.41     806.3  T
     SCC iter.                  ...        0 min,  0.038 sec
     gradient                   ...        0 min,  0.058 sec
 * total energy  :   -83.6291933 Eh     change       -0.2517205E-03 Eh
   gradient norm :     0.0039431 Eh/α   predicted    -0.1760860E-03 ( -30.05%)
   displ. norm   :     0.4117205 α      lambda       -0.2720147E-03
   maximum displ.:     0.3611057 α      in ANC's #2, #6, #9, ...

........................................................................
.............................. CYCLE   34 ..............................
........................................................................
   1    -84.3651247 -0.843651E+02  0.118E-02    0.42       0.0  T
   2    -84.3651291 -0.443171E-05  0.510E-03    0.43       3.0  T
   3    -84.3651295 -0.414047E-06  0.274E-03    0.43       5.6  T
   4    -84.3651295 -0.234065E-07  0.825E-04    0.44      18.7  T
   5    -84.3651296 -0.393405E-08  0.198E-04    0.44      78.1  T
   6    -84.3651296 -0.492861E-09  0.653E-05    0.44     236.4  T
     SCC iter.                  ...        0 min,  0.032 sec
     gradient                   ...        0 min,  0.058 sec
 * total energy  :   -83.6294021 Eh     change       -0.2088127E-03 Eh
   gradient norm :     0.0044878 Eh/α   predicted    -0.1590663E-03 ( -23.82%)
   displ. norm   :     0.5063363 α      lambda       -0.2682747E-03
   maximum displ.:     0.4382301 α      in ANC's #2, #6, #9, ...

........................................................................
.............................. CYCLE   35 ..............................
........................................................................
   1    -84.3615911 -0.843616E+02  0.138E-02    0.47       0.0  T
   2    -84.3615972 -0.611132E-05  0.597E-03    0.47       2.6  T
   3    -84.3615978 -0.552754E-06  0.302E-03    0.48       5.1  T
   4    -84.3615978 -0.432741E-07  0.900E-04    0.48      17.1  T
   5    -84.3615978 -0.438025E-08  0.302E-04    0.48      51.2  T
   6    -84.3615978 -0.687848E-09  0.805E-05    0.48     191.6  T
   7    -84.3615978 -0.128765E-09  0.259E-05    0.48     596.5  T
     SCC iter.                  ...        0 min,  0.037 sec
     gradient                   ...        0 min,  0.058 sec
 * total energy  :   -83.6296005 Eh     change       -0.1983735E-03 Eh
   gradient norm :     0.0050729 Eh/α   predicted    -0.1685270E-03 ( -15.05%)
   displ. norm   :     0.2389101 α      lambda       -0.1326259E-03
   maximum displ.:     0.2108777 α      in ANC's #2, #6, #5, ...

........................................................................
.............................. CYCLE   36 ..............................
........................................................................
   1    -84.3619198 -0.843619E+02  0.584E-03    0.49       0.0  T
   2    -84.3619209 -0.117058E-05  0.258E-03    0.50       6.0  T
   3    -84.3619211 -0.124399E-06  0.124E-03    0.50      12.4  T
   4    -84.3619211 -0.658687E-08  0.351E-04    0.50      44.0  T
   5    -84.3619211 -0.411220E-09  0.118E-04    0.50     130.5  T
   6    -84.3619211 -0.709122E-10  0.296E-05    0.50     520.5  T
     SCC iter.                  ...        0 min,  0.032 sec
     gradient                   ...        0 min,  0.057 sec
 * total energy  :   -83.6297157 Eh     change       -0.1151783E-03 Eh
   gradient norm :     0.0046079 Eh/α   predicted    -0.7009822E-04 ( -39.14%)
   displ. norm   :     0.3184590 α      lambda       -0.1936580E-03
   maximum displ.:     0.2746839 α      in ANC's #2, #5, #1, ...

........................................................................
.............................. CYCLE   37 ..............................
........................................................................
   1    -84.3638380 -0.843638E+02  0.940E-03    0.50       0.0  T
   2    -84.3638425 -0.449724E-05  0.416E-03    0.50       3.7  T
   3    -84.3638429 -0.357421E-06  0.208E-03    0.50       7.4  T
   4    -84.3638429 -0.861850E-08  0.770E-04    0.50      20.0  T
   5    -84.3638429 -0.327208E-08  0.172E-04    0.51      89.5  T
   6    -84.3638429 -0.390898E-09  0.504E-05    0.51     305.9  T
     SCC iter.                  ...        0 min,  0.033 sec
     gradient                   ...        0 min,  0.038 sec
 * total energy  :   -83.6298607 Eh     change       -0.1449748E-03 Eh
   gradient norm :     0.0049817 Eh/α   predicted    -0.1066519E-03 ( -26.43%)
   displ. norm   :     0.4917963 α      lambda       -0.2258979E-03
   maximum displ.:     0.4283147 α      in ANC's #2, #1, #5, ...

........................................................................
.............................. CYCLE   38 ..............................
........................................................................
   1    -84.3612492 -0.843612E+02  0.120E-02    0.53       0.0  T
   2    -84.3612549 -0.567854E-05  0.458E-03    0.53       3.4  T
   3    -84.3612552 -0.350052E-06  0.212E-03    0.54       7.3  T
   4    -84.3612553 -0.301859E-07  0.828E-04    0.54      18.6  T
   5    -84.3612553 -0.263871E-08  0.299E-04    0.54      51.6  T
   6    -84.3612553 -0.619011E-09  0.716E-05    0.54     215.4  T
   7    -84.3612553 -0.790976E-10  0.265E-05    0.54     582.1  T
     SCC iter.                  ...        0 min,  0.022 sec
     gradient                   ...        0 min,  0.034 sec
 * total energy  :   -83.6300409 Eh     change       -0.1802622E-03 Eh
   gradient norm :     0.0038590 Eh/α   predicted    -0.1402697E-03 ( -22.19%)
   displ. norm   :     0.2999963 α      lambda       -0.1141533E-03
   maximum displ.:     0.2638415 α      in ANC's #2, #1, #5, ...

........................................................................
.............................. CYCLE   39 ..............................
........................................................................
   1    -84.3605054 -0.843605E+02  0.715E-03    0.55       0.0  T
   2    -84.3605077 -0.225417E-05  0.285E-03    0.56       5.4  T
   3    -84.3605079 -0.173781E-06  0.132E-03    0.56      11.7  T
   4    -84.3605079 -0.151201E-07  0.525E-04    0.56      29.4  T
   5    -84.3605079 -0.891930E-09  0.193E-04    0.56      79.8  T
   6    -84.3605079 -0.183576E-09  0.497E-05    0.56     310.5  T
     SCC iter.                  ...        0 min,  0.031 sec
     gradient                   ...        0 min,  0.059 sec
 * total energy  :   -83.6301383 Eh     change       -0.9737895E-04 Eh
   gradient norm :     0.0035360 Eh/α   predicted    -0.6221406E-04 ( -36.11%)
   displ. norm   :     0.2907409 α      lambda       -0.1095804E-03
   maximum displ.:     0.2569458 α      in ANC's #2, #1, #5, ...

........................................................................
.............................. CYCLE   40 ..............................
........................................................................
   1    -84.3601451 -0.843601E+02  0.722E-03    0.57       0.0  T
   2    -84.3601479 -0.279699E-05  0.285E-03    0.57       5.4  T
   3    -84.3601481 -0.176068E-06  0.122E-03    0.58      12.6  T
   4    -84.3601481 -0.140271E-07  0.574E-04    0.58      26.9  T
   5    -84.3601481 -0.280110E-08  0.217E-04    0.58      71.1  T
   6    -84.3601481 -0.181217E-09  0.548E-05    0.58     281.7  T
   7    -84.3601481 -0.366640E-10  0.204E-05    0.58     757.4  T
     SCC iter.                  ...        0 min,  0.038 sec
     gradient                   ...        0 min,  0.060 sec
 * total energy  :   -83.6302340 Eh     change       -0.9565854E-04 Eh
   gradient norm :     0.0035026 Eh/α   predicted    -0.5942288E-04 ( -37.88%)
   displ. norm   :     0.4024336 α      lambda       -0.1425319E-03
   maximum displ.:     0.3572821 α      in ANC's #2, #1, #16, ...

........................................................................
.............................. CYCLE   41 ..............................
........................................................................
   1    -84.3605441 -0.843605E+02  0.100E-02    0.60       0.0  T
   2    -84.3605489 -0.488375E-05  0.372E-03    0.61       4.1  T
   3    -84.3605493 -0.346324E-06  0.177E-03    0.61       8.7  T
   4    -84.3605493 -0.352451E-07  0.769E-04    0.61      20.1  T
   5    -84.3605493 -0.193792E-08  0.259E-04    0.61      59.5  T
   6    -84.3605493 -0.211188E-09  0.694E-05    0.61     222.4  T
   7    -84.3605493 -0.660236E-10  0.268E-05    0.61     575.7  T
     SCC iter.                  ...        0 min,  0.038 sec
     gradient                   ...        0 min,  0.060 sec
 * total energy  :   -83.6303567 Eh     change       -0.1227249E-03 Eh
   gradient norm :     0.0037321 Eh/α   predicted    -0.8281096E-04 ( -32.52%)
   displ. norm   :     0.6019743 α      lambda       -0.1946581E-03
   maximum displ.:     0.5354050 α      in ANC's #2, #1, #16, ...

........................................................................
.............................. CYCLE   42 ..............................
........................................................................
   1    -84.3586436 -0.843586E+02  0.170E-02    0.64       0.0  T
   2    -84.3586568 -0.131966E-04  0.633E-03    0.66       2.4  T
   3    -84.3586577 -0.874101E-06  0.288E-03    0.67       5.4  T
   4    -84.3586578 -0.111398E-06  0.125E-03    0.67      12.3  T
   5    -84.3586578 -0.101501E-07  0.497E-04    0.67      31.1  T
   6    -84.3586578 -0.875943E-09  0.133E-04    0.67     115.7  T
   7    -84.3586578 -0.267534E-09  0.508E-05    0.67     303.9  T
     SCC iter.                  ...        0 min,  0.038 sec
     gradient                   ...        0 min,  0.060 sec
 * total energy  :   -83.6305358 Eh     change       -0.1791610E-03 Eh
   gradient norm :     0.0065254 Eh/α   predicted    -0.1325998E-03 ( -25.99%)
   displ. norm   :     0.8737089 α      lambda       -0.3018204E-03
   maximum displ.:     0.7791054 α      in ANC's #2, #1, #16, ...
 * RMSD in coord.:     1.1039978 α      energy gain  -0.3374111E-02 Eh

generating ANC from model Hessian ...
Using Lindh-Hessian (1995)
 Shifting diagonal of input Hessian by   9.830301623152252E-003
 Lowest  eigenvalues of input Hessian
    0.000000    0.000000    0.000000    0.000000    0.000000    0.000000
    0.010000    0.010414    0.010524    0.011463    0.011824    0.012419
    0.013028    0.013737    0.015474    0.016237    0.016485    0.016899
 Highest eigenvalues
    2.016756    2.018808    2.123996    2.154457    2.248280    2.382370
 

........................................................................
.............................. CYCLE   43 ..............................
........................................................................
   1    -84.3537158 -0.843537E+02  0.299E-02    0.73       0.0  T
   2    -84.3537514 -0.356541E-04  0.102E-02    0.78       1.5  T
   3    -84.3537535 -0.208903E-05  0.487E-03    0.79       3.2  T
   4    -84.3537539 -0.336242E-06  0.214E-03    0.80       7.2  T
   5    -84.3537539 -0.237517E-07  0.799E-04    0.80      19.3  T
   6    -84.3537539 -0.201314E-08  0.206E-04    0.80      74.9  T
   7    -84.3537539 -0.748443E-09  0.860E-05    0.80     179.4  T
   8    -84.3537539 -0.901537E-10  0.190E-05    0.80     811.9  T
     SCC iter.                  ...        0 min,  0.045 sec
     gradient                   ...        0 min,  0.059 sec
 * total energy  :   -83.6308257 Eh     change       -0.2898999E-03 Eh
   gradient norm :     0.0127697 Eh/α   predicted     0.0000000E+00 (-100.00%)
   displ. norm   :     0.0590089 α      lambda       -0.2739280E-03
   maximum displ.:     0.0213748 α      in ANC's #12, #18, #11, ...

........................................................................
.............................. CYCLE   44 ..............................
........................................................................
   1    -84.3581378 -0.843581E+02  0.104E-02    0.80       0.0  T
   2    -84.3581420 -0.420343E-05  0.503E-03    0.81       3.1  T
   3    -84.3581423 -0.304691E-06  0.278E-03    0.81       5.5  T
   4    -84.3581423 -0.141766E-07  0.755E-04    0.82      20.4  T
   5    -84.3581423 -0.541706E-08  0.200E-04    0.82      77.3  T
   6    -84.3581423 -0.704773E-09  0.516E-05    0.82     299.0  T
     SCC iter.                  ...        0 min,  0.033 sec
     gradient                   ...        0 min,  0.059 sec
 * total energy  :   -83.6310396 Eh     change       -0.2138694E-03 Eh
   gradient norm :     0.0071960 Eh/α   predicted    -0.1419677E-03 ( -33.62%)
   displ. norm   :     0.1442150 α      lambda       -0.3413881E-03
   maximum displ.:     0.0568147 α      in ANC's #18, #12, #4, ...

........................................................................
.............................. CYCLE   45 ..............................
........................................................................
   1    -84.3620968 -0.843621E+02  0.170E-02    0.84       0.0  T
   2    -84.3621105 -0.137364E-04  0.754E-03    0.86       2.0  T
   3    -84.3621115 -0.997194E-06  0.383E-03    0.87       4.0  T
   4    -84.3621116 -0.113944E-06  0.163E-03    0.88       9.5  T
   5    -84.3621117 -0.892628E-08  0.474E-04    0.88      32.6  T
   6    -84.3621117 -0.166906E-08  0.136E-04    0.88     113.4  T
   7    -84.3621117 -0.308873E-09  0.373E-05    0.88     414.2  T
     SCC iter.                  ...        0 min,  0.038 sec
     gradient                   ...        0 min,  0.060 sec
 * total energy  :   -83.6313069 Eh     change       -0.2672411E-03 Eh
   gradient norm :     0.0086297 Eh/α   predicted    -0.1742482E-03 ( -34.80%)
   displ. norm   :     0.3819387 α      lambda       -0.6914722E-03
   maximum displ.:     0.1541921 α      in ANC's #18, #12, #9, ...

........................................................................
.............................. CYCLE   46 ..............................
........................................................................
   1    -84.3656019 -0.843656E+02  0.501E-02    0.95       0.0  T
   2    -84.3657217 -0.119787E-03  0.174E-02    1.04       1.0  T
   3    -84.3657295 -0.781655E-05  0.777E-03    1.07       2.0  T
   4    -84.3657305 -0.964447E-06  0.399E-03    1.08       3.9  T
   5    -84.3657306 -0.828888E-07  0.121E-03    1.09      12.7  T
   6    -84.3657306 -0.795038E-08  0.458E-04    1.09      33.7  T
   7    -84.3657306 -0.287669E-08  0.114E-04    1.09     135.6  T
   8    -84.3657306 -0.244725E-09  0.401E-05    1.09     384.6  T
     SCC iter.                  ...        0 min,  0.043 sec
     gradient                   ...        0 min,  0.058 sec
 * total energy  :   -83.6320196 Eh     change       -0.7127698E-03 Eh
   gradient norm :     0.0218205 Eh/α   predicted    -0.3961745E-03 ( -44.42%)
   displ. norm   :     0.3432987 α      lambda       -0.9318381E-03
   maximum displ.:     0.1366528 α      in ANC's #18, #12, #9, ...

........................................................................
.............................. CYCLE   47 ..............................
........................................................................
   1    -84.3664586 -0.843665E+02  0.657E-02    1.15       0.0  T
   2    -84.3666541 -0.195549E-03  0.200E-02    1.22       1.0  T
   3    -84.3666664 -0.122791E-04  0.809E-03    1.25       1.9  T
   4    -84.3666677 -0.128854E-05  0.439E-03    1.26       3.5  T
   5    -84.3666679 -0.145585E-06  0.145E-03    1.27      10.7  T
   6    -84.3666679 -0.125807E-07  0.554E-04    1.27      27.9  T
   7    -84.3666679 -0.352888E-08  0.125E-04    1.27     123.3  T
   8    -84.3666679 -0.137206E-09  0.412E-05    1.27     374.1  T
     SCC iter.                  ...        0 min,  0.043 sec
     gradient                   ...        0 min,  0.060 sec
 * total energy  :   -83.6330365 Eh     change       -0.1016904E-02 Eh
   gradient norm :     0.0315565 Eh/α   predicted    -0.5208311E-03 ( -48.78%)
   displ. norm   :     0.2591353 α      lambda       -0.1232456E-02
   maximum displ.:     0.1019158 α      in ANC's #9, #18, #12, ...

........................................................................
.............................. CYCLE   48 ..............................
........................................................................
   1    -84.3656120 -0.843656E+02  0.648E-02    1.30       0.0  T
   2    -84.3657967 -0.184725E-03  0.198E-02    1.36       1.0  T
   3    -84.3658086 -0.119286E-04  0.809E-03    1.38       1.9  T
   4    -84.3658102 -0.153561E-05  0.437E-03    1.40       3.5  T
   5    -84.3658103 -0.157769E-06  0.145E-03    1.40      10.7  T
   6    -84.3658103 -0.114807E-07  0.494E-04    1.40      31.3  T
   7    -84.3658103 -0.283771E-08  0.114E-04    1.40     135.3  T
   8    -84.3658103 -0.118419E-09  0.383E-05    1.40     403.4  T
     SCC iter.                  ...        0 min,  0.026 sec
     gradient                   ...        0 min,  0.060 sec
 * total energy  :   -83.6342511 Eh     change       -0.1214621E-02 Eh
   gradient norm :     0.0353001 Eh/α   predicted    -0.6577272E-03 ( -45.85%)
   displ. norm   :     0.7283700 α      lambda       -0.7030524E-02
   maximum displ.:     0.2900715 α      in ANC's #9, #2, #18, ...

........................................................................
.............................. CYCLE   49 ..............................
........................................................................
   1    -84.3467141 -0.843467E+02  0.254E-01    1.50       0.0  T
   2    -84.3493691 -0.265497E-02  0.845E-02    1.68       1.0  T
   3    -84.3495661 -0.197076E-03  0.387E-02    1.78       1.0  T
   4    -84.3495989 -0.327830E-04  0.190E-02    1.82       1.0  T
   5    -84.3496019 -0.299105E-05  0.566E-03    1.85       2.7  T
   6    -84.3496022 -0.236758E-06  0.197E-03    1.85       7.8  T
   7    -84.3496022 -0.404734E-07  0.523E-04    1.85      29.5  T
   8    -84.3496022 -0.392205E-08  0.173E-04    1.85      89.1  T
   9    -84.3496022 -0.345324E-09  0.599E-05    1.85     257.7  T
     SCC iter.                  ...        0 min,  0.048 sec
     gradient                   ...        0 min,  0.061 sec
 * total energy  :   -83.6357674 Eh     change       -0.1516201E-02 Eh
   gradient norm :     0.0400363 Eh/α   predicted    -0.5380192E-02 ( 254.85%)
   displ. norm   :     0.4945598 α      lambda       -0.8336782E-02
   maximum displ.:     0.1950678 α      in ANC's #18, #12, #9, ...

........................................................................
.............................. CYCLE   50 ..............................
........................................................................
   1    -84.3311432 -0.843311E+02  0.124E-01    1.77       0.0  T
   2    -84.3319062 -0.763025E-03  0.481E-02    1.70       1.0  T
   3    -84.3319502 -0.439690E-04  0.235E-02    1.67       1.0  T
   4    -84.3319551 -0.490153E-05  0.104E-02    1.65       1.5  T
   5    -84.3319556 -0.540242E-06  0.261E-03    1.64       5.9  T
   6    -84.3319557 -0.943213E-07  0.111E-03    1.64      13.9  T
   7    -84.3319557 -0.123027E-07  0.261E-04    1.64      59.1  T
   8    -84.3319557 -0.113978E-08  0.823E-05    1.64     187.6  T
   9    -84.3319557 -0.845972E-10  0.282E-05    1.64     546.6  T
     SCC iter.                  ...        0 min,  0.047 sec
     gradient                   ...        0 min,  0.060 sec
 * total energy  :   -83.6351375 Eh     change        0.6298951E-03 Eh
   gradient norm :     0.0468708 Eh/α   predicted    -0.5188496E-02 (-923.71%)
   displ. norm   :     0.3748395 α      lambda       -0.8909151E-02
   maximum displ.:     0.1452189 α      in ANC's #43, #19, #27, ...

........................................................................
.............................. CYCLE   51 ..............................
........................................................................
   1    -84.3519100 -0.843519E+02  0.674E-02    1.67       0.0  T
   2    -84.3520472 -0.137221E-03  0.327E-02    1.67       1.0  T
   3    -84.3520595 -0.122742E-04  0.176E-02    1.67       1.0  T
   4    -84.3520598 -0.300665E-06  0.419E-03    1.67       3.7  T
   5    -84.3520601 -0.285755E-06  0.763E-04    1.67      20.2  T
   6    -84.3520601 -0.113312E-07  0.196E-04    1.67      78.7  T
   7    -84.3520601 -0.120150E-08  0.756E-05    1.67     204.2  T
     SCC iter.                  ...        0 min,  0.036 sec
     gradient                   ...        0 min,  0.060 sec
 * total energy  :   -83.6378021 Eh     change       -0.2664642E-02 Eh
   gradient norm :     0.0211509 Eh/α   predicted    -0.5080461E-02 (  90.66%)
   displ. norm   :     0.2296700 α      lambda       -0.3393283E-02
   maximum displ.:     0.0790959 α      in ANC's #27, #76, #19, ...

........................................................................
.............................. CYCLE   52 ..............................
........................................................................
   1    -84.3540980 -0.843541E+02  0.104E-01    1.70       0.0  T
   2    -84.3545628 -0.464806E-03  0.337E-02    1.77       1.0  T
   3    -84.3545950 -0.321136E-04  0.153E-02    1.80       1.0  T
   4    -84.3545998 -0.481424E-05  0.742E-03    1.82       2.1  T
   5    -84.3546002 -0.435727E-06  0.233E-03    1.83       6.6  T
   6    -84.3546003 -0.464405E-07  0.821E-04    1.83      18.8  T
   7    -84.3546003 -0.665781E-08  0.207E-04    1.83      74.6  T
   8    -84.3546003 -0.611649E-09  0.672E-05    1.83     229.7  T
   9    -84.3546003 -0.500791E-10  0.231E-05    1.83     668.0  T
     SCC iter.                  ...        0 min,  0.047 sec
     gradient                   ...        0 min,  0.060 sec
 * total energy  :   -83.6399792 Eh     change       -0.2177148E-02 Eh
   gradient norm :     0.0183059 Eh/α   predicted    -0.1786156E-02 ( -17.96%)
   displ. norm   :     0.1548170 α      lambda       -0.1243408E-02
   maximum displ.:     0.0561413 α      in ANC's #7, #76, #11, ...

........................................................................
.............................. CYCLE   53 ..............................
........................................................................
   1    -84.3526985 -0.843527E+02  0.622E-02    1.84       0.0  T
   2    -84.3528662 -0.167634E-03  0.219E-02    1.89       1.0  T
   3    -84.3528798 -0.136239E-04  0.966E-03    1.91       1.6  T
   4    -84.3528819 -0.213745E-05  0.494E-03    1.92       3.1  T
   5    -84.3528821 -0.192529E-06  0.164E-03    1.93       9.4  T
   6    -84.3528821 -0.196197E-07  0.500E-04    1.93      30.8  T
   7    -84.3528821 -0.278801E-08  0.138E-04    1.93     111.8  T
   8    -84.3528821 -0.349246E-09  0.445E-05    1.93     346.5  T
     SCC iter.                  ...        0 min,  0.041 sec
     gradient                   ...        0 min,  0.058 sec
 * total energy  :   -83.6408588 Eh     change       -0.8795406E-03 Eh
   gradient norm :     0.0197288 Eh/α   predicted    -0.6366190E-03 ( -27.62%)
   displ. norm   :     0.2505477 α      lambda       -0.1691077E-02
   maximum displ.:     0.0843412 α      in ANC's #18, #7, #11, ...

........................................................................
.............................. CYCLE   54 ..............................
........................................................................
   1    -84.3537602 -0.843538E+02  0.544E-02    1.93       0.0  T
   2    -84.3538802 -0.119968E-03  0.218E-02    1.98       1.0  T
   3    -84.3538916 -0.113941E-04  0.917E-03    1.99       1.7  T
   4    -84.3538932 -0.167468E-05  0.470E-03    2.01       3.3  T
   5    -84.3538934 -0.166950E-06  0.164E-03    2.01       9.4  T
   6    -84.3538934 -0.173167E-07  0.396E-04    2.01      39.0  T
   7    -84.3538934 -0.262220E-08  0.118E-04    2.01     130.5  T
   8    -84.3538934 -0.301938E-09  0.365E-05    2.01     422.3  T
     SCC iter.                  ...        0 min,  0.040 sec
     gradient                   ...        0 min,  0.058 sec
 * total energy  :   -83.6421033 Eh     change       -0.1244516E-02 Eh
   gradient norm :     0.0193235 Eh/α   predicted    -0.8986214E-03 ( -27.79%)
   displ. norm   :     0.3799782 α      lambda       -0.1998825E-02
   maximum displ.:     0.1186921 α      in ANC's #11, #5, #18, ...

........................................................................
.............................. CYCLE   55 ..............................
........................................................................
   1    -84.3607244 -0.843607E+02  0.757E-02    2.04       0.0  T
   2    -84.3610165 -0.292106E-03  0.302E-02    2.11       1.0  T
   3    -84.3610424 -0.259241E-04  0.142E-02    2.13       1.1  T
   4    -84.3610462 -0.377096E-05  0.806E-03    2.16       1.9  T
   5    -84.3610467 -0.478359E-06  0.243E-03    2.16       6.3  T
   6    -84.3610467 -0.524958E-07  0.753E-04    2.17      20.5  T
   7    -84.3610467 -0.562653E-08  0.202E-04    2.17      76.3  T
   8    -84.3610467 -0.608424E-09  0.631E-05    2.17     244.4  T
   9    -84.3610467 -0.379856E-10  0.227E-05    2.17     678.4  T
     SCC iter.                  ...        0 min,  0.045 sec
     gradient                   ...        0 min,  0.058 sec
 * total energy  :   -83.6431683 Eh     change       -0.1065006E-02 Eh
   gradient norm :     0.0256926 Eh/α   predicted    -0.1143726E-02 (   7.39%)
   displ. norm   :     0.2615831 α      lambda       -0.1627087E-02
   maximum displ.:     0.1121413 α      in ANC's #9, #18, #12, ...

........................................................................
.............................. CYCLE   56 ..............................
........................................................................
   1    -84.3635266 -0.843635E+02  0.268E-02    2.17       0.0  T
   2    -84.3635453 -0.186289E-04  0.125E-02    2.18       1.2  T
   3    -84.3635474 -0.218054E-05  0.537E-03    2.18       2.9  T
   4    -84.3635477 -0.228817E-06  0.176E-03    2.18       8.7  T
   5    -84.3635477 -0.327855E-07  0.649E-04    2.18      23.8  T
   6    -84.3635477 -0.313618E-08  0.179E-04    2.18      86.4  T
   7    -84.3635477 -0.282583E-09  0.550E-05    2.18     280.3  T
     SCC iter.                  ...        0 min,  0.035 sec
     gradient                   ...        0 min,  0.058 sec
 * total energy  :   -83.6439484 Eh     change       -0.7801125E-03 Eh
   gradient norm :     0.0183898 Eh/α   predicted    -0.8692200E-03 (  11.42%)
   displ. norm   :     0.1824319 α      lambda       -0.6252460E-03
   maximum displ.:     0.0703031 α      in ANC's #12, #19, #9, ...

........................................................................
.............................. CYCLE   57 ..............................
........................................................................
   1    -84.3669028 -0.843669E+02  0.261E-02    2.20       0.0  T
   2    -84.3669370 -0.341911E-04  0.914E-03    2.22       1.7  T
   3    -84.3669395 -0.248997E-05  0.468E-03    2.23       3.3  T
   4    -84.3669398 -0.326591E-06  0.244E-03    2.23       6.3  T
   5    -84.3669399 -0.350172E-07  0.661E-04    2.23      23.3  T
   6    -84.3669399 -0.664339E-08  0.235E-04    2.23      65.6  T
   7    -84.3669399 -0.556838E-09  0.624E-05    2.23     247.1  T
   8    -84.3669399 -0.508180E-10  0.170E-05    2.23     906.8  T
     SCC iter.                  ...        0 min,  0.041 sec
     gradient                   ...        0 min,  0.058 sec
 * total energy  :   -83.6444500 Eh     change       -0.5015776E-03 Eh
   gradient norm :     0.0141039 Eh/α   predicted    -0.3230392E-03 ( -35.60%)
   displ. norm   :     0.3338733 α      lambda       -0.8856106E-03
   maximum displ.:     0.1438249 α      in ANC's #12, #9, #19, ...

........................................................................
.............................. CYCLE   58 ..............................
........................................................................
   1    -84.3686904 -0.843687E+02  0.349E-02    2.25       0.0  T
   2    -84.3687564 -0.659490E-04  0.132E-02    2.27       1.2  T
   3    -84.3687609 -0.453716E-05  0.727E-03    2.28       2.1  T
   4    -84.3687613 -0.441916E-06  0.358E-03    2.29       4.3  T
   5    -84.3687614 -0.462520E-07  0.636E-04    2.29      24.2  T
   6    -84.3687614 -0.419159E-08  0.246E-04    2.29      62.7  T
   7    -84.3687614 -0.511832E-09  0.548E-05    2.29     281.6  T
   8    -84.3687614 -0.295302E-10  0.177E-05    2.29     873.8  T
     SCC iter.                  ...        0 min,  0.043 sec
     gradient                   ...        0 min,  0.061 sec
 * total energy  :   -83.6449618 Eh     change       -0.5118191E-03 Eh
   gradient norm :     0.0097984 Eh/α   predicted    -0.4921702E-03 (  -3.84%)
   displ. norm   :     0.1504100 α      lambda       -0.2500328E-03
   maximum displ.:     0.0669749 α      in ANC's #12, #9, #6, ...

........................................................................
.............................. CYCLE   59 ..............................
........................................................................
[...]
 N  N  Rav=1.3751 sigma=0.0000  Rmin=1.3751  Rmax=1.3751     1
 O  H  Rav=1.0045 sigma=0.0000  Rmin=1.0045  Rmax=1.0045     1
 O  C  Rav=1.3313 sigma=0.0708  Rmin=1.2360  Rmax=1.4208     8
 
 selected bond angles (degree)
 --------------------
H26-C1-O2=111.21               H27-C1-O2=107.30               H27-C1-H26=109.32              H28-C1-O2=111.24               
H28-C1-H26=108.42              H28-C1-H27=109.33              C3-O2-C1=115.42                O4-C3-O2=119.00                
C5-C3-O2=114.70                C5-C3-O4=126.29                C6-C5-C3=125.79                N25-C5-C3=114.37               
N25-C5-C6=119.55               O7-C6-C5=127.49                C8-C6-C5=114.32                C8-C6-O7=118.19                
C9-C8-C6=110.30                O10-C8-C6=111.20               O10-C8-C9=109.84               N11-C8-C6=106.64               
N11-C8-C9=109.47               N11-C8-O10=109.32              H29-C9-C8=109.98               H30-C9-C8=109.42               
H30-C9-H29=109.18              H31-C9-C8=109.81               H31-C9-H29=109.32              H31-C9-H30=109.12              
H39-O10-C8=107.94              
 
 selected dihedral angles (degree)
 ---------------------------------
C3-O2-C1-H26= 61.44           C3-O2-C1-H27=180.94           C3-O2-C1-H28=300.48           O4-C3-O2-C1=359.58            
C5-C3-O2-C1=180.65            C6-C5-C3-O2=356.80            C6-C5-C3-O4=177.96            N25-C5-C3-O2=182.98           
N25-C5-C3-O4=  4.14           O7-C6-C5-C3=  2.82            O7-C6-C5-N25=176.34           C8-C6-C5-C3=182.00            
C8-C6-C5-N25=355.53           C9-C8-C6-C5=205.25            C9-C8-C6-O7= 24.51            O10-C8-C6-C5= 83.13           
O10-C8-C6-O7=262.40           N11-C8-C6-C5=324.03           N11-C8-C6-O7=143.29           H29-C9-C8-C6= 60.32           
H29-C9-C8-O10=183.24          H29-C9-C8-N11=303.28          H30-C9-C8-C6=300.40           H30-C9-C8-O10= 63.31          
H30-C9-C8-N11=183.36          H31-C9-C8-C6=180.66           H31-C9-C8-O10=303.57          H31-C9-C8-N11= 63.62          
H39-O10-C8-C6=236.45          H39-O10-C8-C9=114.07          H39-O10-C8-N11=353.94         
           -------------------------------------------------
          |                Final Singlepoint                |
           -------------------------------------------------

          ...................................................
          :                      SETUP                      :
          :.................................................:
          :  # basis functions                 134          :
          :  # atomic orbitals                 134          :
          :  # shells                           84          :
          :  # electrons                       136          :
          :  # halogen bonds                     0          :
          :  max. iterations                   250          :
          :  Hamiltonian                  GFN1-xTB          :
          :  restarted?                      false          :
          :  GBSA solvation                   true          :
          :  PC potential                    false          :
          :  electronic temp.          300.0000000     K    :
          :  accuracy                    1.0000000          :
          :  -> integral cutoff          0.2500000E+02      :
          :  -> integral neglect         0.1000000E-07      :
          :  -> SCF convergence          0.1000000E-05 Eh   :
          :  -> wf. convergence          0.2000000E-04 e    :
          :  Broyden damping             0.4000000          :
          ...................................................

 iter      E             dE          RMSdq      gap      omega  full diag
   1    -84.3706151 -0.843706E+02  0.537E-06    2.32       0.0  T
   2    -84.3706151 -0.341061E-12  0.229E-06    2.32    6736.6  T
   3    -84.3706151 -0.213163E-12  0.128E-06    2.32   12024.8  T

   *** convergence criteria satisfied after 3 iterations ***

         #    Occupation            Energy/Eh            Energy/eV
      -------------------------------------------------------------
         1        2.0000           -0.8196871             -22.3048
       ...           ...                  ...                  ...
        62        2.0000           -0.3967805             -10.7969
        63        2.0000           -0.3838341             -10.4447
        64        2.0000           -0.3752879             -10.2121
        65        2.0000           -0.3650084              -9.9324
        66        2.0000           -0.3519198              -9.5762
        67        2.0000           -0.3504273              -9.5356
        68        2.0000           -0.3287609              -8.9460 (HOMO)
        69                         -0.2433956              -6.6231 (LUMO)
        70                         -0.2196224              -5.9762
        71                         -0.2187584              -5.9527
        72                         -0.2002552              -5.4492
        73                         -0.1275642              -3.4712
       ...                                ...                  ...
       134                          0.7574907              20.6124
      -------------------------------------------------------------
                  HL-Gap            0.0853653 Eh            2.3229 eV
             Fermi-level           -0.2860783 Eh           -7.7846 eV

 SCC (total)                   0 d,  0 h,  0 min,  0.106 sec
 SCC setup                      ...        0 min,  0.002 sec (  1.591%)
 Dispersion                     ...        0 min,  0.000 sec (  0.237%)
 classical contributions        ...        0 min,  0.000 sec (  0.080%)
 integral evaluation            ...        0 min,  0.026 sec ( 24.981%)
 iterations                     ...        0 min,  0.017 sec ( 15.944%)
 molecular gradient             ...        0 min,  0.059 sec ( 56.028%)
 printout                       ...        0 min,  0.001 sec (  1.120%)

         :::::::::::::::::::::::::::::::::::::::::::::::::::::
         ::                     SUMMARY                     ::
         :::::::::::::::::::::::::::::::::::::::::::::::::::::
         :: total energy             -83.645409724062 Eh    ::
         :: total w/o Gsasa/hb       -83.626941827548 Eh    ::
         :: gradient norm              0.000759618293 Eh/a0 ::
         :: HOMO-LUMO gap              2.322908857027 eV    ::
         ::.................................................::
         :: SCC energy               -84.370615062946 Eh    ::
         :: -> electrostatic           0.681398856238 Eh    ::
         :: -> Gsolv                  -0.266401414045 Eh    ::
         ::    -> Gelec               -0.247933517531 Eh    ::
         ::    -> Gsasa               -0.024196490686 Eh    ::
         ::    -> Ghb                 -0.001895684833 Eh    ::
         ::    -> Gshift               0.007624279005 Eh    ::
         :: repulsion energy           0.751780285169 Eh    ::
         :: dispersion energy         -0.026574946285 Eh    ::
         :: halogen bond corr.         0.000000000000 Eh    ::
         :: add. restraining           0.000000000000 Eh    ::
         :: total charge              -2.000000000000 e     ::
         :::::::::::::::::::::::::::::::::::::::::::::::::::::

           -------------------------------------------------
          |                Property Printout                |
           -------------------------------------------------

    * Orbital Energies and Occupations

         #    Occupation            Energy/Eh            Energy/eV
      -------------------------------------------------------------
         1        2.0000           -0.8196871             -22.3048
       ...           ...                  ...                  ...
        56        2.0000           -0.4387753             -11.9397
        57        2.0000           -0.4323569             -11.7650
        58        2.0000           -0.4210184             -11.4565
        59        2.0000           -0.4162516             -11.3268
        60        2.0000           -0.4123103             -11.2195
        61        2.0000           -0.4104598             -11.1692
        62        2.0000           -0.3967805             -10.7969
        63        2.0000           -0.3838341             -10.4447
        64        2.0000           -0.3752879             -10.2121
        65        2.0000           -0.3650084              -9.9324
        66        2.0000           -0.3519198              -9.5762
        67        2.0000           -0.3504273              -9.5356
        68        2.0000           -0.3287609              -8.9460 (HOMO)
        69                         -0.2433956              -6.6231 (LUMO)
        70                         -0.2196224              -5.9762
        71                         -0.2187584              -5.9527
        72                         -0.2002552              -5.4492
        73                         -0.1275642              -3.4712
        74                         -0.1270420              -3.4570
        75                         -0.1131793              -3.0798
        76                         -0.1029011              -2.8001
        77                         -0.0902402              -2.4556
        78                         -0.0863879              -2.3507
        79                         -0.0801673              -2.1815
       ...                                ...                  ...
       134                          0.7574907              20.6124
      -------------------------------------------------------------
                  HL-Gap            0.0853653 Eh            2.3229 eV
             Fermi-level           -0.2860783 Eh           -7.7846 eV

  Mulliken/CM5 charges         n(s)   n(p)   n(d)
     1C     0.17951  0.06101   0.965  2.855  0.000
     2O    -0.45536 -0.53687   1.693  4.762  0.000
     3C     0.52049  0.58249   0.980  2.500  0.000
     4O    -0.66298 -0.70579   1.741  4.922  0.000
     5C    -0.05863  0.01111   1.030  3.028  0.000
     6C     0.30608  0.34962   1.046  2.648  0.000
     7O    -0.65744 -0.70068   1.751  4.906  0.000
     8C     0.33460  0.39710   1.028  2.638  0.000
     9C    -0.09704 -0.23462   1.012  3.085  0.000
    10O    -0.62106 -0.80158   1.718  4.903  0.000
    11N    -0.42934 -0.76920   1.476  3.953  0.000
    12C     0.26559  0.41380   1.030  2.705  0.000
    13C     0.16152  0.20319   1.059  2.779  0.000
    14C    -0.09523 -0.23501   1.012  3.083  0.000
    15C    -0.08226 -0.22000   1.007  3.075  0.000
    16N    -0.52038 -0.72260   1.557  3.963  0.000
    17C     0.42981  0.54676   0.968  2.602  0.000
    18O    -0.69630 -0.73833   1.748  4.948  0.000
    19C     0.33362  0.45945   1.038  2.628  0.000
    20N    -0.28563 -0.38829   1.575  3.711  0.000
    21N    -0.30884 -0.41694   1.574  3.735  0.000
    22C     0.37322  0.48275   0.998  2.629  0.000
    23C    -0.10744 -0.24484   1.008  3.099  0.000
    24O    -0.35943 -0.41193   1.697  4.663  0.000
    25N    -0.42092 -0.60123   1.547  3.874  0.000
    26H     0.02056  0.08201   0.979  0.000  0.000
    27H     0.02120  0.08138   0.979  0.000  0.000
    28H     0.02119  0.08279   0.979  0.000  0.000
    29H     0.01841  0.07561   0.982  0.000  0.000
    30H     0.03039  0.08861   0.970  0.000  0.000
    31H     0.02271  0.07987   0.977  0.000  0.000
    32H     0.20455  0.40903   0.795  0.000  0.000
    33H     0.00864  0.06271   0.991  0.000  0.000
    34H     0.03455  0.09375   0.965  0.000  0.000
    35H     0.02143  0.07953   0.979  0.000  0.000
    36H     0.02605  0.08544   0.974  0.000  0.000
    37H     0.00664  0.06292   0.993  0.000  0.000
    38H     0.01630  0.07514   0.984  0.000  0.000
    39H     0.32407  0.51994   0.676  0.000  0.000
    40H     0.06270  0.11708   0.937  0.000  0.000
    41H     0.05197  0.10796   0.948  0.000  0.000
    42H     0.06248  0.11687   0.938  0.000  0.000

Wiberg/Mayer (AO) data.
largest (>0.10) Wiberg bond orders for each atom

 ---------------------------------------------------------------------------
     #   Z sym  total        # sym  WBO       # sym  WBO       # sym  WBO
 ---------------------------------------------------------------------------
     1   6 C    3.913 --    27 H    0.987    26 H    0.981    28 H    0.980
                             2 O    0.942
     2   8 O    2.117 --     3 C    0.991     1 C    0.942
     3   6 C    3.853 --     4 O    1.520     5 C    1.212     2 O    0.991
     4   8 O    1.813 --     3 C    1.520
     5   6 C    3.892 --     6 C    1.317     3 C    1.212    25 N    1.045
                             7 O    0.117
     6   6 C    3.923 --     7 O    1.520     5 C    1.317     8 C    0.908
     7   8 O    1.823 --     6 C    1.520     5 C    0.117
     8   6 C    3.891 --     9 C    0.988    11 N    0.947    10 O    0.947
                             6 C    0.908
     9   6 C    3.997 --    29 H    0.988     8 C    0.988    31 H    0.987
                            30 H    0.984
    10   8 O    1.877 --     8 C    0.947    39 H    0.800
    11   7 N    3.127 --    12 C    1.041     8 C    0.947    32 H    0.933
    12   6 C    3.938 --    25 N    1.741    11 N    1.041    13 C    0.971
    13   6 C    3.970 --    15 C    0.990    14 C    0.982    12 C    0.971
                            16 N    0.966
    14   6 C    3.993 --    33 H    0.988    35 H    0.984    34 H    0.982
                            13 C    0.982
    15   6 C    3.995 --    13 C    0.990    37 H    0.987    38 H    0.986
                            36 H    0.984
    16   7 N    2.997 --    17 C    1.492    13 C    0.966    18 O    0.223
                            39 H    0.117
    17   6 C    3.941 --    16 N    1.492    18 O    1.419    19 C    0.956
    18   8 O    1.771 --    17 C    1.419    16 N    0.223
    19   6 C    3.831 --    20 N    1.623    24 O    1.045    17 C    0.956
    20   7 N    2.967 --    19 C    1.623    21 N    1.168
    21   7 N    2.974 --    22 C    1.636    20 N    1.168
    22   6 C    3.886 --    21 N    1.636    24 O    1.077    23 C    1.025
    23   6 C    3.993 --    22 C    1.025    41 H    0.985    42 H    0.970
                            40 H    0.969
    24   8 O    2.311 --    22 C    1.077    19 C    1.045
    25   7 N    3.016 --    12 C    1.741     5 C    1.045
    26   1 H    1.019 --     1 C    0.981
    27   1 H    1.019 --     1 C    0.987
    28   1 H    1.019 --     1 C    0.980
    29   1 H    1.012 --     9 C    0.988
    30   1 H    1.019 --     9 C    0.984
    31   1 H    1.009 --     9 C    0.987
    32   1 H    0.982 --    11 N    0.933
    33   1 H    1.008 --    14 C    0.988
    34   1 H    1.020 --    14 C    0.982
    35   1 H    1.008 --    14 C    0.984
    36   1 H    1.022 --    15 C    0.984
    37   1 H    1.015 --    15 C    0.987
    38   1 H    1.019 --    15 C    0.986
    39   1 H    0.940 --    10 O    0.800    16 N    0.117
    40   1 H    1.001 --    23 C    0.969
    41   1 H    1.003 --    23 C    0.985
    42   1 H    1.001 --    23 C    0.970
 ---------------------------------------------------------------------------

Topologies differ in total number of bonds
Writing topology from bond orders to xtbtopo.mol

 dipole moment from electron density (au)
     X       Y       Z   
   1.2679  -0.6602   4.2420  total (Debye):   11.378

           -------------------------------------------------
          |                Geometry Summary                 |
           -------------------------------------------------

      molecular mass/u    :      351.3152409
   center of mass at/Å    :        0.1301267       0.0734063      -0.3065504
  moments of inertia/u·Å² :        0.1284462E+04   0.4021085E+04   0.4687311E+04
rotational constants/cm⁻¹ :        0.1312428E-01   0.4192309E-02   0.3596440E-02

 * 34 selected distances

     #   Z          #   Z                                           value/Å
     1   6 C        2   8 O                                       1.4140975
     2   8 O        3   6 C                                       1.3816006
     3   6 C        4   8 O                                       1.2360217
     3   6 C        5   6 C                                       1.4278162
     5   6 C        6   6 C                                       1.4091670
     8   6 C        9   6 C                                       1.5316774
     8   6 C       10   8 O                                       1.4208426
     8   6 C       11   7 N                                       1.4543426
    11   7 N       12   6 C                                       1.4136013
    13   6 C       14   6 C                                       1.5377741 (max)
    13   6 C       15   6 C                                       1.5359538
    16   7 N       17   6 C                                       1.3091399
    19   6 C       20   7 N                                       1.3013206
    21   7 N       22   6 C                                       1.2934635
    22   6 C       23   6 C                                       1.4829340
    19   6 C       24   8 O                                       1.3539834
    22   6 C       24   8 O                                       1.3425572
    12   6 C       25   7 N                                       1.2718600
     1   6 C       26   1 H                                       1.0963011
     1   6 C       27   1 H                                       1.0903865
     1   6 C       28   1 H                                       1.0964315
     9   6 C       29   1 H                                       1.0887423
     9   6 C       30   1 H                                       1.0893036
     9   6 C       31   1 H                                       1.0878932
    11   7 N       32   1 H                                       1.0157644 (min)
    14   6 C       33   1 H                                       1.0906610
    14   6 C       34   1 H                                       1.0895355
    14   6 C       35   1 H                                       1.0894418
    15   6 C       36   1 H                                       1.0890734
    15   6 C       37   1 H                                       1.0912076
    15   6 C       38   1 H                                       1.0910333
    23   6 C       40   1 H                                       1.0897029
    23   6 C       41   1 H                                       1.0868813
    23   6 C       42   1 H                                       1.0900192

 * 5 distinct bonds (by element types)

   Z      Z             #   av. dist./Å        max./Å        min./Å
   1 H    6 C          15     1.0904409     1.0964315     1.0868813
   6 C    6 C           6     1.4875537     1.5377741     1.4091670
   1 H    7 N           1     1.0157644     1.0157644     1.0157644
   6 C    7 N           6     1.3406213     1.4543426     1.2718600
   6 C    8 O           6     1.3581838     1.4208426     1.2360217


optimized geometry written to: xtbopt.xyz


           -------------------------------------------------
          | TOTAL ENERGY              -83.645409724062 Eh   |
          | GRADIENT NORM               0.000759618293 Eh/α |
          | HOMO-LUMO GAP               2.322908857027 eV   |
           -------------------------------------------------

------------------------------------------------------------------------
 * finished run on 2023/06/21 at 17:14:26.699     
------------------------------------------------------------------------
 total:
 * wall-time:     0 d,  0 h,  0 min,  7.904 sec
 *  cpu-time:     0 d,  0 h,  0 min,  7.848 sec
 * ratio c/w:     0.993 speedup
 SCF:
 * wall-time:     0 d,  0 h,  0 min,  0.129 sec
 *  cpu-time:     0 d,  0 h,  0 min,  0.129 sec
 * ratio c/w:     1.000 speedup
 ANC optimizer:
 * wall-time:     0 d,  0 h,  0 min,  7.714 sec
 *  cpu-time:     0 d,  0 h,  0 min,  7.680 sec
 * ratio c/w:     0.996 speedup

