42
 energy: -83.594648940286 gnorm: 0.000294400188 xtb: 6.5.1 (579679a)
C            6.64836573181375        1.06075841685091        0.26980597324018
O            5.34004149787606        0.53231578417545        0.16210928174004
C            5.25193048508608       -0.72015676986167       -0.41836156775894
O            6.27882484431268       -1.28090825951223       -0.79004883773676
C            3.89500027568073       -1.19869470715131       -0.50674527275825
N            2.92269165932562       -0.33957675449343       -0.00538681775217
C            1.68276505502672       -0.68842841284834       -0.06600250747998
C            0.60340544091764        0.24186965024539        0.47617947475758
C            1.19018974658497        1.64755601575824        0.64577247427876
C            0.12525882665539       -0.27922651712027        1.84586197778264
N           -0.49743639118131        0.34096063250607       -0.50033908337428
C           -1.54914694828398       -0.65759216374072       -0.42037678861418
O           -1.21885822913653       -1.93890132695829       -0.43865577953165
C           -2.79947369829267       -0.15711650319230       -0.38822630848039
N           -3.16413350060198        1.21495109296911       -0.37865669654657
N           -4.49519476965784        1.17416046244044       -0.40045348451263
C           -5.22786415638592        2.41639759832016       -0.39324654511876
C           -5.00490786191427       -0.03367600620735       -0.41840827934207
C           -6.43909069294884       -0.41553679087195       -0.45618303506908
O           -4.00957646267132       -0.96057782460308       -0.41447472194329
N            1.24792105709366       -1.86568177110582       -0.59098478091297
C            2.08828238428188       -2.79321101037228       -1.10669795421211
O            1.66171118522544       -3.85887410031060       -1.58062064227088
C            3.56745026768625       -2.45691020084819       -1.07982304865052
O            4.38583561077342       -3.27853024919488       -1.55315660173440
H            7.28145927967146        0.42292809353535        0.89703327518305
H            6.56214201375191        2.04641209622132        0.72666445511118
H            7.11812248847598        1.15642388680912       -0.71586367056700
H            0.45651760737013        2.31358225958822        1.09783320319258
H            1.48385480188293        2.05183703121064       -0.32345293429683
H            2.07245325180255        1.60896789443489        1.28516890226972
H            0.94527082689037       -0.23061902913818        2.56261605430084
H           -0.21292190755971       -1.31275024272567        1.77136574696192
H           -0.69697268108722        0.33465659555108        2.21302846911118
H           -0.93793508089937        1.25143964946258       -0.39114726172214
H           -4.50815814313732        3.23037848479626       -0.34734558717630
H           -5.88537992718467        2.45269649626338        0.47429552685801
H           -5.82626956670218        2.49975156051687       -1.29968680522608
H           -6.52435801678732       -1.49531569187953       -0.35091884334567
H           -6.99170564163316        0.06535551676855        0.35192191094920
H           -6.90332288049625       -0.11672604424973       -1.39860713560707
H            0.08321121835455       -1.98438584206162       -0.55762073401265
