42
 energy: -82.942632718712 gnorm: 0.000417907161 xtb: 6.5.1 (579679a)
C            6.19989609800615        2.46982057020724       -0.82630045496938
O            5.27906461753037        1.71046969876540       -0.04206522152029
C            4.30916210822247        1.08533403453170       -0.71074227340538
O            4.20012977538804        1.14394505884466       -1.91874349336728
C            3.37772526658216        0.31445794788058        0.15330410183403
N            2.35154211670264       -0.23420101458010       -0.52696305641098
C            1.44107180390331       -0.94486441746551        0.07811922396078
C            0.31453863054308       -1.54708530507203       -0.74441770055246
C            0.50999012079439       -1.18682991618051       -2.21750341748618
C            0.25630406217312       -3.06935022077636       -0.57597575867744
N           -0.95396770722046       -0.92892204571513       -0.32180448905053
C           -1.60629289637708       -1.17412322333183        0.82919796676436
O           -1.23702022243340       -1.91626197558516        1.72860587907632
C           -2.87267489181287       -0.41168840617884        0.93093095906010
N           -3.72130600618115       -0.45549215707189        1.96947479571297
N           -4.70165969876685        0.33486848040073        1.72998581494242
C           -4.50995287494065        0.95539178438008        0.44616727127274
C           -5.63759062884082        0.56727747060838       -0.51228429575608
C           -4.36803058234373        2.47162208993679        0.60212799961307
O           -3.27260497177641        0.40550147906867       -0.01775677405128
N            1.47382842877828       -1.15826916884884        1.41441364422585
C            2.44380718098821       -0.64719900252576        2.25825340426768
O            2.39241318130771       -0.86262523432870        3.45354142756711
C            3.53036168637316        0.16245138579369        1.57827702452364
O            4.44442281084884        0.62951856117146        2.25375606256667
H            6.92985287041611        2.88783739515703       -0.13598853473320
H            6.69447798144401        1.82563809647888       -1.55737033790621
H            5.67491822550450        3.27073615489773       -1.35230461509461
H            0.53865945591521       -0.10548066569622       -2.34191055873908
H            1.45167084553722       -1.60199744534654       -2.57310040830444
H           -0.30683269090521       -1.59569779584998       -2.80807611127791
H            1.16985283867215       -3.50654272691357       -0.97617405004914
H            0.15891954928585       -3.35252545010466        0.46939132935880
H           -0.59632836128183       -3.46009574638303       -1.12799347021906
H           -1.38043490982611       -0.28887864444335       -0.97237268858920
H           -6.58134601528078        0.94131804443603       -0.12335728334195
H           -5.68020771037082       -0.51622782923492       -0.59900772053415
H           -5.44223200515749        1.00270278289322       -1.48901366951727
H           -3.56765229581149        2.68815188573764        1.30683221073397
H           -5.30398790429606        2.88265784202800        0.97182732530265
H           -4.12910710415911        2.90758143293965       -0.36474948556036
H            0.72662082283969       -1.69292380450716        1.84915742832986
