      -----------------------------------------------------------      
     |                   =====================                   |     
     |                           x T B                           |     
     |                   =====================                   |     
     |                         S. Grimme                         |     
     |          Mulliken Center for Theoretical Chemistry        |     
     |                    University of Bonn                     |     
      -----------------------------------------------------------      

   * xtb version 6.5.1 (579679a) compiled by 'ehlert@majestix' on 2022-07-11

   xtb is free software: you can redistribute it and/or modify it under
   the terms of the GNU Lesser General Public License as published by
   the Free Software Foundation, either version 3 of the License, or
   (at your option) any later version.
   
   xtb is distributed in the hope that it will be useful,
   but WITHOUT ANY WARRANTY; without even the implied warranty of
   MERCHANTABILITY or FITNESS FOR A PARTICULAR PURPOSE.  See the
   GNU Lesser General Public License for more details.
   
   Cite this work as:
   * C. Bannwarth, E. Caldeweyher, S. Ehlert, A. Hansen, P. Pracht,
     J. Seibert, S. Spicher, S. Grimme, WIREs Comput. Mol. Sci., 2020, 11,
     e01493. DOI: 10.1002/wcms.1493
   
   for GFN2-xTB:
   * C. Bannwarth, S. Ehlert and S. Grimme., J. Chem. Theory Comput., 2019,
     15, 1652-1671. DOI: 10.1021/acs.jctc.8b01176
   for GFN1-xTB:
   * S. Grimme, C. Bannwarth, P. Shushkov, J. Chem. Theory Comput., 2017,
     13, 1989-2009. DOI: 10.1021/acs.jctc.7b00118
   for GFN0-xTB:
   * P. Pracht, E. Caldeweyher, S. Ehlert, S. Grimme, ChemRxiv, 2019, preprint.
     DOI: 10.26434/chemrxiv.8326202.v1
   for GFN-FF:
   * S. Spicher and S. Grimme, Angew. Chem. Int. Ed., 2020, 59, 15665-15673.
     DOI: 10.1002/anie.202004239
   
   for ALPB and GBSA implicit solvation:
   * S. Ehlert, M. Stahn, S. Spicher, S. Grimme, J. Chem. Theory Comput.,
     2021, 17, 4250-4261. DOI: 10.1021/acs.jctc.1c00471
   
   for DFT-D4:
   * E. Caldeweyher, C. Bannwarth and S. Grimme, J. Chem. Phys., 2017,
     147, 034112. DOI: 10.1063/1.4993215
   * E. Caldeweyher, S. Ehlert, A. Hansen, H. Neugebauer, S. Spicher,
     C. Bannwarth and S. Grimme, J. Chem. Phys., 2019, 150, 154122.
     DOI: 10.1063/1.5090222
   * E. Caldeweyher, J.-M. Mewes, S. Ehlert and S. Grimme, Phys. Chem. Chem. Phys.
     2020, 22, 8499-8512. DOI: 10.1039/D0CP00502A
   
   for sTDA-xTB:
   * S. Grimme and C. Bannwarth, J. Chem. Phys., 2016, 145, 054103.
     DOI: 10.1063/1.4959605
   
   in the mass-spec context:
   * V. Asgeirsson, C. Bauer and S. Grimme, Chem. Sci., 2017, 8, 4879.
     DOI: 10.1039/c7sc00601b
   * J. Koopman and S. Grimme, ACS Omega 2019, 4, 12, 15120-15133.
     DOI: 10.1021/acsomega.9b02011
   
   for metadynamics refer to:
   * S. Grimme, J. Chem. Theory Comput., 2019, 155, 2847-2862
     DOI: 10.1021/acs.jctc.9b00143
   
   for SPH calculations refer to:
   * S. Spicher and S. Grimme, J. Chem. Theory Comput., 2021, 17, 1701-1714
     DOI: 10.1021/acs.jctc.0c01306
   
   with help from (in alphabetical order)
   P. Atkinson, C. Bannwarth, F. Bohle, G. Brandenburg, E. Caldeweyher
   M. Checinski, S. Dohm, S. Ehlert, S. Ehrlich, I. Gerasimov, C. Hölzer
   A. Katbashev, J. Koopman, C. Lavigne, S. Lehtola, F. März, M. Müller,
   F. Musil, H. Neugebauer, J. Pisarek, C. Plett, P. Pracht, F. Pultar,
   J. Seibert, P. Shushkov, S. Spicher, M. Stahn, M. Steiner, T. Strunk,
   J. Stückrath, T. Rose, and J. Unsleber
   
 * started run on 2023/06/21 at 17:22:29.412     

           -------------------------------------------------
          |                Calculation Setup                |
           -------------------------------------------------

          program call               : /lustre/hpc/kemi/ree/PhD/git/ReactivityQM/dep/xtb-6.5.1/bin/xtb --gfn 1 /lustre/hpc/kemi/ree/PhD/git/ReactivityQM/calculations/R02methylcation/reac01prodE11/conf14/R02methylcation_reac01prodE11_conf14_gfn1.xyz --opt --vfukui --chrg -2 --uhf 0 --alpb DMSO
          hostname                   : node317
          coordinate file            : /lustre/hpc/kemi/ree/PhD/git/ReactivityQM/calculations/R02methylcation/reac01prodE11/conf14/R02methylcation_reac01prodE11_conf14_gfn1.xyz
          omp threads                :                     1

   ID    Z sym.   atoms
    1    6 C      1, 3, 5, 7-10, 12, 14, 17-19, 22, 24
    2    8 O      2, 4, 13, 20, 23, 25
    3    7 N      6, 11, 15, 16, 21
    4    1 H      26-42

           -------------------------------------------------
          |                 G F N 1 - x T B                 |
           -------------------------------------------------

        Reference                      10.1021/acs.jctc.7b00118
      * Hamiltonian:
        H0-scaling (s, p, d)           1.850000    2.250000    2.000000
        zeta-weighting                 0.000000
      * Dispersion:
        s8                             2.400000
        a1                             0.630000
        a2                             5.000000
        s9                             0.000000
      * Repulsion:
        kExp                           1.500000
        rExp                           1.000000
      * Coulomb:
        alpha                          2.000000
        third order                    atomic
        anisotropic                    false
      * Halogen bond correction:
        rad-scale                      1.300000
        damping                        0.440000

      * Solvation model:               ALPB
        Solvent                        DMSO
        Parameter file                 internal GFN1-xTB/ALPB
        Dielectric constant                4.6680E+01
        Reference state                gsolv [1 M gas/solution]
        Free energy shift                  7.6243E-03 Eh       4.7843E+00 kcal/mol
        Temperature                        2.9815E+02 K
        Density                            1.1000E+00 kg/L
        Solvent mass                       7.8130E+01 g/mol
        Interaction kernel             P16
        Born radius scaling (c1)           1.7672E+00
        Born radii integrator          GBOBC
        Born offset                        0.0000E+00 a0       0.0000E+00 AA
        H-bond correction              true
        Ion screening                  false
        Surface tension                    1.0000E-05 Eh       1.5569E+01 dyn/cm
        Grid points                               230 per atom

          ...................................................
          :                      SETUP                      :
          :.................................................:
          :  # basis functions                 134          :
          :  # atomic orbitals                 134          :
          :  # shells                           84          :
          :  # electrons                       136          :
          :  # halogen bonds                     0          :
          :  max. iterations                   250          :
          :  Hamiltonian                  GFN1-xTB          :
          :  restarted?                      false          :
          :  GBSA solvation                   true          :
          :  PC potential                    false          :
          :  electronic temp.          300.0000000     K    :
          :  accuracy                    1.0000000          :
          :  -> integral cutoff          0.2500000E+02      :
          :  -> integral neglect         0.1000000E-07      :
          :  -> SCF convergence          0.1000000E-05 Eh   :
          :  -> wf. convergence          0.2000000E-04 e    :
          :  Broyden damping             0.4000000          :
          ...................................................

 iter      E             dE          RMSdq      gap      omega  full diag
   1    -84.0628507 -0.840629E+02  0.866E+00    1.60       0.0  T
   2    -84.3639687 -0.301118E+00  0.519E+00    1.06       1.0  T
   3    -84.3204035  0.435652E-01  0.173E+00    1.24       1.0  T
   4    -84.3779985 -0.575950E-01  0.445E-01    1.12       1.0  T
   5    -84.3873356 -0.933713E-02  0.831E-02    1.06       1.0  T
   6    -84.3875984 -0.262783E-03  0.212E-02    1.06       1.0  T
   7    -84.3876164 -0.179647E-04  0.648E-03    1.06       2.4  T
   8    -84.3876169 -0.562275E-06  0.305E-03    1.06       5.1  T
   9    -84.3876170 -0.445328E-07  0.120E-03    1.06      12.9  T
  10    -84.3876170 -0.774446E-08  0.222E-04    1.06      69.4  T
  11    -84.3876170 -0.123406E-08  0.476E-05    1.06     324.4  T
  12    -84.3876170 -0.501075E-10  0.191E-05    1.06     805.8  T

   *** convergence criteria satisfied after 12 iterations ***

         #    Occupation            Energy/Eh            Energy/eV
      -------------------------------------------------------------
         1        2.0000           -0.7915521             -21.5392
       ...           ...                  ...                  ...
        62        2.0000           -0.4066367             -11.0651
        63        2.0000           -0.3945678             -10.7367
        64        2.0000           -0.3863515             -10.5132
        65        2.0000           -0.3644206              -9.9164
        66        2.0000           -0.3580242              -9.7423
        67        2.0000           -0.3507631              -9.5448
        68        2.0000           -0.2993477              -8.1457 (HOMO)
        69                         -0.2604572              -7.0874 (LUMO)
        70                         -0.2267314              -6.1697
        71                         -0.2210867              -6.0161
        72                         -0.1867038              -5.0805
        73                         -0.1210149              -3.2930
       ...                                ...                  ...
       134                          0.7879150              21.4403
      -------------------------------------------------------------
                  HL-Gap            0.0388905 Eh            1.0583 eV
             Fermi-level           -0.2799024 Eh           -7.6165 eV

 SCC (total)                   0 d,  0 h,  0 min,  0.176 sec
 SCC setup                      ...        0 min,  0.002 sec (  1.388%)
 Dispersion                     ...        0 min,  0.000 sec (  0.270%)
 classical contributions        ...        0 min,  0.000 sec (  0.081%)
 integral evaluation            ...        0 min,  0.038 sec ( 21.391%)
 iterations                     ...        0 min,  0.052 sec ( 29.302%)
 molecular gradient             ...        0 min,  0.083 sec ( 46.850%)
 printout                       ...        0 min,  0.001 sec (  0.670%)

         :::::::::::::::::::::::::::::::::::::::::::::::::::::
         ::                     SUMMARY                     ::
         :::::::::::::::::::::::::::::::::::::::::::::::::::::
         :: total energy             -83.655254948996 Eh    ::
         :: total w/o Gsasa/hb       -83.635685875136 Eh    ::
         :: gradient norm              0.114774817709 Eh/a0 ::
         :: HOMO-LUMO gap              1.058264154291 eV    ::
         ::.................................................::
         :: SCC energy               -84.387616992913 Eh    ::
         :: -> electrostatic           0.669616528734 Eh    ::
         :: -> Gsolv                  -0.262765049957 Eh    ::
         ::    -> Gelec               -0.243195976097 Eh    ::
         ::    -> Gsasa               -0.024741693895 Eh    ::
         ::    -> Ghb                 -0.002451658970 Eh    ::
         ::    -> Gshift               0.007624279005 Eh    ::
         :: repulsion energy           0.757831803021 Eh    ::
         :: dispersion energy         -0.025469759104 Eh    ::
         :: halogen bond corr.         0.000000000000 Eh    ::
         :: add. restraining           0.000000000000 Eh    ::
         :: total charge              -2.000000000000 e     ::
         :::::::::::::::::::::::::::::::::::::::::::::::::::::

      ----------------------------------------------------------- 
     |                   =====================                   |
     |                        A N C O P T                        |
     |                   =====================                   |
     |               Approximate Normal Coordinate               |
     |                Rational Function Optimizer                |
      ----------------------------------------------------------- 

          ...................................................
          :                      SETUP                      :
          :.................................................:
          :   optimization level            normal          :
          :   max. optcycles                   200          :
          :   ANC micro-cycles                  20          :
          :   degrees of freedom               120          :
          :.................................................:
          :   RF solver                   davidson          :
          :   write xtbopt.log                true          :
          :   linear?                        false          :
          :   energy convergence         0.5000000E-05 Eh   :
          :   grad. convergence          0.1000000E-02 Eh/α :
          :   maximium RF displ.         1.0000000          :
          :   Hlow (freq-cutoff)         0.1000000E-01      :
          :   Hmax (freq-cutoff)         5.0000000          :
          :   S6 in model hess.         20.0000000          :
          ...................................................

generating ANC from model Hessian ...
Using Lindh-Hessian (1995)
 Shifting diagonal of input Hessian by   9.837705225521744E-003
 Lowest  eigenvalues of input Hessian
    0.000000    0.000000    0.000000    0.000000    0.000000    0.000000
    0.010000    0.010126    0.010654    0.011367    0.011646    0.012130
    0.012531    0.013113    0.014186    0.015115    0.017003    0.018996
 Highest eigenvalues
    2.046132    2.063650    2.180633    2.273137    2.290146    2.397061
 

........................................................................
.............................. CYCLE    1 ..............................
........................................................................
   1    -84.3876170 -0.843876E+02  0.635E-06    1.06       0.0  T
   2    -84.3876170  0.710543E-13  0.321E-06    1.06    4805.5  T
   3    -84.3876170 -0.213163E-12  0.155E-06    1.06    9974.3  T
     SCC iter.                  ...        0 min,  0.013 sec
     gradient                   ...        0 min,  0.083 sec
 * total energy  :   -83.6552549 Eh     change       -0.3907985E-11 Eh
   gradient norm :     0.1147748 Eh/α   predicted     0.0000000E+00 (-100.00%)
   displ. norm   :     0.2390841 α      lambda       -0.1272358E-01
   maximum displ.:     0.0850205 α      in ANC's #27, #4, #29, ...

........................................................................
.............................. CYCLE    2 ..............................
........................................................................
   1    -84.3953874 -0.843954E+02  0.750E-02    1.21       0.0  T
   2    -84.3956559 -0.268444E-03  0.488E-02    1.24       1.0  T
   3    -84.3957137 -0.577894E-04  0.186E-02    1.24       1.0  T
   4    -84.3957110  0.266713E-05  0.134E-02    1.24       1.2  T
   5    -84.3957146 -0.360604E-05  0.151E-03    1.25      10.2  T
   6    -84.3957147 -0.689104E-07  0.329E-04    1.25      46.9  T
   7    -84.3957147 -0.243760E-08  0.153E-04    1.25     100.9  T
   8    -84.3957147 -0.456311E-09  0.283E-05    1.24     545.0  T
     SCC iter.                  ...        0 min,  0.033 sec
     gradient                   ...        0 min,  0.083 sec
 * total energy  :   -83.6642089 Eh     change       -0.8953989E-02 Eh
   gradient norm :     0.0480005 Eh/α   predicted    -0.6728758E-02 ( -24.85%)
   displ. norm   :     0.2751548 α      lambda       -0.4558055E-02
   maximum displ.:     0.1397792 α      in ANC's #4, #27, #11, ...

........................................................................
.............................. CYCLE    3 ..............................
........................................................................
   1    -84.4015239 -0.844015E+02  0.507E-02    1.35       0.0  T
   2    -84.4016318 -0.107964E-03  0.343E-02    1.38       1.0  T
   3    -84.4016546 -0.227586E-04  0.140E-02    1.38       1.1  T
   4    -84.4016532  0.137536E-05  0.101E-02    1.38       1.5  T
   5    -84.4016552 -0.197003E-05  0.912E-04    1.38      16.9  T
   6    -84.4016552 -0.319542E-07  0.239E-04    1.38      64.7  T
   7    -84.4016552 -0.119122E-08  0.924E-05    1.38     167.0  T
   8    -84.4016552 -0.172491E-09  0.192E-05    1.38     802.3  T
     SCC iter.                  ...        0 min,  0.033 sec
     gradient                   ...        0 min,  0.083 sec
 * total energy  :   -83.6668744 Eh     change       -0.2665413E-02 Eh
   gradient norm :     0.0127055 Eh/α   predicted    -0.2452156E-02 (  -8.00%)
   displ. norm   :     0.2162443 α      lambda       -0.7511131E-03
   maximum displ.:     0.1509671 α      in ANC's #4, #11, #20, ...

........................................................................
.............................. CYCLE    4 ..............................
........................................................................
   1    -84.4022968 -0.844023E+02  0.115E-02    1.40       0.0  T
   2    -84.4023014 -0.463661E-05  0.681E-03    1.41       2.3  T
   3    -84.4023018 -0.406513E-06  0.328E-03    1.41       4.7  T
   4    -84.4023018 -0.158150E-07  0.190E-03    1.41       8.1  T
   5    -84.4023019 -0.659990E-07  0.344E-04    1.41      44.9  T
   6    -84.4023019 -0.536700E-08  0.129E-04    1.41     119.6  T
   7    -84.4023019 -0.300133E-09  0.345E-05    1.41     447.1  T
     SCC iter.                  ...        0 min,  0.029 sec
     gradient                   ...        0 min,  0.083 sec
 * total energy  :   -83.6674747 Eh     change       -0.6003235E-03 Eh
   gradient norm :     0.0103083 Eh/α   predicted    -0.3931222E-03 ( -34.51%)
   displ. norm   :     0.3738418 α      lambda       -0.9144665E-03
   maximum displ.:     0.2654451 α      in ANC's #4, #2, #6, ...

........................................................................
.............................. CYCLE    5 ..............................
........................................................................
   1    -84.4024999 -0.844025E+02  0.169E-02    1.42       0.0  T
   2    -84.4025099 -0.100231E-04  0.700E-03    1.43       2.2  T
   3    -84.4025108 -0.839813E-06  0.393E-03    1.43       3.9  T
   4    -84.4025108 -0.207586E-07  0.130E-03    1.43      11.9  T
   5    -84.4025109 -0.520597E-07  0.648E-04    1.43      23.8  T
   6    -84.4025109 -0.104565E-07  0.143E-04    1.43     107.7  T
   7    -84.4025109 -0.457035E-09  0.550E-05    1.43     280.4  T
     SCC iter.                  ...        0 min,  0.028 sec
     gradient                   ...        0 min,  0.083 sec
 * total energy  :   -83.6681354 Eh     change       -0.6607670E-03 Eh
   gradient norm :     0.0091485 Eh/α   predicted    -0.5211381E-03 ( -21.13%)
   displ. norm   :     0.3086200 α      lambda       -0.4612354E-03
   maximum displ.:     0.2261984 α      in ANC's #4, #2, #6, ...

........................................................................
.............................. CYCLE    6 ..............................
........................................................................
   1    -84.4032599 -0.844033E+02  0.112E-02    1.43       0.0  T
   2    -84.4032643 -0.437785E-05  0.471E-03    1.43       3.3  T
   3    -84.4032649 -0.628649E-06  0.217E-03    1.43       7.1  T
   4    -84.4032649 -0.175542E-07  0.101E-03    1.43      15.3  T
   5    -84.4032649 -0.266042E-07  0.288E-04    1.43      53.7  T
   6    -84.4032649 -0.105015E-08  0.765E-05    1.43     201.7  T
   7    -84.4032649 -0.710401E-10  0.256E-05    1.43     602.0  T
     SCC iter.                  ...        0 min,  0.030 sec
     gradient                   ...        0 min,  0.083 sec
 * total energy  :   -83.6684886 Eh     change       -0.3531550E-03 Eh
   gradient norm :     0.0087176 Eh/α   predicted    -0.2526134E-03 ( -28.47%)
   displ. norm   :     0.2729303 α      lambda       -0.3404299E-03
   maximum displ.:     0.2022841 α      in ANC's #4, #2, #6, ...

........................................................................
.............................. CYCLE    7 ..............................
........................................................................
   1    -84.4046543 -0.844047E+02  0.802E-03    1.42       0.0  T
   2    -84.4046573 -0.304925E-05  0.382E-03    1.42       4.0  T
   3    -84.4046577 -0.432181E-06  0.171E-03    1.42       9.0  T
   4    -84.4046577  0.254732E-08  0.756E-04    1.42      20.4  T
   5    -84.4046578 -0.896897E-08  0.233E-04    1.42      66.4  T
   6    -84.4046578 -0.253334E-08  0.571E-05    1.42     270.1  T
   7    -84.4046578 -0.612488E-10  0.185E-05    1.42     834.1  T
     SCC iter.                  ...        0 min,  0.029 sec
     gradient                   ...        0 min,  0.084 sec
 * total energy  :   -83.6687596 Eh     change       -0.2709741E-03 Eh
   gradient norm :     0.0070557 Eh/α   predicted    -0.1828949E-03 ( -32.50%)
   displ. norm   :     0.2859366 α      lambda       -0.2914551E-03
   maximum displ.:     0.2087287 α      in ANC's #4, #2, #6, ...

........................................................................
.............................. CYCLE    8 ..............................
........................................................................
   1    -84.4057735 -0.844058E+02  0.876E-03    1.42       0.0  T
   2    -84.4057780 -0.455984E-05  0.418E-03    1.42       3.7  T
   3    -84.4057788 -0.791431E-06  0.180E-03    1.42       8.6  T
   4    -84.4057788 -0.491825E-08  0.794E-04    1.42      19.4  T
   5    -84.4057789 -0.495675E-08  0.336E-04    1.42      45.9  T
   6    -84.4057789 -0.364604E-08  0.624E-05    1.42     247.2  T
   7    -84.4057789 -0.944169E-10  0.181E-05    1.42     853.0  T
     SCC iter.                  ...        0 min,  0.029 sec
     gradient                   ...        0 min,  0.083 sec
 * total energy  :   -83.6689838 Eh     change       -0.2242255E-03 Eh
   gradient norm :     0.0055453 Eh/α   predicted    -0.1576505E-03 ( -29.69%)
   displ. norm   :     0.2770184 α      lambda       -0.2078078E-03
   maximum displ.:     0.2000024 α      in ANC's #4, #2, #6, ...

........................................................................
.............................. CYCLE    9 ..............................
........................................................................
   1    -84.4059416 -0.844059E+02  0.109E-02    1.41       0.0  T
   2    -84.4059470 -0.548807E-05  0.539E-03    1.41       2.9  T
   3    -84.4059487 -0.161298E-05  0.170E-03    1.41       9.1  T
   4    -84.4059487 -0.405962E-07  0.852E-04    1.41      18.1  T
   5    -84.4059487 -0.609063E-09  0.272E-04    1.41      56.6  T
   6    -84.4059487 -0.165842E-08  0.629E-05    1.41     245.2  T
   7    -84.4059487 -0.860751E-10  0.213E-05    1.41     723.0  T
     SCC iter.                  ...        0 min,  0.030 sec
     gradient                   ...        0 min,  0.083 sec
 * total energy  :   -83.6691332 Eh     change       -0.1493827E-03 Eh
   gradient norm :     0.0043010 Eh/α   predicted    -0.1118784E-03 ( -25.11%)
   displ. norm   :     0.2407706 α      lambda       -0.1299731E-03
   maximum displ.:     0.1661067 α      in ANC's #4, #2, #9, ...

........................................................................
.............................. CYCLE   10 ..............................
........................................................................
   1    -84.4063502 -0.844064E+02  0.110E-02    1.41       0.0  T
   2    -84.4063544 -0.418287E-05  0.625E-03    1.41       2.5  T
   3    -84.4063566 -0.218751E-05  0.147E-03    1.41      10.5  T
   4    -84.4063566 -0.322374E-07  0.728E-04    1.41      21.2  T
   5    -84.4063566 -0.102536E-08  0.200E-04    1.41      77.0  T
   6    -84.4063567 -0.689695E-09  0.613E-05    1.41     251.6  T
   7    -84.4063567 -0.776765E-10  0.206E-05    1.41     749.4  T
     SCC iter.                  ...        0 min,  0.030 sec
     gradient                   ...        0 min,  0.085 sec
 * total energy  :   -83.6692228 Eh     change       -0.8959585E-04 Eh
   gradient norm :     0.0038139 Eh/α   predicted    -0.6875600E-04 ( -23.26%)
   displ. norm   :     0.1635045 α      lambda       -0.8037591E-04
   maximum displ.:     0.1162724 α      in ANC's #2, #4, #9, ...

........................................................................
.............................. CYCLE   11 ..............................
........................................................................
   1    -84.4066236 -0.844066E+02  0.850E-03    1.41       0.0  T
   2    -84.4066258 -0.217474E-05  0.521E-03    1.40       3.0  T
   3    -84.4066273 -0.151728E-05  0.101E-03    1.40      15.2  T
   4    -84.4066273 -0.138626E-07  0.493E-04    1.40      31.3  T
   5    -84.4066273 -0.666915E-09  0.125E-04    1.40     123.0  T
   6    -84.4066273 -0.149697E-09  0.402E-05    1.40     383.5  T
     SCC iter.                  ...        0 min,  0.025 sec
     gradient                   ...        0 min,  0.084 sec
 * total energy  :   -83.6692863 Eh     change       -0.6353201E-04 Eh
   gradient norm :     0.0034558 Eh/α   predicted    -0.4126470E-04 ( -35.05%)
   displ. norm   :     0.1654583 α      lambda       -0.9306308E-04
   maximum displ.:     0.1284885 α      in ANC's #2, #4, #8, ...

........................................................................
.............................. CYCLE   12 ..............................
........................................................................
   1    -84.4070081 -0.844070E+02  0.815E-03    1.41       0.0  T
   2    -84.4070101 -0.200651E-05  0.495E-03    1.40       3.1  T
   3    -84.4070115 -0.134413E-05  0.120E-03    1.40      12.9  T
   4    -84.4070115 -0.160786E-07  0.560E-04    1.40      27.6  T
   5    -84.4070115 -0.133123E-08  0.148E-04    1.40     104.4  T
   6    -84.4070115 -0.426212E-09  0.525E-05    1.40     294.2  T
     SCC iter.                  ...        0 min,  0.026 sec
     gradient                   ...        0 min,  0.083 sec
 * total energy  :   -83.6693616 Eh     change       -0.7532111E-04 Eh
   gradient norm :     0.0038903 Eh/α   predicted    -0.4780627E-04 ( -36.53%)
   displ. norm   :     0.1960211 α      lambda       -0.1020656E-03
   maximum displ.:     0.1538196 α      in ANC's #2, #8, #6, ...

........................................................................
.............................. CYCLE   13 ..............................
........................................................................
   1    -84.4068482 -0.844068E+02  0.664E-03    1.40       0.0  T
   2    -84.4068500 -0.177940E-05  0.339E-03    1.40       4.5  T
   3    -84.4068504 -0.437789E-06  0.161E-03    1.40       9.6  T
   4    -84.4068504 -0.229746E-07  0.748E-04    1.40      20.6  T
   5    -84.4068504 -0.407414E-08  0.198E-04    1.40      78.0  T
   6    -84.4068504 -0.119857E-08  0.624E-05    1.40     247.3  T
     SCC iter.                  ...        0 min,  0.025 sec
     gradient                   ...        0 min,  0.083 sec
 * total energy  :   -83.6694414 Eh     change       -0.7973055E-04 Eh
   gradient norm :     0.0048620 Eh/α   predicted    -0.5299677E-04 ( -33.53%)
   displ. norm   :     0.1957074 α      lambda       -0.9065884E-04
   maximum displ.:     0.1529825 α      in ANC's #2, #8, #6, ...

........................................................................
.............................. CYCLE   14 ..............................
........................................................................
   1    -84.4065993 -0.844066E+02  0.613E-03    1.40       0.0  T
   2    -84.4066010 -0.173483E-05  0.323E-03    1.40       4.8  T
   3    -84.4066012 -0.206904E-06  0.163E-03    1.40       9.4  T
   4    -84.4066012  0.164762E-08  0.919E-04    1.40      16.8  T
   5    -84.4066012 -0.155654E-07  0.154E-04    1.40     100.2  T
   6    -84.4066012 -0.715602E-09  0.609E-05    1.40     253.5  T
     SCC iter.                  ...        0 min,  0.024 sec
     gradient                   ...        0 min,  0.083 sec
 * total energy  :   -83.6695143 Eh     change       -0.7289502E-04 Eh
   gradient norm :     0.0050182 Eh/α   predicted    -0.4706710E-04 ( -35.43%)
   displ. norm   :     0.2153124 α      lambda       -0.1019775E-03
   maximum displ.:     0.1696702 α      in ANC's #2, #8, #6, ...

........................................................................
.............................. CYCLE   15 ..............................
........................................................................
   1    -84.4060739 -0.844061E+02  0.998E-03    1.40       0.0  T
   2    -84.4060776 -0.369108E-05  0.666E-03    1.40       2.3  T
   3    -84.4060794 -0.178587E-05  0.241E-03    1.40       6.4  T
   4    -84.4060794 -0.562098E-08  0.128E-03    1.40      12.1  T
   5    -84.4060794 -0.128001E-07  0.167E-04    1.40      92.6  T
   6    -84.4060794 -0.594383E-09  0.702E-05    1.40     219.9  T
     SCC iter.                  ...        0 min,  0.025 sec
     gradient                   ...        0 min,  0.084 sec
 * total energy  :   -83.6695984 Eh     change       -0.8411302E-04 Eh
   gradient norm :     0.0048916 Eh/α   predicted    -0.5335715E-04 ( -36.56%)
   displ. norm   :     0.2593396 α      lambda       -0.1326995E-03
   maximum displ.:     0.2057995 α      in ANC's #2, #8, #6, ...

........................................................................
.............................. CYCLE   16 ..............................
........................................................................
   1    -84.4057808 -0.844058E+02  0.149E-02    1.40       0.0  T
   2    -84.4057889 -0.805977E-05  0.103E-02    1.41       1.5  T
   3    -84.4057941 -0.519865E-05  0.269E-03    1.41       5.7  T
   4    -84.4057941 -0.136367E-07  0.152E-03    1.41      10.2  T
   5    -84.4057941 -0.883689E-08  0.219E-04    1.41      70.4  T
   6    -84.4057941 -0.107848E-08  0.847E-05    1.41     182.2  T
   7    -84.4057941 -0.137078E-09  0.219E-05    1.41     703.7  T
     SCC iter.                  ...        0 min,  0.028 sec
     gradient                   ...        0 min,  0.084 sec
 * total energy  :   -83.6697033 Eh     change       -0.1049130E-03 Eh
   gradient norm :     0.0040188 Eh/α   predicted    -0.7081434E-04 ( -32.50%)
   displ. norm   :     0.2766018 α      lambda       -0.1383087E-03
   maximum displ.:     0.2230395 α      in ANC's #2, #1, #17, ...

........................................................................
.............................. CYCLE   17 ..............................
........................................................................
   1    -84.4048468 -0.844048E+02  0.162E-02    1.41       0.0  T
   2    -84.4048552 -0.845398E-05  0.114E-02    1.42       1.4  T
   3    -84.4048610 -0.582542E-05  0.391E-03    1.42       3.9  T
   4    -84.4048611 -0.194293E-07  0.152E-03    1.42      10.2  T
   5    -84.4048611 -0.181564E-07  0.281E-04    1.42      55.0  T
   6    -84.4048611 -0.173081E-08  0.117E-04    1.42     131.8  T
   7    -84.4048611 -0.248122E-09  0.246E-05    1.42     626.2  T
     SCC iter.                  ...        0 min,  0.028 sec
     gradient                   ...        0 min,  0.083 sec
 * total energy  :   -83.6698033 Eh     change       -0.9999056E-04 Eh
   gradient norm :     0.0068665 Eh/α   predicted    -0.7444993E-04 ( -25.54%)
   displ. norm   :     0.2881646 α      lambda       -0.1835124E-03
   maximum displ.:     0.2230038 α      in ANC's #2, #1, #4, ...

........................................................................
.............................. CYCLE   18 ..............................
........................................................................
   1    -84.4060272 -0.844060E+02  0.153E-02    1.43       0.0  T
   2    -84.4060354 -0.818973E-05  0.952E-03    1.43       1.6  T
   3    -84.4060409 -0.543406E-05  0.161E-03    1.43       9.6  T
   4    -84.4060409 -0.463341E-07  0.787E-04    1.43      19.6  T
   5    -84.4060409 -0.286310E-08  0.265E-04    1.44      58.3  T
   6    -84.4060409 -0.518980E-09  0.887E-05    1.44     173.9  T
   7    -84.4060409 -0.113573E-09  0.238E-05    1.44     648.2  T
     SCC iter.                  ...        0 min,  0.029 sec
     gradient                   ...        0 min,  0.083 sec
 * total energy  :   -83.6699046 Eh     change       -0.1013343E-03 Eh
   gradient norm :     0.0077987 Eh/α   predicted    -0.9937601E-04 (  -1.93%)
   displ. norm   :     0.2531633 α      lambda       -0.1338876E-03
   maximum displ.:     0.2041822 α      in ANC's #2, #1, #17, ...

........................................................................
.............................. CYCLE   19 ..............................
........................................................................
   1    -84.4047861 -0.844048E+02  0.971E-03    1.44       0.0  T
   2    -84.4047881 -0.204464E-05  0.629E-03    1.45       2.5  T
   3    -84.4047886 -0.435567E-06  0.372E-03    1.45       4.1  T
   4    -84.4047886 -0.740874E-07  0.123E-03    1.45      12.5  T
   5    -84.4047887 -0.438166E-07  0.265E-04    1.45      58.2  T
   6    -84.4047887 -0.100701E-08  0.981E-05    1.45     157.2  T
   7    -84.4047887 -0.990639E-10  0.178E-05    1.45     869.2  T
     SCC iter.                  ...        0 min,  0.028 sec
     gradient                   ...        0 min,  0.083 sec
 * total energy  :   -83.6699949 Eh     change       -0.9029436E-04 Eh
   gradient norm :     0.0067763 Eh/α   predicted    -0.7123602E-04 ( -21.11%)
   displ. norm   :     0.1676718 α      lambda       -0.1086499E-03
   maximum displ.:     0.1278307 α      in ANC's #2, #1, #12, ...

........................................................................
.............................. CYCLE   20 ..............................
........................................................................
   1    -84.4053467 -0.844053E+02  0.938E-03    1.45       0.0  T
   2    -84.4053499 -0.322457E-05  0.485E-03    1.45       3.2  T
   3    -84.4053509 -0.100599E-05  0.179E-03    1.45       8.6  T
   4    -84.4053510 -0.330551E-07  0.958E-04    1.45      16.1  T
   5    -84.4053510 -0.189551E-08  0.281E-04    1.46      55.0  T
   6    -84.4053510 -0.175692E-08  0.621E-05    1.46     248.6  T
   7    -84.4053510 -0.456168E-10  0.190E-05    1.46     812.6  T
     SCC iter.                  ...        0 min,  0.028 sec
     gradient                   ...        0 min,  0.084 sec
 * total energy  :   -83.6700780 Eh     change       -0.8312756E-04 Eh
   gradient norm :     0.0042721 Eh/α   predicted    -0.5585313E-04 ( -32.81%)
   displ. norm   :     0.1787660 α      lambda       -0.1020135E-03
   maximum displ.:     0.1300081 α      in ANC's #2, #1, #4, ...
 * RMSD in coord.:     0.5309646 α      energy gain  -0.1482308E-01 Eh

generating ANC from model Hessian ...
Using Lindh-Hessian (1995)
 Shifting diagonal of input Hessian by   9.806480333705616E-003
 Lowest  eigenvalues of input Hessian
    0.000000    0.000000    0.000000    0.000000    0.000000    0.000000
    0.010000    0.010153    0.010712    0.011318    0.011668    0.012259
    0.012791    0.013351    0.014083    0.015834    0.017322    0.019412
 Highest eigenvalues
    2.075426    2.115911    2.201191    2.262269    2.327651    2.357950
 

........................................................................
.............................. CYCLE   21 ..............................
........................................................................
   1    -84.4057997 -0.844058E+02  0.116E-02    1.45       0.0  T
   2    -84.4058046 -0.481907E-05  0.586E-03    1.46       2.6  T
   3    -84.4058062 -0.167082E-05  0.182E-03    1.46       8.5  T
   4    -84.4058063 -0.528545E-07  0.896E-04    1.46      17.2  T
   5    -84.4058063 -0.126931E-09  0.334E-04    1.46      46.2  T
   6    -84.4058063 -0.203026E-08  0.569E-05    1.46     271.2  T
   7    -84.4058063 -0.464695E-10  0.183E-05    1.46     845.2  T
     SCC iter.                  ...        0 min,  0.028 sec
     gradient                   ...        0 min,  0.084 sec
 * total energy  :   -83.6701460 Eh     change       -0.6796118E-04 Eh
   gradient norm :     0.0027125 Eh/α   predicted     0.0000000E+00 (-100.00%)
   displ. norm   :     0.0372990 α      lambda       -0.2911530E-04
   maximum displ.:     0.0205849 α      in ANC's #2, #4, #8, ...

........................................................................
.............................. CYCLE   22 ..............................
........................................................................
   1    -84.4057123 -0.844057E+02  0.268E-03    1.46       0.0  T
   2    -84.4057126 -0.281396E-06  0.179E-03    1.46       8.6  T
   3    -84.4057127 -0.146182E-06  0.509E-04    1.46      30.3  T
   4    -84.4057127 -0.527933E-09  0.289E-04    1.46      53.4  T
   5    -84.4057128 -0.644590E-09  0.660E-05    1.46     233.8  T
   6    -84.4057128 -0.892300E-10  0.119E-05    1.46    1300.6  T
     SCC iter.                  ...        0 min,  0.025 sec
     gradient                   ...        0 min,  0.111 sec
 * total energy  :   -83.6701720 Eh     change       -0.2598387E-04 Eh
   gradient norm :     0.0015854 Eh/α   predicted    -0.1483591E-04 ( -42.90%)
   displ. norm   :     0.2292586 α      lambda       -0.8866875E-04
   maximum displ.:     0.1248769 α      in ANC's #2, #4, #1, ...

........................................................................
.............................. CYCLE   23 ..............................
........................................................................
   1    -84.4051663 -0.844052E+02  0.124E-02    1.47       0.0  T
   2    -84.4051723 -0.593700E-05  0.829E-03    1.47       1.9  T
   3    -84.4051756 -0.330626E-05  0.191E-03    1.47       8.1  T
   4    -84.4051756 -0.144698E-07  0.115E-03    1.47      13.5  T
   5    -84.4051756 -0.843070E-08  0.297E-04    1.47      52.0  T
   6    -84.4051756 -0.133230E-08  0.576E-05    1.47     267.8  T
   7    -84.4051756 -0.771365E-10  0.237E-05    1.47     652.0  T
     SCC iter.                  ...        0 min,  0.028 sec
     gradient                   ...        0 min,  0.083 sec
 * total energy  :   -83.6702362 Eh     change       -0.6419623E-04 Eh
   gradient norm :     0.0037560 Eh/α   predicted    -0.4537195E-04 ( -29.32%)
   displ. norm   :     0.0481071 α      lambda       -0.2353912E-04
   maximum displ.:     0.0312140 α      in ANC's #2, #1, #4, ...

........................................................................
.............................. CYCLE   24 ..............................
........................................................................
   1    -84.4055780 -0.844056E+02  0.163E-03    1.47       0.0  T
   2    -84.4055780 -0.755770E-07  0.890E-04    1.46      17.3  T
   3    -84.4055781 -0.227005E-07  0.437E-04    1.46      35.3  T
   4    -84.4055781 -0.165228E-08  0.175E-04    1.46      88.3  T
   5    -84.4055781 -0.514191E-09  0.520E-05    1.46     296.7  T
     SCC iter.                  ...        0 min,  0.020 sec
     gradient                   ...        0 min,  0.082 sec
 * total energy  :   -83.6702567 Eh     change       -0.2051892E-04 Eh
   gradient norm :     0.0028152 Eh/α   predicted    -0.1179723E-04 ( -42.51%)
   displ. norm   :     0.1340792 α      lambda       -0.5862639E-04
   maximum displ.:     0.0853856 α      in ANC's #2, #1, #4, ...

........................................................................
.............................. CYCLE   25 ..............................
........................................................................
   1    -84.4063732 -0.844064E+02  0.601E-03    1.46       0.0  T
   2    -84.4063745 -0.125240E-05  0.378E-03    1.46       4.1  T
   3    -84.4063751 -0.610730E-06  0.130E-03    1.46      11.9  T
   4    -84.4063751 -0.579811E-08  0.599E-04    1.45      25.8  T
   5    -84.4063751 -0.475202E-08  0.163E-04    1.45      94.9  T
   6    -84.4063751 -0.368146E-09  0.382E-05    1.45     403.8  T
     SCC iter.                  ...        0 min,  0.024 sec
     gradient                   ...        0 min,  0.081 sec
 * total energy  :   -83.6702963 Eh     change       -0.3959156E-04 Eh
   gradient norm :     0.0015230 Eh/α   predicted    -0.2984027E-04 ( -24.63%)
   displ. norm   :     0.1769330 α      lambda       -0.2501541E-04
   maximum displ.:     0.1146729 α      in ANC's #2, #1, #4, ...

........................................................................
.............................. CYCLE   26 ..............................
........................................................................
   1    -84.4062070 -0.844062E+02  0.459E-03    1.45       0.0  T
   2    -84.4062078 -0.759775E-06  0.299E-03    1.45       5.2  T
   3    -84.4062082 -0.399967E-06  0.878E-04    1.45      17.6  T
   4    -84.4062082 -0.289928E-08  0.464E-04    1.45      33.2  T
   5    -84.4062082 -0.205094E-08  0.117E-04    1.45     131.6  T
   6    -84.4062082 -0.132516E-09  0.293E-05    1.45     525.9  T
     SCC iter.                  ...        0 min,  0.024 sec
     gradient                   ...        0 min,  0.075 sec
 * total energy  :   -83.6703222 Eh     change       -0.2597100E-04 Eh
   gradient norm :     0.0025112 Eh/α   predicted    -0.1268926E-04 ( -51.14%)
   displ. norm   :     0.0799319 α      lambda       -0.1922343E-04
   maximum displ.:     0.0535231 α      in ANC's #2, #1, #4, ...

........................................................................
.............................. CYCLE   27 ..............................
........................................................................
   1    -84.4061747 -0.844062E+02  0.108E-03    1.45       0.0  T
   2    -84.4061748 -0.424738E-07  0.599E-04    1.45      25.8  T
   3    -84.4061748 -0.109480E-07  0.265E-04    1.45      58.2  T
   4    -84.4061748 -0.302265E-09  0.139E-04    1.45     110.9  T
   5    -84.4061748 -0.232433E-09  0.291E-05    1.45     530.1  T
     SCC iter.                  ...        0 min,  0.021 sec
     gradient                   ...        0 min,  0.081 sec
 * total energy  :   -83.6703397 Eh     change       -0.1748128E-04 Eh
   gradient norm :     0.0019306 Eh/α   predicted    -0.9675702E-05 ( -44.65%)
   displ. norm   :     0.2082563 α      lambda       -0.3575527E-04
   maximum displ.:     0.1411774 α      in ANC's #2, #1, #4, ...

........................................................................
.............................. CYCLE   28 ..............................
........................................................................
   1    -84.4058908 -0.844059E+02  0.332E-03    1.45       0.0  T
   2    -84.4058912 -0.400429E-06  0.161E-03    1.45       9.6  T
   3    -84.4058913 -0.471000E-07  0.843E-04    1.45      18.3  T
   4    -84.4058913 -0.272753E-08  0.343E-04    1.45      45.0  T
   5    -84.4058913 -0.120174E-08  0.137E-04    1.45     112.8  T
   6    -84.4058913 -0.728548E-09  0.356E-05    1.45     433.4  T
     SCC iter.                  ...        0 min,  0.024 sec
     gradient                   ...        0 min,  0.093 sec
 * total energy  :   -83.6703785 Eh     change       -0.3872419E-04 Eh
   gradient norm :     0.0015206 Eh/α   predicted    -0.1822411E-04 ( -52.94%)
   displ. norm   :     0.1700732 α      lambda       -0.1880110E-04
   maximum displ.:     0.1181324 α      in ANC's #2, #1, #4, ...

........................................................................
.............................. CYCLE   29 ..............................
........................................................................
   1    -84.4056850 -0.844057E+02  0.226E-03    1.46       0.0  T
   2    -84.4056852 -0.157372E-06  0.153E-03    1.46      10.1  T
   3    -84.4056853 -0.104043E-06  0.509E-04    1.46      30.3  T
   4    -84.4056853 -0.214320E-08  0.198E-04    1.46      78.0  T
   5    -84.4056853 -0.337252E-09  0.677E-05    1.46     228.0  T
     SCC iter.                  ...        0 min,  0.020 sec
     gradient                   ...        0 min,  0.078 sec
 * total energy  :   -83.6704014 Eh     change       -0.2291269E-04 Eh
   gradient norm :     0.0017660 Eh/α   predicted    -0.9526275E-05 ( -58.42%)
   displ. norm   :     0.1365584 α      lambda       -0.1745421E-04
   maximum displ.:     0.0964921 α      in ANC's #2, #1, #3, ...

........................................................................
.............................. CYCLE   30 ..............................
........................................................................
   1    -84.4060161 -0.844060E+02  0.357E-03    1.46       0.0  T
   2    -84.4060165 -0.445670E-06  0.265E-03    1.46       5.8  T
   3    -84.4060169 -0.318407E-06  0.884E-04    1.46      17.5  T
   4    -84.4060169 -0.212809E-08  0.353E-04    1.47      43.7  T
   5    -84.4060169 -0.647248E-09  0.838E-05    1.47     184.1  T
   6    -84.4060169 -0.758291E-10  0.270E-05    1.47     571.0  T
     SCC iter.                  ...        0 min,  0.025 sec
     gradient                   ...        0 min,  0.077 sec
 * total energy  :   -83.6704236 Eh     change       -0.2227225E-04 Eh
   gradient norm :     0.0015360 Eh/α   predicted    -0.8806667E-05 ( -60.46%)
   displ. norm   :     0.1803691 α      lambda       -0.2284095E-04
   maximum displ.:     0.1272135 α      in ANC's #2, #1, #9, ...

........................................................................
.............................. CYCLE   31 ..............................
........................................................................
   1    -84.4058622 -0.844059E+02  0.601E-03    1.47       0.0  T
   2    -84.4058636 -0.137870E-05  0.442E-03    1.47       3.5  T
   3    -84.4058645 -0.909873E-06  0.146E-03    1.47      10.6  T
   4    -84.4058645 -0.343738E-08  0.713E-04    1.47      21.6  T
   5    -84.4058645 -0.220510E-08  0.126E-04    1.47     122.7  T
   6    -84.4058645 -0.339426E-09  0.542E-05    1.47     284.6  T
     SCC iter.                  ...        0 min,  0.024 sec
     gradient                   ...        0 min,  0.078 sec
 * total energy  :   -83.6704522 Eh     change       -0.2851499E-04 Eh
   gradient norm :     0.0009817 Eh/α   predicted    -0.1158949E-04 ( -59.36%)
   displ. norm   :     0.2098501 α      lambda       -0.2248683E-04
   maximum displ.:     0.1475413 α      in ANC's #2, #1, #9, ...

........................................................................
.............................. CYCLE   32 ..............................
........................................................................
   1    -84.4056766 -0.844057E+02  0.657E-03    1.48       0.0  T
   2    -84.4056783 -0.167300E-05  0.483E-03    1.48       3.2  T
   3    -84.4056793 -0.102572E-05  0.182E-03    1.48       8.5  T
   4    -84.4056793 -0.392819E-08  0.843E-04    1.48      18.3  T
   5    -84.4056793 -0.271612E-08  0.117E-04    1.48     132.3  T
   6    -84.4056793 -0.233342E-09  0.481E-05    1.48     320.9  T
     SCC iter.                  ...        0 min,  0.024 sec
     gradient                   ...        0 min,  0.078 sec
 * total energy  :   -83.6704797 Eh     change       -0.2759183E-04 Eh
   gradient norm :     0.0011607 Eh/α   predicted    -0.1146708E-04 ( -58.44%)
   displ. norm   :     0.2100173 α      lambda       -0.1832208E-04
   maximum displ.:     0.1479958 α      in ANC's #2, #1, #9, ...

........................................................................
.............................. CYCLE   33 ..............................
........................................................................
   1    -84.4055088 -0.844055E+02  0.521E-03    1.48       0.0  T
   2    -84.4055099 -0.119200E-05  0.384E-03    1.48       4.0  T
   3    -84.4055105 -0.596494E-06  0.156E-03    1.48       9.9  T
   4    -84.4055105 -0.112688E-08  0.814E-04    1.49      19.0  T
   5    -84.4055105 -0.313921E-08  0.927E-05    1.49     166.5  T
   6    -84.4055105 -0.154444E-09  0.375E-05    1.49     411.2  T
     SCC iter.                  ...        0 min,  0.024 sec
     gradient                   ...        0 min,  0.077 sec
 * total energy  :   -83.6705025 Eh     change       -0.2274543E-04 Eh
   gradient norm :     0.0012629 Eh/α   predicted    -0.9342852E-05 ( -58.92%)
   displ. norm   :     0.1950854 α      lambda       -0.1573099E-04
   maximum displ.:     0.1374307 α      in ANC's #2, #1, #9, ...

........................................................................
.............................. CYCLE   34 ..............................
........................................................................
   1    -84.4053531 -0.844054E+02  0.321E-03    1.48       0.0  T
   2    -84.4053536 -0.520267E-06  0.235E-03    1.49       6.6  T
   3    -84.4053538 -0.196741E-06  0.100E-03    1.49      15.4  T
   4    -84.4053538  0.327660E-09  0.597E-04    1.49      25.8  T
   5    -84.4053538 -0.246020E-08  0.673E-05    1.49     229.2  T
   6    -84.4053538 -0.655547E-10  0.241E-05    1.49     640.0  T
     SCC iter.                  ...        0 min,  0.024 sec
     gradient                   ...        0 min,  0.079 sec
 * total energy  :   -83.6705228 Eh     change       -0.2035590E-04 Eh
   gradient norm :     0.0012571 Eh/α   predicted    -0.7999537E-05 ( -60.70%)
   displ. norm   :     0.2378185 α      lambda       -0.1920765E-04
   maximum displ.:     0.1666592 α      in ANC's #2, #1, #9, ...

........................................................................
.............................. CYCLE   35 ..............................
........................................................................
   1    -84.4052913 -0.844053E+02  0.227E-03    1.49       0.0  T
   2    -84.4052916 -0.262418E-06  0.130E-03    1.49      11.8  T
   3    -84.4052916 -0.376789E-07  0.635E-04    1.48      24.3  T
   4    -84.4052916 -0.115173E-08  0.430E-04    1.48      35.9  T
   5    -84.4052916 -0.244349E-08  0.783E-05    1.48     197.0  T
   6    -84.4052916 -0.104180E-09  0.261E-05    1.48     591.3  T
     SCC iter.                  ...        0 min,  0.032 sec
     gradient                   ...        0 min,  0.089 sec
 * total energy  :   -83.6705478 Eh     change       -0.2494071E-04 Eh
   gradient norm :     0.0012082 Eh/α   predicted    -0.9849968E-05 ( -60.51%)
   displ. norm   :     0.3518551 α      lambda       -0.2643645E-04
   maximum displ.:     0.2456863 α      in ANC's #2, #1, #9, ...

........................................................................
.............................. CYCLE   36 ..............................
........................................................................
   1    -84.4047894 -0.844048E+02  0.247E-03    1.48       0.0  T
   2    -84.4047895 -0.177489E-06  0.103E-03    1.48      15.0  T
   3    -84.4047895 -0.146238E-07  0.619E-04    1.48      24.9  T
   4    -84.4047895 -0.154481E-08  0.248E-04    1.48      62.3  T
   5    -84.4047896 -0.151066E-08  0.997E-05    1.48     154.7  T
   6    -84.4047896 -0.243432E-09  0.264E-05    1.48     585.2  T
     SCC iter.                  ...        0 min,  0.024 sec
     gradient                   ...        0 min,  0.078 sec
 * total energy  :   -83.6705783 Eh     change       -0.3050177E-04 Eh
   gradient norm :     0.0018572 Eh/α   predicted    -0.1394761E-04 ( -54.27%)
   displ. norm   :     0.3952588 α      lambda       -0.2246420E-04
   maximum displ.:     0.2763081 α      in ANC's #2, #1, #9, ...

........................................................................
.............................. CYCLE   37 ..............................
........................................................................
   1    -84.4047813 -0.844048E+02  0.270E-03    1.48       0.0  T
   2    -84.4047815 -0.252885E-06  0.133E-03    1.48      11.6  T
   3    -84.4047816 -0.648060E-07  0.642E-04    1.48      24.0  T
   4    -84.4047816 -0.485041E-08  0.288E-04    1.48      53.6  T
   5    -84.4047816 -0.101566E-08  0.919E-05    1.48     167.8  T
   6    -84.4047816 -0.140574E-09  0.324E-05    1.48     476.4  T
     SCC iter.                  ...        0 min,  0.024 sec
     gradient                   ...        0 min,  0.077 sec
 * total energy  :   -83.6705952 Eh     change       -0.1692037E-04 Eh
   gradient norm :     0.0017723 Eh/α   predicted    -0.1201641E-04 ( -28.98%)
   displ. norm   :     0.0338735 α      lambda       -0.7243274E-05
   maximum displ.:     0.0167236 α      in ANC's #2, #1, #8, ...

........................................................................
.............................. CYCLE   38 ..............................
........................................................................
   1    -84.4056793 -0.844057E+02  0.233E-03    1.48       0.0  T
   2    -84.4056795 -0.204912E-06  0.113E-03    1.48      13.7  T
   3    -84.4056795 -0.955612E-08  0.653E-04    1.48      23.6  T
   4    -84.4056795  0.104573E-08  0.306E-04    1.48      50.5  T
   5    -84.4056795 -0.283151E-08  0.647E-05    1.48     238.5  T
   6    -84.4056795 -0.158110E-09  0.177E-05    1.48     870.6  T
     SCC iter.                  ...        0 min,  0.024 sec
     gradient                   ...        0 min,  0.077 sec
 * total energy  :   -83.6706024 Eh     change       -0.7230960E-05 Eh
   gradient norm :     0.0012006 Eh/α   predicted    -0.3626455E-05 ( -49.85%)
   displ. norm   :     0.0829353 α      lambda       -0.7913884E-05
   maximum displ.:     0.0489492 α      in ANC's #2, #1, #8, ...

........................................................................
.............................. CYCLE   39 ..............................
........................................................................
   1    -84.4058309 -0.844058E+02  0.235E-03    1.48       0.0  T
   2    -84.4058311 -0.202659E-06  0.113E-03    1.48      13.6  T
   3    -84.4058311 -0.708887E-08  0.623E-04    1.48      24.8  T
   4    -84.4058311 -0.173458E-09  0.221E-04    1.48      69.7  T
   5    -84.4058311 -0.557492E-09  0.655E-05    1.48     235.5  T
   6    -84.4058311 -0.162672E-09  0.251E-05    1.48     614.2  T
     SCC iter.                  ...        0 min,  0.024 sec
     gradient                   ...        0 min,  0.078 sec
 * total energy  :   -83.6706097 Eh     change       -0.7299772E-05 Eh
   gradient norm :     0.0010076 Eh/α   predicted    -0.3972372E-05 ( -45.58%)
   displ. norm   :     0.0504135 α      lambda       -0.4675551E-05
   maximum displ.:     0.0210300 α      in ANC's #8, #2, #3, ...

........................................................................
.............................. CYCLE   40 ..............................
........................................................................
   1    -84.4060492 -0.844060E+02  0.213E-03    1.49       0.0  T
   2    -84.4060493 -0.151752E-06  0.105E-03    1.49      14.7  T
   3    -84.4060493 -0.994500E-08  0.541E-04    1.49      28.5  T
   4    -84.4060493 -0.722935E-09  0.238E-04    1.49      64.7  T
   5    -84.4060493 -0.641379E-09  0.868E-05    1.49     177.7  T
   6    -84.4060493 -0.313150E-09  0.226E-05    1.49     682.6  T
     SCC iter.                  ...        0 min,  0.024 sec
     gradient                   ...        0 min,  0.078 sec
 * total energy  :   -83.6706130 Eh     change       -0.3259186E-05 Eh
   gradient norm :     0.0009238 Eh/α   predicted    -0.2341413E-05 ( -28.16%)
   displ. norm   :     0.0475090 α      lambda       -0.2037606E-05
   maximum displ.:     0.0302511 α      in ANC's #2, #1, #8, ...

   *** GEOMETRY OPTIMIZATION CONVERGED AFTER 40 ITERATIONS ***

------------------------------------------------------------------------
 total energy gain   :        -0.0153581 Eh       -9.6373 kcal/mol
 total RMSD          :         0.8669865 a0        0.4588 Å
 total power (kW/mol):        -1.0080639 (step)   -6.6483 (real)
------------------------------------------------------------------------

 ANCopt (total)                0 d,  0 h,  0 min,  6.065 sec
 optimizer setup                ...        0 min,  0.001 sec (  0.018%)
 model hessian                  ...        0 min,  0.053 sec (  0.877%)
 ANC generation                 ...        0 min,  0.005 sec (  0.087%)
 coordinate transformation      ...        0 min,  0.002 sec (  0.040%)
 single point calculation       ...        0 min,  5.977 sec ( 98.539%)
 optimization log               ...        0 min,  0.013 sec (  0.221%)
 hessian update                 ...        0 min,  0.002 sec (  0.030%)
 rational function              ...        0 min,  0.007 sec (  0.109%)

================
 final structure:
================
42
 xtb: 6.5.1 (579679a)
C           -6.01646720705417       -1.49994964471791       -1.12961206711396
O           -4.84772389193643       -0.90521879106711       -0.59060667747898
C           -4.89351171732310       -0.61936756122867        0.75209082622479
O           -5.90100226614351       -0.87931934871001        1.39594339744258
C           -3.66764688378028       -0.01590722421272        1.23516024504796
N           -2.68352747905618        0.17210415974674        0.27852105887418
C           -1.55739105282681        0.70026991413551        0.59734359926860
C           -0.49273484112720        0.93171628884274       -0.46856875297945
C           -0.95524513449326        0.26405612091060       -1.76795984421322
C           -0.32585022136943        2.44302538628235       -0.70966240188848
N            0.77095990411664        0.29259137985779       -0.09016922532923
C            1.71617805109424        0.88240795541341        0.75734885440336
O            1.40426259314435        1.75850381793042        1.60094853908335
C            3.01577532315571        0.35449167164435        0.62032980472059
N            4.09113849695445        0.67890320061564        1.32622738831290
N            5.13163200987603        0.01134716434037        0.93408322653350
C            4.71002500573674       -0.86712336379748       -0.16861643498446
C            4.94863561931374       -2.33628465737836        0.21733674137758
C            5.48691423268142       -0.50560864529188       -1.44489032082799
O            3.32185719699120       -0.62462612500195       -0.34985606488316
N           -1.28339550788900        1.10273915876929        1.88128793042496
C           -2.15364145625828        0.97875666957394        2.92309198377267
O           -1.83385620674642        1.36167310163301        4.05128712990384
C           -3.49332153288360        0.35612385321363        2.59418010277011
O           -4.32983443439693        0.21286754999036        3.50851043332142
H           -6.23169203903407       -2.45499792378163       -0.63896856565503
H           -6.88225669504127       -0.84082651834457       -1.00875342450270
H           -5.83121032489738       -1.66796752329387       -2.18938870895638
H           -1.91616704517538        0.67533296310847       -2.07493958543855
H           -0.22861043598222        0.43819500538764       -2.55932472375231
H           -1.07125766138965       -0.80933315056002       -1.62006886196580
H           -1.26406071729512        2.85265975816097       -1.08209949604173
H            0.45195741478957        2.61523998917717       -1.45210427260101
H           -0.05791939795454        2.96304818913896        0.20861756710227
H            1.19186783759719       -0.22342030524682       -0.85021322084361
H            6.00967813576553       -2.50052871004011        0.39260209920746
H            4.39738044036098       -2.56579972307071        1.12817320051650
H            4.60887340238265       -2.99461807050823       -0.58010739065605
H            6.55380552238066       -0.63191033302272       -1.27221170588031
H            5.28905348447920        0.53297007440740       -1.70495128264356
H            5.17738435864034       -1.14407583174085       -2.26999196786335
H           -0.35905587941124        1.50785807873212        2.06154086818745
 
 Bond Distances (Angstroems)
 ---------------------------
C1-O2=1.4178         C1-H26=1.0951        C1-H27=1.0948        C1-H28=1.0889        O2-C1=1.4178         O2-C3=1.3736         
C3-O2=1.3736         C3-O4=1.2236         C3-C5=1.4492         O4-C3=1.2236         C5-C3=1.4492         C5-N6=1.3853         
C5-C24=1.4198        N6-C5=1.3853         N6-C7=1.2841         C7-N6=1.2841         C7-C8=1.5242         C7-N21=1.3732        
C8-C7=1.5242         C8-C9=1.5324         C8-C10=1.5395        C8-N11=1.4658        C9-C8=1.5324         C9-H29=1.0894        
C9-H30=1.0884        C9-H31=1.0897        C10-C8=1.5395        C10-H32=1.0894       C10-H33=1.0890       C10-H34=1.0888       
N11-C8=1.4658        N11-C12=1.3999       N11-H35=1.0105       C12-N11=1.3999       C12-O13=1.2556       C12-C14=1.4094       
O13-C12=1.2556       C14-C12=1.4094       C14-N15=1.3266       C14-O20=1.4120       N15-C14=1.3266       N15-N16=1.2969       
N16-N15=1.2969       N16-C17=1.4715       C17-N16=1.4715       C17-C18=1.5376       C17-C19=1.5372       C17-O20=1.4208       
C18-C17=1.5376       C18-H36=1.0879       C18-H37=1.0891       C18-H38=1.0885       C19-C17=1.5372       C19-H39=1.0881       
C19-H40=1.0888       C19-H41=1.0882       O20-C14=1.4120       O20-C17=1.4208       N21-C7=1.3732        N21-C22=1.3631       
N21-H42=1.0252       C22-N21=1.3631       C22-O23=1.2336       C22-C24=1.5135       O23-C22=1.2336       C24-C5=1.4198        
C24-C22=1.5135       C24-O25=1.2475       O25-C24=1.2475       H26-C1=1.0951        H27-C1=1.0948        H28-C1=1.0889        
H29-C9=1.0894        H30-C9=1.0884        H31-C9=1.0897        H32-C10=1.0894       H33-C10=1.0890       H34-C10=1.0888       
H35-N11=1.0105       H36-C18=1.0879       H37-C18=1.0891       H38-C18=1.0885       H39-C19=1.0881       H40-C19=1.0888       
H41-C19=1.0882       H42-N21=1.0252       
 C  H  Rav=1.0896 sigma=0.0022  Rmin=1.0879  Rmax=1.0951    15
 C  C  Rav=1.4959 sigma=0.0508  Rmin=1.4094  Rmax=1.5395     9
 N  H  Rav=1.0178 sigma=0.0073  Rmin=1.0105  Rmax=1.0252     2
 N  C  Rav=1.3837 sigma=0.0596  Rmin=1.2841  Rmax=1.4715     8
 N  N  Rav=1.2969 sigma=0.0000  Rmin=1.2969  Rmax=1.2969     1
 O  C  Rav=1.3230 sigma=0.0845  Rmin=1.2236  Rmax=1.4208     8
 
 selected bond angles (degree)
 --------------------
H26-C1-O2=110.95               H27-C1-O2=110.94               H27-C1-H26=108.67              H28-C1-O2=107.13               
H28-C1-H26=109.57              H28-C1-H27=109.57              C3-O2-C1=115.56                O4-C3-O2=119.84                
C5-C3-O2=112.60                C5-C3-O4=127.56                N6-C5-C3=115.29                C24-C5-C3=122.14               
C24-C5-N6=122.56               C7-N6-C5=120.49                C8-C7-N6=120.09                N21-C7-N6=121.85               
N21-C7-C8=118.03               C9-C8-C7=108.42                C10-C8-C7=109.53               C10-C8-C9=109.13               
N11-C8-C7=110.82               N11-C8-C9=106.81               N11-C8-C10=112.03              H29-C9-C8=109.92               
H30-C9-C8=110.20               H30-C9-H29=108.88              H31-C9-C8=110.26               H31-C9-H29=108.43              
H31-C9-H30=109.11              H32-C10-C8=109.23              H33-C10-C8=109.84              H33-C10-H32=108.82             
H34-C10-C8=111.31              H34-C10-H32=108.70             H34-C10-H33=108.89             
 
 selected dihedral angles (degree)
 ---------------------------------
C3-O2-C1-H26=299.69           C3-O2-C1-H27= 60.59           C3-O2-C1-H28=180.13           O4-C3-O2-C1=359.93            
C5-C3-O2-C1=179.93            N6-C5-C3-O2=  0.34            N6-C5-C3-O4=180.35            C24-C5-C3-O2=180.27           
C24-C5-C3-O4=  0.27           C7-N6-C5-C3=179.94            C7-N6-C5-C24=  0.00           C8-C7-N6-C5=181.38            
N21-C7-N6-C5=359.70           C9-C8-C7-N6=352.03            C9-C8-C7-N21=173.64           C10-C8-C7-N6=111.01           
C10-C8-C7-N21=292.63          N11-C8-C7-N6=235.11           N11-C8-C7-N21= 56.72          H29-C9-C8-C7= 58.25           
H29-C9-C8-C10=299.01          H29-C9-C8-N11=177.72          H30-C9-C8-C7=178.26           H30-C9-C8-C10= 59.02          
H30-C9-C8-N11=297.72          H31-C9-C8-C7=298.76           H31-C9-C8-C10=179.52          H31-C9-C8-N11= 58.23          
H32-C10-C8-C7=297.83          H32-C10-C8-C9= 56.38          H32-C10-C8-N11=174.44         H33-C10-C8-C7=178.55          
H33-C10-C8-C9=297.10          H33-C10-C8-N11= 55.16         H34-C10-C8-C7= 57.87          H34-C10-C8-C9=176.42          
H34-C10-C8-N11=294.48         
           -------------------------------------------------
          |                Final Singlepoint                |
           -------------------------------------------------

          ...................................................
          :                      SETUP                      :
          :.................................................:
          :  # basis functions                 134          :
          :  # atomic orbitals                 134          :
          :  # shells                           84          :
          :  # electrons                       136          :
          :  # halogen bonds                     0          :
          :  max. iterations                   250          :
          :  Hamiltonian                  GFN1-xTB          :
          :  restarted?                      false          :
          :  GBSA solvation                   true          :
          :  PC potential                    false          :
          :  electronic temp.          300.0000000     K    :
          :  accuracy                    1.0000000          :
          :  -> integral cutoff          0.2500000E+02      :
          :  -> integral neglect         0.1000000E-07      :
          :  -> SCF convergence          0.1000000E-05 Eh   :
          :  -> wf. convergence          0.2000000E-04 e    :
          :  Broyden damping             0.4000000          :
          ...................................................

 iter      E             dE          RMSdq      gap      omega  full diag
   1    -84.4060493 -0.844060E+02  0.728E-06    1.49       0.0  T
   2    -84.4060493 -0.125056E-11  0.346E-06    1.49    4454.0  T
   3    -84.4060493 -0.369482E-12  0.174E-06    1.49    8865.6  T

   *** convergence criteria satisfied after 3 iterations ***

         #    Occupation            Energy/Eh            Energy/eV
      -------------------------------------------------------------
         1        2.0000           -0.7894816             -21.4829
       ...           ...                  ...                  ...
        62        2.0000           -0.4053846             -11.0311
        63        2.0000           -0.3981283             -10.8336
        64        2.0000           -0.3885532             -10.5731
        65        2.0000           -0.3663988              -9.9702
        66        2.0000           -0.3634647              -9.8904
        67        2.0000           -0.3521801              -9.5833
        68        2.0000           -0.3124044              -8.5010 (HOMO)
        69                         -0.2577757              -7.0144 (LUMO)
        70                         -0.2348003              -6.3892
        71                         -0.2217280              -6.0335
        72                         -0.1841773              -5.0117
        73                         -0.1225129              -3.3337
       ...                                ...                  ...
       134                          0.7708156              20.9750
      -------------------------------------------------------------
                  HL-Gap            0.0546287 Eh            1.4865 eV
             Fermi-level           -0.2850901 Eh           -7.7577 eV

 SCC (total)                   0 d,  0 h,  0 min,  0.130 sec
 SCC setup                      ...        0 min,  0.002 sec (  1.562%)
 Dispersion                     ...        0 min,  0.000 sec (  0.289%)
 classical contributions        ...        0 min,  0.000 sec (  0.090%)
 integral evaluation            ...        0 min,  0.035 sec ( 26.861%)
 iterations                     ...        0 min,  0.013 sec (  9.939%)
 molecular gradient             ...        0 min,  0.079 sec ( 60.429%)
 printout                       ...        0 min,  0.001 sec (  0.779%)

         :::::::::::::::::::::::::::::::::::::::::::::::::::::
         ::                     SUMMARY                     ::
         :::::::::::::::::::::::::::::::::::::::::::::::::::::
         :: total energy             -83.670612999703 Eh    ::
         :: total w/o Gsasa/hb       -83.651427202974 Eh    ::
         :: gradient norm              0.000924033104 Eh/a0 ::
         :: HOMO-LUMO gap              1.486521626293 eV    ::
         ::.................................................::
         :: SCC energy               -84.406049324807 Eh    ::
         :: -> electrostatic           0.672030490432 Eh    ::
         :: -> Gsolv                  -0.262885771161 Eh    ::
         ::    -> Gelec               -0.243699974432 Eh    ::
         ::    -> Gsasa               -0.024715300989 Eh    ::
         ::    -> Ghb                 -0.002094774745 Eh    ::
         ::    -> Gshift               0.007624279005 Eh    ::
         :: repulsion energy           0.761122942369 Eh    ::
         :: dispersion energy         -0.025686617265 Eh    ::
         :: halogen bond corr.         0.000000000000 Eh    ::
         :: add. restraining           0.000000000000 Eh    ::
         :: total charge              -2.000000000000 e     ::
         :::::::::::::::::::::::::::::::::::::::::::::::::::::

           -------------------------------------------------
          |                Property Printout                |
           -------------------------------------------------

    * Orbital Energies and Occupations

         #    Occupation            Energy/Eh            Energy/eV
      -------------------------------------------------------------
         1        2.0000           -0.7894816             -21.4829
       ...           ...                  ...                  ...
        56        2.0000           -0.4438540             -12.0779
        57        2.0000           -0.4407787             -11.9942
        58        2.0000           -0.4309005             -11.7254
        59        2.0000           -0.4287448             -11.6667
        60        2.0000           -0.4218108             -11.4781
        61        2.0000           -0.4104219             -11.1681
        62        2.0000           -0.4053846             -11.0311
        63        2.0000           -0.3981283             -10.8336
        64        2.0000           -0.3885532             -10.5731
        65        2.0000           -0.3663988              -9.9702
        66        2.0000           -0.3634647              -9.8904
        67        2.0000           -0.3521801              -9.5833
        68        2.0000           -0.3124044              -8.5010 (HOMO)
        69                         -0.2577757              -7.0144 (LUMO)
        70                         -0.2348003              -6.3892
        71                         -0.2217280              -6.0335
        72                         -0.1841773              -5.0117
        73                         -0.1225129              -3.3337
        74                         -0.1186283              -3.2280
        75                         -0.1034497              -2.8150
        76                         -0.1015558              -2.7635
        77                         -0.1001056              -2.7240
        78                         -0.0954772              -2.5981
        79                         -0.0948015              -2.5797
       ...                                ...                  ...
       134                          0.7708156              20.9750
      -------------------------------------------------------------
                  HL-Gap            0.0546287 Eh            1.4865 eV
             Fermi-level           -0.2850901 Eh           -7.7577 eV

  Mulliken/CM5 charges         n(s)   n(p)   n(d)
     1C     0.17431  0.05512   0.969  2.857  0.000
     2O    -0.45046 -0.53063   1.694  4.757  0.000
     3C     0.53991  0.60350   0.980  2.480  0.000
     4O    -0.61996 -0.66477   1.734  4.886  0.000
     5C    -0.02498  0.05039   1.037  2.988  0.000
     6N    -0.40420 -0.58871   1.536  3.868  0.000
     7C     0.24673  0.39846   1.009  2.745  0.000
     8C     0.15419  0.19369   1.061  2.785  0.000
     9C    -0.09426 -0.23337   1.015  3.079  0.000
    10C    -0.10059 -0.24061   1.016  3.084  0.000
    11N    -0.40149 -0.74393   1.447  3.955  0.000
    12C     0.40028  0.49760   0.984  2.615  0.000
    13O    -0.67520 -0.73209   1.740  4.935  0.000
    14C     0.21955  0.33447   0.984  2.796  0.000
    15N    -0.24125 -0.33917   1.558  3.683  0.000
    16N    -0.39708 -0.48601   1.598  3.800  0.000
    17C     0.35177  0.41546   1.029  2.619  0.000
    18C    -0.10990 -0.24838   1.016  3.093  0.000
    19C    -0.11055 -0.24907   1.017  3.094  0.000
    20O    -0.49607 -0.55478   1.718  4.778  0.000
    21N    -0.31240 -0.65073   1.441  3.872  0.000
    22C     0.41881  0.52362   1.009  2.573  0.000
    23O    -0.62993 -0.66658   1.739  4.891  0.000
    24C     0.28138  0.32648   1.035  2.684  0.000
    25O    -0.64580 -0.68346   1.746  4.900  0.000
    26H     0.02969  0.09135   0.970  0.000  0.000
    27H     0.02973  0.09141   0.970  0.000  0.000
    28H     0.02964  0.08999   0.970  0.000  0.000
    29H     0.03052  0.08873   0.969  0.000  0.000
    30H     0.03123  0.08691   0.969  0.000  0.000
    31H     0.03354  0.09227   0.966  0.000  0.000
    32H     0.02370  0.07834   0.976  0.000  0.000
    33H     0.03281  0.08875   0.967  0.000  0.000
    34H     0.04512  0.10792   0.955  0.000  0.000
    35H     0.22422  0.42949   0.776  0.000  0.000
    36H     0.02068  0.07618   0.979  0.000  0.000
    37H     0.02828  0.08597   0.972  0.000  0.000
    38H     0.02488  0.07972   0.975  0.000  0.000
    39H     0.02080  0.07634   0.979  0.000  0.000
    40H     0.02995  0.08773   0.970  0.000  0.000
    41H     0.02515  0.07995   0.975  0.000  0.000
    42H     0.26725  0.48245   0.733  0.000  0.000

Wiberg/Mayer (AO) data.
largest (>0.10) Wiberg bond orders for each atom

 ---------------------------------------------------------------------------
     #   Z sym  total        # sym  WBO       # sym  WBO       # sym  WBO
 ---------------------------------------------------------------------------
     1   6 C    3.904 --    28 H    0.987    27 H    0.980    26 H    0.980
                             2 O    0.932
     2   8 O    2.131 --     3 C    1.015     1 C    0.932     4 O    0.105
     3   6 C    3.848 --     4 O    1.581     5 C    1.132     2 O    1.015
     4   8 O    1.859 --     3 C    1.581     2 O    0.105
     5   6 C    3.918 --    24 C    1.271     6 N    1.147     3 C    1.132
                            25 O    0.128
     6   7 N    3.022 --     7 C    1.626     5 C    1.147
     7   6 C    3.933 --     6 N    1.626    21 N    1.117     8 C    0.971
     8   6 C    3.957 --     9 C    1.001    10 C    0.981     7 C    0.971
                            11 N    0.944
     9   6 C    3.996 --     8 C    1.001    30 H    0.987    31 H    0.985
                            29 H    0.984
    10   6 C    3.992 --    32 H    0.987    33 H    0.986     8 C    0.981
                            34 H    0.980
    11   7 N    3.190 --    12 C    1.086     8 C    0.944    35 H    0.916
    12   6 C    3.924 --    13 O    1.414    14 C    1.239    11 N    1.086
    13   8 O    1.808 --    12 C    1.414
    14   6 C    3.843 --    15 N    1.391    12 C    1.239    20 O    0.922
                            16 N    0.154
    15   7 N    3.025 --    16 N    1.477    14 C    1.391
    16   7 N    2.881 --    15 N    1.477    17 C    0.981    14 C    0.154
    17   6 C    3.899 --    16 N    0.981    19 C    0.978    18 C    0.978
                            20 O    0.923
    18   6 C    3.994 --    36 H    0.988    38 H    0.987    37 H    0.986
                            17 C    0.978
    19   6 C    3.994 --    39 H    0.988    41 H    0.987    40 H    0.985
                            17 C    0.978
    20   8 O    2.052 --    17 C    0.923    14 C    0.922
    21   7 N    3.447 --    22 C    1.189     7 C    1.117    42 H    0.845
                            23 O    0.137
    22   6 C    3.886 --    23 O    1.555    21 N    1.189    24 C    0.971
    23   8 O    1.833 --    22 C    1.555    21 N    0.137
    24   6 C    3.943 --    25 O    1.511     5 C    1.271    22 C    0.971
    25   8 O    1.813 --    24 C    1.511     5 C    0.128
    26   1 H    1.015 --     1 C    0.980
    27   1 H    1.015 --     1 C    0.980
    28   1 H    1.017 --     1 C    0.987
    29   1 H    1.017 --     9 C    0.984
    30   1 H    1.003 --     9 C    0.987
    31   1 H    1.011 --     9 C    0.985
    32   1 H    1.006 --    10 C    0.987
    33   1 H    1.004 --    10 C    0.986
    34   1 H    1.018 --    10 C    0.980
    35   1 H    0.966 --    11 N    0.916
    36   1 H    1.010 --    18 C    0.988
    37   1 H    1.015 --    18 C    0.986
    38   1 H    1.008 --    18 C    0.987
    39   1 H    1.011 --    19 C    0.988
    40   1 H    1.014 --    19 C    0.985
    41   1 H    1.008 --    19 C    0.987
    42   1 H    0.952 --    21 N    0.845
 ---------------------------------------------------------------------------

Topologies differ in total number of bonds
Writing topology from bond orders to xtbtopo.mol

 dipole moment from electron density (au)
     X       Y       Z   
   3.3403  -2.0858 -10.1587  total (Debye):   27.693

           -------------------------------------------------
          |                Geometry Summary                 |
           -------------------------------------------------

      molecular mass/u    :      351.3152409
   center of mass at/Å    :       -0.4122246       0.1563641       0.7030745
  moments of inertia/u·Å² :        0.1160595E+04   0.5053938E+04   0.5564616E+04
rotational constants/cm⁻¹ :        0.1452500E-01   0.3335544E-02   0.3029433E-02

 * 35 selected distances

     #   Z          #   Z                                           value/Å
     1   6 C        2   8 O                                       1.4178127
     2   8 O        3   6 C                                       1.3735517
     3   6 C        4   8 O                                       1.2235843
     6   7 N        7   6 C                                       1.2840523
     8   6 C        9   6 C                                       1.5323523
     8   6 C       10   6 C                                       1.5394909 (max)
     8   6 C       11   7 N                                       1.4658075
    11   7 N       12   6 C                                       1.3998601
    12   6 C       14   6 C                                       1.4094053
    14   6 C       15   7 N                                       1.3266275
    15   7 N       16   7 N                                       1.2969330
    17   6 C       18   6 C                                       1.5376379
    17   6 C       19   6 C                                       1.5372460
    17   6 C       20   8 O                                       1.4207966
     7   6 C       21   7 N                                       1.3731600
    21   7 N       22   6 C                                       1.3631052
    22   6 C       23   8 O                                       1.2335770
     5   6 C       24   6 C                                       1.4197647
     1   6 C       26   1 H                                       1.0950663
     1   6 C       27   1 H                                       1.0948250
     1   6 C       28   1 H                                       1.0888879
     9   6 C       29   1 H                                       1.0893835
     9   6 C       30   1 H                                       1.0883845
     9   6 C       31   1 H                                       1.0897226
    10   6 C       32   1 H                                       1.0893800
    10   6 C       33   1 H                                       1.0889733
    10   6 C       34   1 H                                       1.0887832
    11   7 N       35   1 H                                       1.0104942 (min)
    18   6 C       36   1 H                                       1.0878904
    18   6 C       37   1 H                                       1.0891202
    18   6 C       38   1 H                                       1.0884662
    19   6 C       39   1 H                                       1.0881302
    19   6 C       40   1 H                                       1.0887730
    19   6 C       41   1 H                                       1.0882289
    21   7 N       42   1 H                                       1.0251909

 * 6 distinct bonds (by element types)

   Z      Z             #   av. dist./Å        max./Å        min./Å
   1 H    6 C          15     1.0896010     1.0950663     1.0878904
   6 C    6 C           6     1.4959828     1.5394909     1.4094053
   1 H    7 N           2     1.0178426     1.0251909     1.0104942
   6 C    7 N           6     1.3687688     1.4658075     1.2840523
   7 N    7 N           1     1.2969330     1.2969330     1.2969330
   6 C    8 O           5     1.3338645     1.4207966     1.2235843


optimized geometry written to: xtbopt.xyz


           -------------------------------------------------
          | TOTAL ENERGY              -83.670612999703 Eh   |
          | GRADIENT NORM               0.000924033104 Eh/α |
          | HOMO-LUMO GAP               1.486521626293 eV   |
           -------------------------------------------------

------------------------------------------------------------------------
 * finished run on 2023/06/21 at 17:22:35.885     
------------------------------------------------------------------------
 total:
 * wall-time:     0 d,  0 h,  0 min,  6.473 sec
 *  cpu-time:     0 d,  0 h,  0 min,  6.304 sec
 * ratio c/w:     0.974 speedup
 SCF:
 * wall-time:     0 d,  0 h,  0 min,  0.177 sec
 *  cpu-time:     0 d,  0 h,  0 min,  0.175 sec
 * ratio c/w:     0.990 speedup
 ANC optimizer:
 * wall-time:     0 d,  0 h,  0 min,  6.204 sec
 *  cpu-time:     0 d,  0 h,  0 min,  6.077 sec
 * ratio c/w:     0.980 speedup

