      -----------------------------------------------------------      
     |                   =====================                   |     
     |                           x T B                           |     
     |                   =====================                   |     
     |                         S. Grimme                         |     
     |          Mulliken Center for Theoretical Chemistry        |     
     |                    University of Bonn                     |     
      -----------------------------------------------------------      

   * xtb version 6.5.1 (579679a) compiled by 'ehlert@majestix' on 2022-07-11

   xtb is free software: you can redistribute it and/or modify it under
   the terms of the GNU Lesser General Public License as published by
   the Free Software Foundation, either version 3 of the License, or
   (at your option) any later version.
   
   xtb is distributed in the hope that it will be useful,
   but WITHOUT ANY WARRANTY; without even the implied warranty of
   MERCHANTABILITY or FITNESS FOR A PARTICULAR PURPOSE.  See the
   GNU Lesser General Public License for more details.
   
   Cite this work as:
   * C. Bannwarth, E. Caldeweyher, S. Ehlert, A. Hansen, P. Pracht,
     J. Seibert, S. Spicher, S. Grimme, WIREs Comput. Mol. Sci., 2020, 11,
     e01493. DOI: 10.1002/wcms.1493
   
   for GFN2-xTB:
   * C. Bannwarth, S. Ehlert and S. Grimme., J. Chem. Theory Comput., 2019,
     15, 1652-1671. DOI: 10.1021/acs.jctc.8b01176
   for GFN1-xTB:
   * S. Grimme, C. Bannwarth, P. Shushkov, J. Chem. Theory Comput., 2017,
     13, 1989-2009. DOI: 10.1021/acs.jctc.7b00118
   for GFN0-xTB:
   * P. Pracht, E. Caldeweyher, S. Ehlert, S. Grimme, ChemRxiv, 2019, preprint.
     DOI: 10.26434/chemrxiv.8326202.v1
   for GFN-FF:
   * S. Spicher and S. Grimme, Angew. Chem. Int. Ed., 2020, 59, 15665-15673.
     DOI: 10.1002/anie.202004239
   
   for ALPB and GBSA implicit solvation:
   * S. Ehlert, M. Stahn, S. Spicher, S. Grimme, J. Chem. Theory Comput.,
     2021, 17, 4250-4261. DOI: 10.1021/acs.jctc.1c00471
   
   for DFT-D4:
   * E. Caldeweyher, C. Bannwarth and S. Grimme, J. Chem. Phys., 2017,
     147, 034112. DOI: 10.1063/1.4993215
   * E. Caldeweyher, S. Ehlert, A. Hansen, H. Neugebauer, S. Spicher,
     C. Bannwarth and S. Grimme, J. Chem. Phys., 2019, 150, 154122.
     DOI: 10.1063/1.5090222
   * E. Caldeweyher, J.-M. Mewes, S. Ehlert and S. Grimme, Phys. Chem. Chem. Phys.
     2020, 22, 8499-8512. DOI: 10.1039/D0CP00502A
   
   for sTDA-xTB:
   * S. Grimme and C. Bannwarth, J. Chem. Phys., 2016, 145, 054103.
     DOI: 10.1063/1.4959605
   
   in the mass-spec context:
   * V. Asgeirsson, C. Bauer and S. Grimme, Chem. Sci., 2017, 8, 4879.
     DOI: 10.1039/c7sc00601b
   * J. Koopman and S. Grimme, ACS Omega 2019, 4, 12, 15120-15133.
     DOI: 10.1021/acsomega.9b02011
   
   for metadynamics refer to:
   * S. Grimme, J. Chem. Theory Comput., 2019, 155, 2847-2862
     DOI: 10.1021/acs.jctc.9b00143
   
   for SPH calculations refer to:
   * S. Spicher and S. Grimme, J. Chem. Theory Comput., 2021, 17, 1701-1714
     DOI: 10.1021/acs.jctc.0c01306
   
   with help from (in alphabetical order)
   P. Atkinson, C. Bannwarth, F. Bohle, G. Brandenburg, E. Caldeweyher
   M. Checinski, S. Dohm, S. Ehlert, S. Ehrlich, I. Gerasimov, C. Hölzer
   A. Katbashev, J. Koopman, C. Lavigne, S. Lehtola, F. März, M. Müller,
   F. Musil, H. Neugebauer, J. Pisarek, C. Plett, P. Pracht, F. Pultar,
   J. Seibert, P. Shushkov, S. Spicher, M. Stahn, M. Steiner, T. Strunk,
   J. Stückrath, T. Rose, and J. Unsleber
   
 * started run on 2023/06/20 at 15:54:46.908     

           -------------------------------------------------
          |                Calculation Setup                |
           -------------------------------------------------

          program call               : /lustre/hpc/kemi/ree/PhD/git/ReactivityQM/dep/xtb-6.5.1/bin/xtb --gfn 1 /lustre/hpc/kemi/ree/PhD/git/ReactivityQM/calculations/R03/reac02prodN18/conf09/R03_reac02prodN18_conf09_gfn1.xyz --opt --vfukui --chrg 1 --uhf 0 --alpb DMSO
          hostname                   : node068
          coordinate file            : /lustre/hpc/kemi/ree/PhD/git/ReactivityQM/calculations/R03/reac02prodN18/conf09/R03_reac02prodN18_conf09_gfn1.xyz
          omp threads                :                     1

   ID    Z sym.   atoms
    1    6 C      1, 3, 5, 6, 8, 11-16, 18, 20, 23, 24
    2    8 O      2, 4, 7, 9, 19, 25
    3    7 N      10, 17, 21, 22, 26
    4    1 H      27-46

           -------------------------------------------------
          |                 G F N 1 - x T B                 |
           -------------------------------------------------

        Reference                      10.1021/acs.jctc.7b00118
      * Hamiltonian:
        H0-scaling (s, p, d)           1.850000    2.250000    2.000000
        zeta-weighting                 0.000000
      * Dispersion:
        s8                             2.400000
        a1                             0.630000
        a2                             5.000000
        s9                             0.000000
      * Repulsion:
        kExp                           1.500000
        rExp                           1.000000
      * Coulomb:
        alpha                          2.000000
        third order                    atomic
        anisotropic                    false
      * Halogen bond correction:
        rad-scale                      1.300000
        damping                        0.440000

      * Solvation model:               ALPB
        Solvent                        DMSO
        Parameter file                 internal GFN1-xTB/ALPB
        Dielectric constant                4.6680E+01
        Reference state                gsolv [1 M gas/solution]
        Free energy shift                  7.6243E-03 Eh       4.7843E+00 kcal/mol
        Temperature                        2.9815E+02 K
        Density                            1.1000E+00 kg/L
        Solvent mass                       7.8130E+01 g/mol
        Interaction kernel             P16
        Born radius scaling (c1)           1.7672E+00
        Born radii integrator          GBOBC
        Born offset                        0.0000E+00 a0       0.0000E+00 AA
        H-bond correction              true
        Ion screening                  false
        Surface tension                    1.0000E-05 Eh       1.5569E+01 dyn/cm
        Grid points                               230 per atom

          ...................................................
          :                      SETUP                      :
          :.................................................:
          :  # basis functions                 144          :
          :  # atomic orbitals                 144          :
          :  # shells                           92          :
          :  # electrons                       140          :
          :  # halogen bonds                     0          :
          :  max. iterations                   250          :
          :  Hamiltonian                  GFN1-xTB          :
          :  restarted?                      false          :
          :  GBSA solvation                   true          :
          :  PC potential                    false          :
          :  electronic temp.          300.0000000     K    :
          :  accuracy                    1.0000000          :
          :  -> integral cutoff          0.2500000E+02      :
          :  -> integral neglect         0.1000000E-07      :
          :  -> SCF convergence          0.1000000E-05 Eh   :
          :  -> wf. convergence          0.2000000E-04 e    :
          :  Broyden damping             0.4000000          :
          ...................................................

 iter      E             dE          RMSdq      gap      omega  full diag
   1    -86.6741164 -0.866741E+02  0.827E+00    2.06       0.0  T
   2    -87.0553727 -0.381256E+00  0.500E+00    1.28       1.0  T
   3    -87.0296424  0.257303E-01  0.194E+00    1.44       1.0  T
   4    -87.0885863 -0.589439E-01  0.237E-01    1.26       1.0  T
   5    -87.0905927 -0.200641E-02  0.872E-02    1.30       1.0  T
   6    -87.0908323 -0.239645E-03  0.245E-02    1.33       1.0  T
   7    -87.0908531 -0.207618E-04  0.718E-03    1.34       2.1  T
   8    -87.0908542 -0.113296E-05  0.258E-03    1.34       5.7  T
   9    -87.0908544 -0.183882E-06  0.633E-04    1.34      23.3  T
  10    -87.0908544 -0.486666E-08  0.173E-04    1.34      85.2  T
  11    -87.0908544 -0.528658E-09  0.607E-05    1.34     242.9  T

   *** convergence criteria satisfied after 11 iterations ***

         #    Occupation            Energy/Eh            Energy/eV
      -------------------------------------------------------------
         1        2.0000           -0.9078585             -24.7041
       ...           ...                  ...                  ...
        64        2.0000           -0.4955348             -13.4842
        65        2.0000           -0.4937048             -13.4344
        66        2.0000           -0.4822141             -13.1217
        67        2.0000           -0.4805386             -13.0761
        68        2.0000           -0.4714124             -12.8278
        69        2.0000           -0.4566834             -12.4270
        70        2.0000           -0.4545644             -12.3693 (HOMO)
        71                         -0.4054020             -11.0315 (LUMO)
        72                         -0.3382446              -9.2041
        73                         -0.3323108              -9.0426
        74                         -0.3090056              -8.4085
        75                         -0.2676332              -7.2827
       ...                                ...                  ...
       144                          0.6801824              18.5087
      -------------------------------------------------------------
                  HL-Gap            0.0491624 Eh            1.3378 eV
             Fermi-level           -0.4299345 Eh          -11.6991 eV

 SCC (total)                   0 d,  0 h,  0 min,  0.169 sec
 SCC setup                      ...        0 min,  0.002 sec (  1.213%)
 Dispersion                     ...        0 min,  0.000 sec (  0.191%)
 classical contributions        ...        0 min,  0.000 sec (  0.070%)
 integral evaluation            ...        0 min,  0.030 sec ( 17.560%)
 iterations                     ...        0 min,  0.067 sec ( 39.429%)
 molecular gradient             ...        0 min,  0.069 sec ( 40.710%)
 printout                       ...        0 min,  0.001 sec (  0.819%)

         :::::::::::::::::::::::::::::::::::::::::::::::::::::
         ::                     SUMMARY                     ::
         :::::::::::::::::::::::::::::::::::::::::::::::::::::
         :: total energy             -86.282028291330 Eh    ::
         :: total w/o Gsasa/hb       -86.258304135096 Eh    ::
         :: gradient norm              0.130028913183 Eh/a0 ::
         :: HOMO-LUMO gap              1.337776371509 eV    ::
         ::.................................................::
         :: SCC energy               -87.090854406434 Eh    ::
         :: -> electrostatic           0.404398100640 Eh    ::
         :: -> Gsolv                  -0.111776668853 Eh    ::
         ::    -> Gelec               -0.088052512618 Eh    ::
         ::    -> Gsasa               -0.024168752331 Eh    ::
         ::    -> Ghb                 -0.007179682908 Eh    ::
         ::    -> Gshift               0.007624279005 Eh    ::
         :: repulsion energy           0.840229434971 Eh    ::
         :: dispersion energy         -0.031403319867 Eh    ::
         :: halogen bond corr.         0.000000000000 Eh    ::
         :: add. restraining           0.000000000000 Eh    ::
         :: total charge               1.000000000001 e     ::
         :::::::::::::::::::::::::::::::::::::::::::::::::::::

      ----------------------------------------------------------- 
     |                   =====================                   |
     |                        A N C O P T                        |
     |                   =====================                   |
     |               Approximate Normal Coordinate               |
     |                Rational Function Optimizer                |
      ----------------------------------------------------------- 

          ...................................................
          :                      SETUP                      :
          :.................................................:
          :   optimization level            normal          :
          :   max. optcycles                   200          :
          :   ANC micro-cycles                  20          :
          :   degrees of freedom               132          :
          :.................................................:
          :   RF solver                   davidson          :
          :   write xtbopt.log                true          :
          :   linear?                        false          :
          :   energy convergence         0.5000000E-05 Eh   :
          :   grad. convergence          0.1000000E-02 Eh/α :
          :   maximium RF displ.         1.0000000          :
          :   Hlow (freq-cutoff)         0.1000000E-01      :
          :   Hmax (freq-cutoff)         5.0000000          :
          :   S6 in model hess.         20.0000000          :
          ...................................................

generating ANC from model Hessian ...
Using Lindh-Hessian (1995)
 Shifting diagonal of input Hessian by   9.779933937478313E-003
 Lowest  eigenvalues of input Hessian
    0.000000    0.000000    0.000000    0.000000    0.000000    0.000000
    0.010000    0.010026    0.010579    0.011953    0.012085    0.012423
    0.012586    0.013831    0.014708    0.014914    0.016300    0.016963
 Highest eigenvalues
    2.013753    2.101744    2.162404    2.310365    2.342550    2.355589
 

........................................................................
.............................. CYCLE    1 ..............................
........................................................................
   1    -87.0908544 -0.870909E+02  0.190E-05    1.34       0.0  T
   2    -87.0908544 -0.379430E-11  0.950E-06    1.34    1551.8  T
   3    -87.0908544 -0.554223E-12  0.615E-06    1.34    2398.7  T
     SCC iter.                  ...        0 min,  0.018 sec
     gradient                   ...        0 min,  0.066 sec
 * total energy  :   -86.2820283 Eh     change       -0.6723155E-10 Eh
   gradient norm :     0.1300295 Eh/α   predicted     0.0000000E+00 (-100.00%)
   displ. norm   :     0.3969178 α      lambda       -0.2159131E-01
   maximum displ.:     0.1212106 α      in ANC's #26, #15, #31, ...

........................................................................
.............................. CYCLE    2 ..............................
........................................................................
   1    -87.1162576 -0.871163E+02  0.903E-02    1.56       0.0  T
   2    -87.1166244 -0.366810E-03  0.467E-02    1.52       1.0  T
   3    -87.1166876 -0.632085E-04  0.174E-02    1.52       1.0  T
   4    -87.1166876  0.163312E-07  0.904E-03    1.52       1.6  T
   5    -87.1166886 -0.994252E-06  0.223E-03    1.51       6.6  T
   6    -87.1166888 -0.136962E-06  0.435E-04    1.51      33.9  T
   7    -87.1166888 -0.248920E-08  0.146E-04    1.51     100.8  T
   8    -87.1166888 -0.432252E-09  0.464E-05    1.51     317.5  T
     SCC iter.                  ...        0 min,  0.048 sec
     gradient                   ...        0 min,  0.068 sec
 * total energy  :   -86.2977129 Eh     change       -0.1568463E-01 Eh
   gradient norm :     0.0681898 Eh/α   predicted    -0.1252568E-01 ( -20.14%)
   displ. norm   :     0.3895463 α      lambda       -0.1013159E-01
   maximum displ.:     0.1580189 α      in ANC's #26, #31, #6, ...

........................................................................
.............................. CYCLE    3 ..............................
........................................................................
   1    -87.1335246 -0.871335E+02  0.879E-02    1.74       0.0  T
   2    -87.1338777 -0.353057E-03  0.444E-02    1.71       1.0  T
   3    -87.1339270 -0.493457E-04  0.180E-02    1.70       1.0  T
   4    -87.1339269  0.977099E-07  0.915E-03    1.70       1.6  T
   5    -87.1339279 -0.912690E-06  0.215E-03    1.69       6.9  T
   6    -87.1339280 -0.151601E-06  0.362E-04    1.69      40.7  T
   7    -87.1339280 -0.228474E-08  0.150E-04    1.70      98.4  T
   8    -87.1339280 -0.234763E-09  0.478E-05    1.70     308.7  T
     SCC iter.                  ...        0 min,  0.053 sec
     gradient                   ...        0 min,  0.068 sec
 * total energy  :   -86.3039464 Eh     change       -0.6233431E-02 Eh
   gradient norm :     0.0202403 Eh/α   predicted    -0.5834511E-02 (  -6.40%)
   displ. norm   :     0.3141244 α      lambda       -0.2152725E-02
   maximum displ.:     0.1513847 α      in ANC's #6, #4, #26, ...

........................................................................
.............................. CYCLE    4 ..............................
........................................................................
   1    -87.1351065 -0.871351E+02  0.257E-02    1.76       0.0  T
   2    -87.1351325 -0.259664E-04  0.128E-02    1.74       1.2  T
   3    -87.1351354 -0.294031E-05  0.618E-03    1.74       2.4  T
   4    -87.1351355 -0.998497E-08  0.253E-03    1.74       5.8  T
   5    -87.1351356 -0.958977E-07  0.713E-04    1.74      20.7  T
   6    -87.1351356 -0.132152E-07  0.173E-04    1.74      85.4  T
   7    -87.1351356 -0.611053E-09  0.563E-05    1.74     262.0  T
     SCC iter.                  ...        0 min,  0.042 sec
     gradient                   ...        0 min,  0.069 sec
 * total energy  :   -86.3054961 Eh     change       -0.1549765E-02 Eh
   gradient norm :     0.0123823 Eh/α   predicted    -0.1182669E-02 ( -23.69%)
   displ. norm   :     0.3826296 α      lambda       -0.1403381E-02
   maximum displ.:     0.2345165 α      in ANC's #6, #4, #7, ...

........................................................................
.............................. CYCLE    5 ..............................
........................................................................
   1    -87.1342493 -0.871342E+02  0.201E-02    1.76       0.0  T
   2    -87.1342639 -0.145391E-04  0.104E-02    1.75       1.4  T
   3    -87.1342677 -0.377445E-05  0.481E-03    1.75       3.1  T
   4    -87.1342678 -0.149519E-06  0.193E-03    1.75       7.6  T
   5    -87.1342678 -0.230042E-07  0.589E-04    1.75      25.0  T
   6    -87.1342678 -0.719241E-08  0.127E-04    1.75     116.3  T
   7    -87.1342678 -0.381462E-09  0.449E-05    1.75     328.6  T
     SCC iter.                  ...        0 min,  0.042 sec
     gradient                   ...        0 min,  0.069 sec
 * total energy  :   -86.3065135 Eh     change       -0.1017348E-02 Eh
   gradient norm :     0.0097549 Eh/α   predicted    -0.8044312E-03 ( -20.93%)
   displ. norm   :     0.4209795 α      lambda       -0.9580399E-03
   maximum displ.:     0.2858630 α      in ANC's #6, #4, #7, ...

........................................................................
.............................. CYCLE    6 ..............................
........................................................................
   1    -87.1337455 -0.871337E+02  0.171E-02    1.75       0.0  T
   2    -87.1337567 -0.111707E-04  0.883E-03    1.75       1.7  T
   3    -87.1337602 -0.355218E-05  0.338E-03    1.74       4.4  T
   4    -87.1337603 -0.102581E-06  0.147E-03    1.74      10.0  T
   5    -87.1337603 -0.350003E-08  0.409E-04    1.74      36.1  T
   6    -87.1337603 -0.411140E-08  0.116E-04    1.74     127.4  T
   7    -87.1337603 -0.307892E-09  0.339E-05    1.74     435.1  T
     SCC iter.                  ...        0 min,  0.042 sec
     gradient                   ...        0 min,  0.069 sec
 * total energy  :   -86.3072598 Eh     change       -0.7463291E-03 Eh
   gradient norm :     0.0098159 Eh/α   predicted    -0.5639148E-03 ( -24.44%)
   displ. norm   :     0.4322822 α      lambda       -0.8208928E-03
   maximum displ.:     0.2875359 α      in ANC's #6, #4, #7, ...

........................................................................
.............................. CYCLE    7 ..............................
........................................................................
   1    -87.1347466 -0.871347E+02  0.135E-02    1.73       0.0  T
   2    -87.1347538 -0.715671E-05  0.711E-03    1.73       2.1  T
   3    -87.1347558 -0.198171E-05  0.273E-03    1.73       5.4  T
   4    -87.1347558 -0.523986E-07  0.120E-03    1.73      12.3  T
   5    -87.1347558 -0.707216E-08  0.307E-04    1.73      48.1  T
   6    -87.1347558 -0.251552E-08  0.925E-05    1.73     159.3  T
   7    -87.1347558 -0.122924E-09  0.265E-05    1.73     556.2  T
     SCC iter.                  ...        0 min,  0.043 sec
     gradient                   ...        0 min,  0.070 sec
 * total energy  :   -86.3079300 Eh     change       -0.6701575E-03 Eh
   gradient norm :     0.0093292 Eh/α   predicted    -0.4871466E-03 ( -27.31%)
   displ. norm   :     0.4741628 α      lambda       -0.7831247E-03
   maximum displ.:     0.3060803 α      in ANC's #6, #4, #7, ...

........................................................................
.............................. CYCLE    8 ..............................
........................................................................
   1    -87.1368844 -0.871369E+02  0.108E-02    1.72       0.0  T
   2    -87.1368885 -0.407871E-05  0.593E-03    1.72       2.5  T
   3    -87.1368893 -0.813107E-06  0.277E-03    1.72       5.3  T
   4    -87.1368893 -0.282117E-07  0.114E-03    1.72      13.0  T
   5    -87.1368893 -0.175574E-07  0.265E-04    1.72      55.6  T
   6    -87.1368893 -0.183655E-08  0.787E-05    1.72     187.3  T
   7    -87.1368893 -0.815703E-10  0.247E-05    1.72     596.6  T
     SCC iter.                  ...        0 min,  0.030 sec
     gradient                   ...        0 min,  0.072 sec
 * total energy  :   -86.3085311 Eh     change       -0.6011286E-03 Eh
   gradient norm :     0.0076552 Eh/α   predicted    -0.4795983E-03 ( -20.22%)
   displ. norm   :     0.4235864 α      lambda       -0.4788121E-03
   maximum displ.:     0.2690409 α      in ANC's #6, #4, #7, ...

........................................................................
.............................. CYCLE    9 ..............................
........................................................................
   1    -87.1389230 -0.871389E+02  0.695E-03    1.71       0.0  T
   2    -87.1389241 -0.113522E-05  0.358E-03    1.71       4.1  T
   3    -87.1389242 -0.720037E-07  0.184E-03    1.71       8.0  T
   4    -87.1389242 -0.132547E-07  0.559E-04    1.71      26.4  T
   5    -87.1389242 -0.333260E-08  0.148E-04    1.71      99.3  T
   6    -87.1389242 -0.740641E-09  0.540E-05    1.71     272.9  T
     SCC iter.                  ...        0 min,  0.033 sec
     gradient                   ...        0 min,  0.048 sec
 * total energy  :   -86.3088652 Eh     change       -0.3340939E-03 Eh
   gradient norm :     0.0052945 Eh/α   predicted    -0.2823631E-03 ( -15.48%)
   displ. norm   :     0.2749262 α      lambda       -0.1764545E-03
   maximum displ.:     0.1692719 α      in ANC's #6, #4, #7, ...

........................................................................
.............................. CYCLE   10 ..............................
........................................................................
   1    -87.1406102 -0.871406E+02  0.528E-03    1.71       0.0  T
   2    -87.1406110 -0.799052E-06  0.265E-03    1.71       5.6  T
   3    -87.1406111 -0.103245E-06  0.145E-03    1.71      10.1  T
   4    -87.1406111 -0.107569E-07  0.517E-04    1.71      28.5  T
   5    -87.1406111 -0.348354E-08  0.163E-04    1.71      90.5  T
   6    -87.1406111 -0.768011E-09  0.354E-05    1.71     416.8  T
     SCC iter.                  ...        0 min,  0.037 sec
     gradient                   ...        0 min,  0.069 sec
 * total energy  :   -86.3089825 Eh     change       -0.1173030E-03 Eh
   gradient norm :     0.0033435 Eh/α   predicted    -0.9489610E-04 ( -19.10%)
   displ. norm   :     0.1535577 α      lambda       -0.6741936E-04
   maximum displ.:     0.0836231 α      in ANC's #6, #4, #1, ...

........................................................................
.............................. CYCLE   11 ..............................
........................................................................
   1    -87.1415351 -0.871415E+02  0.392E-03    1.71       0.0  T
   2    -87.1415358 -0.639961E-06  0.229E-03    1.71       6.4  T
   3    -87.1415359 -0.120228E-06  0.102E-03    1.71      14.5  T
   4    -87.1415359 -0.135813E-08  0.476E-04    1.71      31.0  T
   5    -87.1415359 -0.261707E-08  0.122E-04    1.71     121.2  T
   6    -87.1415359 -0.399936E-09  0.271E-05    1.71     545.0  T
     SCC iter.                  ...        0 min,  0.032 sec
     gradient                   ...        0 min,  0.042 sec
 * total energy  :   -86.3090312 Eh     change       -0.4874650E-04 Eh
   gradient norm :     0.0023398 Eh/α   predicted    -0.3450849E-04 ( -29.21%)
   displ. norm   :     0.1368086 α      lambda       -0.5587592E-04
   maximum displ.:     0.0642510 α      in ANC's #1, #8, #6, ...

........................................................................
.............................. CYCLE   12 ..............................
........................................................................
   1    -87.1419777 -0.871420E+02  0.349E-03    1.71       0.0  T
   2    -87.1419783 -0.591756E-06  0.206E-03    1.71       7.2  T
   3    -87.1419783 -0.641895E-07  0.955E-04    1.71      15.4  T
   4    -87.1419783  0.134008E-10  0.507E-04    1.71      29.1  T
   5    -87.1419783 -0.314581E-08  0.102E-04    1.71     144.4  T
   6    -87.1419783 -0.299778E-09  0.303E-05    1.71     486.0  T
     SCC iter.                  ...        0 min,  0.022 sec
     gradient                   ...        0 min,  0.042 sec
 * total energy  :   -86.3090732 Eh     change       -0.4200391E-04 Eh
   gradient norm :     0.0022400 Eh/α   predicted    -0.2846514E-04 ( -32.23%)
   displ. norm   :     0.1562187 α      lambda       -0.5990239E-04
   maximum displ.:     0.0804840 α      in ANC's #1, #8, #2, ...

........................................................................
.............................. CYCLE   13 ..............................
........................................................................
   1    -87.1419662 -0.871420E+02  0.354E-03    1.71       0.0  T
   2    -87.1419668 -0.582729E-06  0.187E-03    1.71       7.9  T
   3    -87.1419668 -0.323914E-07  0.903E-04    1.71      16.3  T
   4    -87.1419668 -0.853817E-09  0.467E-04    1.71      31.6  T
   5    -87.1419668 -0.241128E-08  0.782E-05    1.71     188.6  T
   6    -87.1419668 -0.183363E-09  0.358E-05    1.71     411.7  T
     SCC iter.                  ...        0 min,  0.022 sec
     gradient                   ...        0 min,  0.043 sec
 * total energy  :   -86.3091187 Eh     change       -0.4550846E-04 Eh
   gradient norm :     0.0029847 Eh/α   predicted    -0.3068300E-04 ( -32.58%)
   displ. norm   :     0.1946351 α      lambda       -0.6684952E-04
   maximum displ.:     0.1039472 α      in ANC's #8, #1, #2, ...

........................................................................
.............................. CYCLE   14 ..............................
........................................................................
   1    -87.1415438 -0.871415E+02  0.412E-03    1.71       0.0  T
   2    -87.1415446 -0.793316E-06  0.173E-03    1.71       8.5  T
   3    -87.1415446 -0.499200E-07  0.975E-04    1.71      15.1  T
   4    -87.1415446 -0.357250E-08  0.399E-04    1.71      36.9  T
   5    -87.1415446 -0.252285E-08  0.121E-04    1.71     121.5  T
   6    -87.1415446 -0.259448E-09  0.321E-05    1.71     459.5  T
     SCC iter.                  ...        0 min,  0.022 sec
     gradient                   ...        0 min,  0.041 sec
 * total energy  :   -86.3091690 Eh     change       -0.5027054E-04 Eh
   gradient norm :     0.0037022 Eh/α   predicted    -0.3469487E-04 ( -30.98%)
   displ. norm   :     0.2146324 α      lambda       -0.7047073E-04
   maximum displ.:     0.1142973 α      in ANC's #1, #8, #19, ...

........................................................................
.............................. CYCLE   15 ..............................
........................................................................
   1    -87.1410285 -0.871410E+02  0.431E-03    1.71       0.0  T
   2    -87.1410294 -0.848550E-06  0.201E-03    1.71       7.3  T
   3    -87.1410295 -0.129943E-06  0.931E-04    1.71      15.8  T
   4    -87.1410295 -0.503964E-08  0.398E-04    1.71      37.0  T
   5    -87.1410295 -0.139748E-08  0.133E-04    1.71     111.1  T
   6    -87.1410295 -0.338389E-09  0.296E-05    1.71     498.3  T
     SCC iter.                  ...        0 min,  0.024 sec
     gradient                   ...        0 min,  0.042 sec
 * total energy  :   -86.3092222 Eh     change       -0.5321040E-04 Eh
   gradient norm :     0.0039702 Eh/α   predicted    -0.3686634E-04 ( -30.72%)
   displ. norm   :     0.2137996 α      lambda       -0.7482792E-04
   maximum displ.:     0.1197638 α      in ANC's #1, #8, #2, ...

........................................................................
.............................. CYCLE   16 ..............................
........................................................................
   1    -87.1408023 -0.871408E+02  0.453E-03    1.71       0.0  T
   2    -87.1408033 -0.938613E-06  0.271E-03    1.71       5.4  T
   3    -87.1408035 -0.238762E-06  0.105E-03    1.71      14.0  T
   4    -87.1408035 -0.158096E-08  0.499E-04    1.71      29.5  T
   5    -87.1408035 -0.231618E-08  0.128E-04    1.71     115.5  T
   6    -87.1408035 -0.389250E-09  0.329E-05    1.71     448.2  T
     SCC iter.                  ...        0 min,  0.023 sec
     gradient                   ...        0 min,  0.042 sec
 * total energy  :   -86.3092787 Eh     change       -0.5644843E-04 Eh
   gradient norm :     0.0036751 Eh/α   predicted    -0.3912687E-04 ( -30.69%)
   displ. norm   :     0.2071366 α      lambda       -0.6939336E-04
   maximum displ.:     0.1257645 α      in ANC's #1, #8, #2, ...

........................................................................
.............................. CYCLE   17 ..............................
........................................................................
   1    -87.1409847 -0.871410E+02  0.389E-03    1.71       0.0  T
   2    -87.1409853 -0.657629E-06  0.273E-03    1.71       5.4  T
   3    -87.1409855 -0.190814E-06  0.118E-03    1.71      12.5  T
   4    -87.1409855 -0.180108E-09  0.507E-04    1.71      29.1  T
   5    -87.1409855 -0.265173E-08  0.104E-04    1.71     141.5  T
   6    -87.1409855 -0.280309E-09  0.301E-05    1.71     490.2  T
     SCC iter.                  ...        0 min,  0.023 sec
     gradient                   ...        0 min,  0.042 sec
 * total energy  :   -86.3093305 Eh     change       -0.5182454E-04 Eh
   gradient norm :     0.0033302 Eh/α   predicted    -0.3618783E-04 ( -30.17%)
   displ. norm   :     0.1974219 α      lambda       -0.5483605E-04
   maximum displ.:     0.1278687 α      in ANC's #1, #8, #2, ...

........................................................................
.............................. CYCLE   18 ..............................
........................................................................
   1    -87.1411210 -0.871411E+02  0.289E-03    1.71       0.0  T
   2    -87.1411213 -0.346978E-06  0.208E-03    1.71       7.1  T
   3    -87.1411214 -0.796917E-07  0.101E-03    1.71      14.7  T
   4    -87.1411214 -0.345793E-09  0.438E-04    1.71      33.6  T
   5    -87.1411214 -0.225337E-08  0.670E-05    1.71     219.9  T
   6    -87.1411214 -0.845830E-10  0.199E-05    1.71     742.0  T
     SCC iter.                  ...        0 min,  0.023 sec
     gradient                   ...        0 min,  0.042 sec
 * total energy  :   -86.3093728 Eh     change       -0.4230786E-04 Eh
   gradient norm :     0.0030403 Eh/α   predicted    -0.2848838E-04 ( -32.66%)
   displ. norm   :     0.1679905 α      lambda       -0.4622624E-04
   maximum displ.:     0.1142971 α      in ANC's #1, #2, #8, ...

........................................................................
.............................. CYCLE   19 ..............................
........................................................................
   1    -87.1417807 -0.871418E+02  0.266E-03    1.71       0.0  T
   2    -87.1417810 -0.309742E-06  0.152E-03    1.71       9.7  T
   3    -87.1417810 -0.273383E-07  0.769E-04    1.71      19.2  T
   4    -87.1417810  0.651511E-09  0.394E-04    1.71      37.4  T
   5    -87.1417810 -0.249700E-08  0.757E-05    1.71     194.7  T
   6    -87.1417810 -0.189843E-09  0.202E-05    1.71     728.4  T
     SCC iter.                  ...        0 min,  0.023 sec
     gradient                   ...        0 min,  0.041 sec
 * total energy  :   -86.3094086 Eh     change       -0.3576228E-04 Eh
   gradient norm :     0.0025312 Eh/α   predicted    -0.2376733E-04 ( -33.54%)
   displ. norm   :     0.1781259 α      lambda       -0.3988998E-04
   maximum displ.:     0.1203881 α      in ANC's #1, #2, #8, ...

........................................................................
.............................. CYCLE   20 ..............................
........................................................................
   1    -87.1413491 -0.871413E+02  0.262E-03    1.71       0.0  T
   2    -87.1413493 -0.271034E-06  0.144E-03    1.71      10.2  T
   3    -87.1413494 -0.298722E-07  0.726E-04    1.71      20.3  T
   4    -87.1413494  0.352060E-09  0.304E-04    1.71      48.4  T
   5    -87.1413494 -0.177026E-08  0.724E-05    1.71     203.6  T
   6    -87.1413494 -0.154600E-09  0.213E-05    1.71     690.8  T
     SCC iter.                  ...        0 min,  0.023 sec
     gradient                   ...        0 min,  0.042 sec
 * total energy  :   -86.3094402 Eh     change       -0.3163814E-04 Eh
   gradient norm :     0.0024184 Eh/α   predicted    -0.2057967E-04 ( -34.95%)
   displ. norm   :     0.1668084 α      lambda       -0.4494605E-04
   maximum displ.:     0.1190545 α      in ANC's #1, #2, #3, ...
 * RMSD in coord.:     0.5671712 α      energy gain  -0.2741191E-01 Eh

generating ANC from model Hessian ...
Using Lindh-Hessian (1995)
 Shifting diagonal of input Hessian by   9.771756141586867E-003
 Lowest  eigenvalues of input Hessian
    0.000000    0.000000    0.000000    0.000000    0.000000    0.000000
    0.010000    0.010016    0.010372    0.010614    0.011843    0.012169
    0.012464    0.013191    0.014180    0.014413    0.016037    0.016968
 Highest eigenvalues
    2.057957    2.184708    2.198279    2.349444    2.397195    2.419209
 

........................................................................
.............................. CYCLE   21 ..............................
........................................................................
   1    -87.1424823 -0.871425E+02  0.311E-03    1.70       0.0  T
   2    -87.1424827 -0.308780E-06  0.155E-03    1.70       9.5  T
   3    -87.1424827 -0.299046E-07  0.787E-04    1.70      18.7  T
   4    -87.1424827 -0.771351E-09  0.263E-04    1.70      56.1  T
   5    -87.1424827 -0.855081E-09  0.564E-05    1.70     261.3  T
   6    -87.1424827 -0.899547E-10  0.221E-05    1.70     666.5  T
     SCC iter.                  ...        0 min,  0.023 sec
     gradient                   ...        0 min,  0.042 sec
 * total energy  :   -86.3094725 Eh     change       -0.3226803E-04 Eh
   gradient norm :     0.0031812 Eh/α   predicted     0.0000000E+00 (-100.00%)
   displ. norm   :     0.0292707 α      lambda       -0.1833740E-04
   maximum displ.:     0.0139927 α      in ANC's #1, #7, #6, ...

........................................................................
.............................. CYCLE   22 ..............................
........................................................................
   1    -87.1416675 -0.871417E+02  0.187E-03    1.70       0.0  T
   2    -87.1416677 -0.151938E-06  0.103E-03    1.70      14.4  T
   3    -87.1416677 -0.238545E-07  0.518E-04    1.70      28.5  T
   4    -87.1416677 -0.237648E-09  0.219E-04    1.70      67.3  T
   5    -87.1416677 -0.664286E-09  0.520E-05    1.70     283.4  T
   6    -87.1416677 -0.772928E-10  0.934E-06    1.70    1578.9  T
     SCC iter.                  ...        0 min,  0.023 sec
     gradient                   ...        0 min,  0.042 sec
 * total energy  :   -86.3094917 Eh     change       -0.1919250E-04 Eh
   gradient norm :     0.0017387 Eh/α   predicted    -0.1145768E-04 ( -40.30%)
   displ. norm   :     0.1578059 α      lambda       -0.5242102E-04
   maximum displ.:     0.0751447 α      in ANC's #1, #7, #8, ...

........................................................................
.............................. CYCLE   23 ..............................
........................................................................
   1    -87.1396988 -0.871397E+02  0.613E-03    1.70       0.0  T
   2    -87.1397005 -0.177280E-05  0.318E-03    1.70       4.6  T
   3    -87.1397007 -0.178243E-06  0.162E-03    1.70       9.1  T
   4    -87.1397007  0.802459E-09  0.681E-04    1.70      21.7  T
   5    -87.1397007 -0.630003E-08  0.199E-04    1.70      73.9  T
   6    -87.1397007 -0.119502E-08  0.359E-05    1.70     410.5  T
     SCC iter.                  ...        0 min,  0.023 sec
     gradient                   ...        0 min,  0.041 sec
 * total energy  :   -86.3095302 Eh     change       -0.3858562E-04 Eh
   gradient norm :     0.0040256 Eh/α   predicted    -0.2650134E-04 ( -31.32%)
   displ. norm   :     0.0453053 α      lambda       -0.1849302E-04
   maximum displ.:     0.0234783 α      in ANC's #1, #3, #7, ...

........................................................................
.............................. CYCLE   24 ..............................
........................................................................
   1    -87.1403195 -0.871403E+02  0.126E-03    1.70       0.0  T
   2    -87.1403196 -0.589968E-07  0.824E-04    1.70      17.9  T
   3    -87.1403196 -0.217911E-07  0.347E-04    1.70      42.5  T
   4    -87.1403196 -0.108002E-10  0.127E-04    1.70     116.0  T
   5    -87.1403196 -0.215849E-09  0.219E-05    1.70     674.6  T
     SCC iter.                  ...        0 min,  0.019 sec
     gradient                   ...        0 min,  0.041 sec
 * total energy  :   -86.3095479 Eh     change       -0.1762278E-04 Eh
   gradient norm :     0.0032432 Eh/α   predicted    -0.9586828E-05 ( -45.60%)
   displ. norm   :     0.2079490 α      lambda       -0.7700209E-04
   maximum displ.:     0.1066601 α      in ANC's #1, #3, #7, ...

........................................................................
.............................. CYCLE   25 ..............................
........................................................................
   1    -87.1421945 -0.871422E+02  0.535E-03    1.71       0.0  T
   2    -87.1421958 -0.128471E-05  0.337E-03    1.71       4.4  T
   3    -87.1421962 -0.422240E-06  0.125E-03    1.71      11.8  T
   4    -87.1421962 -0.545896E-09  0.561E-04    1.71      26.3  T
   5    -87.1421962 -0.307590E-08  0.115E-04    1.71     128.3  T
   6    -87.1421962 -0.322686E-09  0.288E-05    1.71     512.8  T
     SCC iter.                  ...        0 min,  0.023 sec
     gradient                   ...        0 min,  0.042 sec
 * total energy  :   -86.3096038 Eh     change       -0.5592785E-04 Eh
   gradient norm :     0.0017848 Eh/α   predicted    -0.4016622E-04 ( -28.18%)
   displ. norm   :     0.3361888 α      lambda       -0.4709600E-04
   maximum displ.:     0.1769199 α      in ANC's #1, #3, #8, ...

........................................................................
.............................. CYCLE   26 ..............................
........................................................................
   1    -87.1423382 -0.871423E+02  0.590E-03    1.71       0.0  T
   2    -87.1423398 -0.156684E-05  0.329E-03    1.71       4.5  T
   3    -87.1423402 -0.393469E-06  0.127E-03    1.71      11.6  T
   4    -87.1423402 -0.574670E-08  0.593E-04    1.71      24.9  T
   5    -87.1423402 -0.332423E-08  0.148E-04    1.71      99.7  T
   6    -87.1423402 -0.349587E-09  0.403E-05    1.71     365.9  T
     SCC iter.                  ...        0 min,  0.023 sec
     gradient                   ...        0 min,  0.045 sec
 * total energy  :   -86.3096470 Eh     change       -0.4317845E-04 Eh
   gradient norm :     0.0037963 Eh/α   predicted    -0.2473495E-04 ( -42.71%)
   displ. norm   :     0.1243570 α      lambda       -0.3424177E-04
   maximum displ.:     0.0731675 α      in ANC's #1, #3, #8, ...

........................................................................
.............................. CYCLE   27 ..............................
........................................................................
   1    -87.1426150 -0.871426E+02  0.190E-03    1.71       0.0  T
   2    -87.1426151 -0.133525E-06  0.887E-04    1.71      16.6  T
   3    -87.1426151 -0.105852E-07  0.433E-04    1.71      34.1  T
   4    -87.1426151 -0.416293E-09  0.154E-04    1.71      95.8  T
   5    -87.1426151 -0.215124E-09  0.304E-05    1.71     484.5  T
     SCC iter.                  ...        0 min,  0.019 sec
     gradient                   ...        0 min,  0.042 sec
 * total energy  :   -86.3096772 Eh     change       -0.3020825E-04 Eh
   gradient norm :     0.0031204 Eh/α   predicted    -0.1739100E-04 ( -42.43%)
   displ. norm   :     0.2690808 α      lambda       -0.7578274E-04
   maximum displ.:     0.1601158 α      in ANC's #1, #3, #8, ...

........................................................................
.............................. CYCLE   28 ..............................
........................................................................
   1    -87.1422516 -0.871423E+02  0.321E-03    1.71       0.0  T
   2    -87.1422520 -0.468198E-06  0.209E-03    1.71       7.1  T
   3    -87.1422521 -0.112459E-06  0.817E-04    1.71      18.0  T
   4    -87.1422521 -0.436259E-09  0.415E-04    1.71      35.5  T
   5    -87.1422521 -0.176422E-08  0.905E-05    1.71     162.9  T
   6    -87.1422521 -0.150692E-09  0.263E-05    1.71     560.7  T
     SCC iter.                  ...        0 min,  0.023 sec
     gradient                   ...        0 min,  0.043 sec
 * total energy  :   -86.3097371 Eh     change       -0.5994430E-04 Eh
   gradient norm :     0.0017835 Eh/α   predicted    -0.4063575E-04 ( -32.21%)
   displ. norm   :     0.4295094 α      lambda       -0.6170489E-04
   maximum displ.:     0.2679845 α      in ANC's #1, #3, #8, ...

........................................................................
.............................. CYCLE   29 ..............................
........................................................................
   1    -87.1401781 -0.871402E+02  0.576E-03    1.70       0.0  T
   2    -87.1401794 -0.132780E-05  0.381E-03    1.71       3.9  T
   3    -87.1401798 -0.352910E-06  0.161E-03    1.71       9.2  T
   4    -87.1401798 -0.234633E-08  0.704E-04    1.71      21.0  T
   5    -87.1401798 -0.500557E-08  0.152E-04    1.71      96.8  T
   6    -87.1401798 -0.506859E-09  0.469E-05    1.71     314.1  T
     SCC iter.                  ...        0 min,  0.023 sec
     gradient                   ...        0 min,  0.043 sec
 * total energy  :   -86.3097896 Eh     change       -0.5243376E-04 Eh
   gradient norm :     0.0037922 Eh/α   predicted    -0.3338747E-04 ( -36.32%)
   displ. norm   :     0.0940140 α      lambda       -0.5292804E-04
   maximum displ.:     0.0645646 α      in ANC's #1, #20, #19, ...

........................................................................
.............................. CYCLE   30 ..............................
........................................................................
   1    -87.1420835 -0.871421E+02  0.512E-03    1.71       0.0  T
   2    -87.1420838 -0.360388E-06  0.276E-03    1.71       5.3  T
   3    -87.1420839 -0.361650E-07  0.155E-03    1.71       9.5  T
   4    -87.1420839 -0.310651E-07  0.400E-04    1.71      36.9  T
   5    -87.1420839 -0.300933E-08  0.915E-05    1.71     161.1  T
   6    -87.1420839 -0.194149E-09  0.241E-05    1.71     611.1  T
     SCC iter.                  ...        0 min,  0.023 sec
     gradient                   ...        0 min,  0.041 sec
 * total energy  :   -86.3098139 Eh     change       -0.2428871E-04 Eh
   gradient norm :     0.0035478 Eh/α   predicted    -0.2669843E-04 (   9.92%)
   displ. norm   :     0.1022982 α      lambda       -0.3504968E-04
   maximum displ.:     0.0709195 α      in ANC's #1, #7, #2, ...

........................................................................
.............................. CYCLE   31 ..............................
........................................................................
   1    -87.1418580 -0.871419E+02  0.207E-03    1.71       0.0  T
   2    -87.1418581 -0.110193E-06  0.114E-03    1.71      13.0  T
   3    -87.1418582 -0.399541E-07  0.546E-04    1.71      27.0  T
   4    -87.1418582 -0.142131E-08  0.168E-04    1.71      88.0  T
   5    -87.1418582 -0.505040E-09  0.424E-05    1.71     348.0  T
     SCC iter.                  ...        0 min,  0.018 sec
     gradient                   ...        0 min,  0.041 sec
 * total energy  :   -86.3098459 Eh     change       -0.3204935E-04 Eh
   gradient norm :     0.0025229 Eh/α   predicted    -0.1773107E-04 ( -44.68%)
   displ. norm   :     0.3048477 α      lambda       -0.1026890E-03
   maximum displ.:     0.2128174 α      in ANC's #1, #2, #7, ...

........................................................................
.............................. CYCLE   32 ..............................
........................................................................
   1    -87.1411564 -0.871412E+02  0.613E-03    1.71       0.0  T
   2    -87.1411574 -0.985568E-06  0.336E-03    1.71       4.4  T
   3    -87.1411578 -0.350963E-06  0.156E-03    1.71       9.5  T
   4    -87.1411578 -0.110804E-07  0.492E-04    1.71      29.9  T
   5    -87.1411578 -0.434329E-08  0.140E-04    1.71     105.0  T
   6    -87.1411578 -0.402110E-09  0.403E-05    1.71     365.5  T
     SCC iter.                  ...        0 min,  0.023 sec
     gradient                   ...        0 min,  0.041 sec
 * total energy  :   -86.3099191 Eh     change       -0.7320108E-04 Eh
   gradient norm :     0.0025890 Eh/α   predicted    -0.5611825E-04 ( -23.34%)
   displ. norm   :     0.2290869 α      lambda       -0.5142288E-04
   maximum displ.:     0.1651460 α      in ANC's #1, #2, #20, ...

........................................................................
.............................. CYCLE   33 ..............................
........................................................................
   1    -87.1409532 -0.871410E+02  0.361E-03    1.71       0.0  T
   2    -87.1409535 -0.365803E-06  0.184E-03    1.71       8.0  T
   3    -87.1409536 -0.112574E-06  0.817E-04    1.71      18.1  T
   4    -87.1409536 -0.390587E-08  0.272E-04    1.71      54.3  T
   5    -87.1409537 -0.154863E-08  0.900E-05    1.71     163.9  T
   6    -87.1409537 -0.135998E-09  0.278E-05    1.71     529.9  T
     SCC iter.                  ...        0 min,  0.023 sec
     gradient                   ...        0 min,  0.042 sec
 * total energy  :   -86.3099575 Eh     change       -0.3837531E-04 Eh
   gradient norm :     0.0032571 Eh/α   predicted    -0.2706482E-04 ( -29.47%)
   displ. norm   :     0.1559423 α      lambda       -0.3996076E-04
   maximum displ.:     0.1139886 α      in ANC's #1, #2, #20, ...

........................................................................
.............................. CYCLE   34 ..............................
........................................................................
   1    -87.1416488 -0.871416E+02  0.254E-03    1.72       0.0  T
   2    -87.1416490 -0.140845E-06  0.126E-03    1.72      11.7  T
   3    -87.1416490 -0.267419E-07  0.650E-04    1.72      22.7  T
   4    -87.1416490 -0.320829E-08  0.179E-04    1.72      82.2  T
   5    -87.1416490 -0.699686E-09  0.670E-05    1.72     220.0  T
     SCC iter.                  ...        0 min,  0.019 sec
     gradient                   ...        0 min,  0.040 sec
 * total energy  :   -86.3099884 Eh     change       -0.3096444E-04 Eh
   gradient norm :     0.0024564 Eh/α   predicted    -0.2046678E-04 ( -33.90%)
   displ. norm   :     0.1761229 α      lambda       -0.3685900E-04
   maximum displ.:     0.1294502 α      in ANC's #1, #2, #19, ...

........................................................................
.............................. CYCLE   35 ..............................
........................................................................
   1    -87.1418268 -0.871418E+02  0.239E-03    1.72       0.0  T
   2    -87.1418271 -0.218467E-06  0.130E-03    1.72      11.3  T
   3    -87.1418271 -0.313427E-07  0.553E-04    1.72      26.7  T
   4    -87.1418271 -0.687450E-09  0.243E-04    1.72      60.6  T
   5    -87.1418271 -0.684921E-09  0.686E-05    1.72     214.9  T
   6    -87.1418271 -0.842419E-10  0.213E-05    1.72     690.8  T
     SCC iter.                  ...        0 min,  0.023 sec
     gradient                   ...        0 min,  0.041 sec
 * total energy  :   -86.3100190 Eh     change       -0.3056313E-04 Eh
   gradient norm :     0.0017815 Eh/α   predicted    -0.1900337E-04 ( -37.82%)
   displ. norm   :     0.3022907 α      lambda       -0.3933214E-04
   maximum displ.:     0.2238119 α      in ANC's #1, #2, #19, ...

........................................................................
.............................. CYCLE   36 ..............................
........................................................................
   1    -87.1421761 -0.871422E+02  0.423E-03    1.72       0.0  T
   2    -87.1421768 -0.687590E-06  0.242E-03    1.72       6.1  T
   3    -87.1421769 -0.103466E-06  0.105E-03    1.72      14.0  T
   4    -87.1421769 -0.704702E-09  0.460E-04    1.72      32.0  T
   5    -87.1421769 -0.285340E-08  0.133E-04    1.72     111.2  T
   6    -87.1421769 -0.318579E-09  0.315E-05    1.72     468.1  T
     SCC iter.                  ...        0 min,  0.022 sec
     gradient                   ...        0 min,  0.041 sec
 * total energy  :   -86.3100634 Eh     change       -0.4439148E-04 Eh
   gradient norm :     0.0020822 Eh/α   predicted    -0.2046546E-04 ( -53.90%)
   displ. norm   :     0.1769719 α      lambda       -0.3007290E-04
   maximum displ.:     0.1290141 α      in ANC's #1, #2, #7, ...

........................................................................
.............................. CYCLE   37 ..............................
........................................................................
   1    -87.1419087 -0.871419E+02  0.224E-03    1.72       0.0  T
   2    -87.1419089 -0.186845E-06  0.125E-03    1.72      11.8  T
   3    -87.1419089 -0.361433E-07  0.549E-04    1.72      26.8  T
   4    -87.1419089 -0.118092E-08  0.230E-04    1.72      64.0  T
   5    -87.1419089 -0.554024E-09  0.705E-05    1.72     209.0  T
   6    -87.1419089 -0.862457E-10  0.145E-05    1.72    1016.2  T
     SCC iter.                  ...        0 min,  0.023 sec
     gradient                   ...        0 min,  0.042 sec
 * total energy  :   -86.3100901 Eh     change       -0.2667626E-04 Eh
   gradient norm :     0.0020650 Eh/α   predicted    -0.1550912E-04 ( -41.86%)
   displ. norm   :     0.2417804 α      lambda       -0.5070026E-04
   maximum displ.:     0.1767343 α      in ANC's #1, #2, #7, ...

........................................................................
.............................. CYCLE   38 ..............................
........................................................................
   1    -87.1423785 -0.871424E+02  0.300E-03    1.71       0.0  T
   2    -87.1423788 -0.291338E-06  0.150E-03    1.71       9.8  T
   3    -87.1423788 -0.563703E-07  0.709E-04    1.71      20.8  T
   4    -87.1423788 -0.334308E-08  0.263E-04    1.71      56.1  T
   5    -87.1423788 -0.708567E-09  0.968E-05    1.71     152.4  T
   6    -87.1423788 -0.161094E-09  0.180E-05    1.71     817.4  T
     SCC iter.                  ...        0 min,  0.022 sec
     gradient                   ...        0 min,  0.040 sec
 * total energy  :   -86.3101346 Eh     change       -0.4457399E-04 Eh
   gradient norm :     0.0021465 Eh/α   predicted    -0.2683341E-04 ( -39.80%)
   displ. norm   :     0.3344606 α      lambda       -0.6394881E-04
   maximum displ.:     0.2415621 α      in ANC's #1, #2, #7, ...

........................................................................
.............................. CYCLE   39 ..............................
........................................................................
   1    -87.1419192 -0.871419E+02  0.363E-03    1.71       0.0  T
   2    -87.1419195 -0.383729E-06  0.180E-03    1.71       8.2  T
   3    -87.1419196 -0.850758E-07  0.877E-04    1.71      16.8  T
   4    -87.1419196 -0.881639E-08  0.296E-04    1.71      49.8  T
   5    -87.1419196 -0.454051E-09  0.993E-05    1.71     148.5  T
   6    -87.1419196 -0.145263E-09  0.218E-05    1.71     676.8  T
     SCC iter.                  ...        0 min,  0.022 sec
     gradient                   ...        0 min,  0.040 sec
 * total energy  :   -86.3101905 Eh     change       -0.5580933E-04 Eh
   gradient norm :     0.0024905 Eh/α   predicted    -0.3555368E-04 ( -36.29%)
   displ. norm   :     0.3733909 α      lambda       -0.6952382E-04
   maximum displ.:     0.2720724 α      in ANC's #1, #2, #7, ...

........................................................................
.............................. CYCLE   40 ..............................
........................................................................
   1    -87.1418813 -0.871419E+02  0.366E-03    1.71       0.0  T
   2    -87.1418817 -0.402348E-06  0.184E-03    1.71       8.0  T
   3    -87.1418818 -0.101990E-06  0.873E-04    1.71      16.9  T
   4    -87.1418819 -0.963514E-08  0.296E-04    1.71      49.8  T
   5    -87.1418819 -0.258652E-09  0.930E-05    1.71     158.5  T
   6    -87.1418819 -0.120792E-09  0.231E-05    1.71     638.5  T
     SCC iter.                  ...        0 min,  0.022 sec
     gradient                   ...        0 min,  0.040 sec
 * total energy  :   -86.3102497 Eh     change       -0.5921482E-04 Eh
   gradient norm :     0.0027010 Eh/α   predicted    -0.3961060E-04 ( -33.11%)
   displ. norm   :     0.3526087 α      lambda       -0.6072776E-04
   maximum displ.:     0.2578838 α      in ANC's #1, #2, #7, ...

........................................................................
.............................. CYCLE   41 ..............................
........................................................................
   1    -87.1418281 -0.871418E+02  0.312E-03    1.71       0.0  T
   2    -87.1418283 -0.266822E-06  0.157E-03    1.70       9.4  T
   3    -87.1418284 -0.531504E-07  0.769E-04    1.70      19.2  T
   4    -87.1418284 -0.729909E-08  0.276E-04    1.70      53.5  T
   5    -87.1418284 -0.560377E-09  0.910E-05    1.70     162.0  T
   6    -87.1418284 -0.135785E-09  0.220E-05    1.70     669.6  T
     SCC iter.                  ...        0 min,  0.022 sec
     gradient                   ...        0 min,  0.040 sec
 * total energy  :   -86.3103034 Eh     change       -0.5373583E-04 Eh
   gradient norm :     0.0025763 Eh/α   predicted    -0.3414079E-04 ( -36.47%)
   displ. norm   :     0.3772464 α      lambda       -0.6623390E-04
   maximum displ.:     0.2773165 α      in ANC's #1, #2, #4, ...

........................................................................
.............................. CYCLE   42 ..............................
........................................................................
   1    -87.1420282 -0.871420E+02  0.336E-03    1.70       0.0  T
   2    -87.1420285 -0.313187E-06  0.183E-03    1.70       8.1  T
   3    -87.1420286 -0.560573E-07  0.867E-04    1.70      17.0  T
   4    -87.1420286 -0.643266E-08  0.335E-04    1.70      44.0  T
   5    -87.1420286 -0.139244E-08  0.105E-04    1.70     140.4  T
   6    -87.1420286 -0.176641E-09  0.270E-05    1.70     545.6  T
     SCC iter.                  ...        0 min,  0.022 sec
     gradient                   ...        0 min,  0.040 sec
 * total energy  :   -86.3103620 Eh     change       -0.5855543E-04 Eh
   gradient norm :     0.0022550 Eh/α   predicted    -0.3783098E-04 ( -35.39%)
   displ. norm   :     0.4874717 α      lambda       -0.7909091E-04
   maximum displ.:     0.3585926 α      in ANC's #1, #2, #4, ...
 * RMSD in coord.:     0.7183630 α      energy gain  -0.9217607E-03 Eh

generating ANC from model Hessian ...
Using Lindh-Hessian (1995)
 Shifting diagonal of input Hessian by   9.798285230171098E-003
 Lowest  eigenvalues of input Hessian
    0.000000    0.000000    0.000000    0.000000    0.000000    0.000000
    0.010000    0.010061    0.010457    0.010997    0.011952    0.012210
    0.012530    0.013353    0.013800    0.014411    0.016159    0.016733
 Highest eigenvalues
    2.059882    2.185288    2.196174    2.350593    2.391102    2.415788
 

........................................................................
.............................. CYCLE   43 ..............................
........................................................................
   1    -87.1414393 -0.871414E+02  0.444E-03    1.71       0.0  T
   2    -87.1414398 -0.488957E-06  0.219E-03    1.71       6.7  T
   3    -87.1414399 -0.406339E-07  0.107E-03    1.71      13.8  T
   4    -87.1414399 -0.106743E-07  0.433E-04    1.71      34.0  T
   5    -87.1414399 -0.253009E-08  0.122E-04    1.71     120.7  T
   6    -87.1414399 -0.306841E-09  0.371E-05    1.71     397.7  T
     SCC iter.                  ...        0 min,  0.022 sec
     gradient                   ...        0 min,  0.040 sec
 * total energy  :   -86.3104287 Eh     change       -0.6668909E-04 Eh
   gradient norm :     0.0025286 Eh/α   predicted     0.0000000E+00 (-100.00%)
   displ. norm   :     0.0244255 α      lambda       -0.1887401E-04
   maximum displ.:     0.0119237 α      in ANC's #1, #12, #4, ...

........................................................................
.............................. CYCLE   44 ..............................
........................................................................
   1    -87.1425930 -0.871426E+02  0.212E-03    1.71       0.0  T
   2    -87.1425930 -0.680715E-07  0.105E-03    1.71      14.0  T
   3    -87.1425930 -0.438727E-08  0.595E-04    1.71      24.8  T
   4    -87.1425930 -0.185739E-08  0.129E-04    1.71     114.3  T
   5    -87.1425930 -0.368644E-09  0.451E-05    1.71     326.8  T
     SCC iter.                  ...        0 min,  0.018 sec
     gradient                   ...        0 min,  0.040 sec
 * total energy  :   -86.3104436 Eh     change       -0.1495239E-04 Eh
   gradient norm :     0.0011147 Eh/α   predicted    -0.9470497E-05 ( -36.66%)
   displ. norm   :     0.0965258 α      lambda       -0.2617392E-04
   maximum displ.:     0.0489566 α      in ANC's #1, #4, #12, ...

........................................................................
.............................. CYCLE   45 ..............................
........................................................................
   1    -87.1443632 -0.871444E+02  0.439E-03    1.71       0.0  T
   2    -87.1443636 -0.488727E-06  0.209E-03    1.71       7.1  T
   3    -87.1443637 -0.375959E-07  0.120E-03    1.71      12.3  T
   4    -87.1443637 -0.376231E-08  0.351E-04    1.71      42.0  T
   5    -87.1443637 -0.242673E-08  0.109E-04    1.71     134.9  T
   6    -87.1443637 -0.513481E-09  0.187E-05    1.71     787.2  T
     SCC iter.                  ...        0 min,  0.022 sec
     gradient                   ...        0 min,  0.040 sec
 * total energy  :   -86.3104646 Eh     change       -0.2097401E-04 Eh
   gradient norm :     0.0022698 Eh/α   predicted    -0.1314158E-04 ( -37.34%)
   displ. norm   :     0.0387905 α      lambda       -0.1057323E-04
   maximum displ.:     0.0223465 α      in ANC's #1, #2, #4, ...

........................................................................
.............................. CYCLE   46 ..............................
........................................................................
   1    -87.1439217 -0.871439E+02  0.945E-04    1.71       0.0  T
   2    -87.1439217 -0.191722E-07  0.424E-04    1.71      34.8  T
   3    -87.1439217 -0.219671E-08  0.233E-04    1.71      63.4  T
   4    -87.1439217 -0.204793E-09  0.569E-05    1.71     259.0  T
   5    -87.1439217 -0.623999E-10  0.206E-05    1.71     715.2  T
     SCC iter.                  ...        0 min,  0.018 sec
     gradient                   ...        0 min,  0.040 sec
 * total energy  :   -86.3104742 Eh     change       -0.9654857E-05 Eh
   gradient norm :     0.0018000 Eh/α   predicted    -0.5402226E-05 ( -44.05%)
   displ. norm   :     0.1756527 α      lambda       -0.2832719E-04
   maximum displ.:     0.1016405 α      in ANC's #1, #2, #4, ...

........................................................................
.............................. CYCLE   47 ..............................
........................................................................
   1    -87.1417053 -0.871417E+02  0.423E-03    1.71       0.0  T
   2    -87.1417056 -0.319029E-06  0.200E-03    1.71       7.4  T
   3    -87.1417056 -0.320716E-07  0.113E-03    1.71      13.0  T
   4    -87.1417056 -0.630742E-08  0.244E-04    1.71      60.5  T
   5    -87.1417057 -0.133581E-08  0.889E-05    1.71     165.8  T
   6    -87.1417057 -0.255568E-09  0.219E-05    1.71     674.6  T
     SCC iter.                  ...        0 min,  0.022 sec
     gradient                   ...        0 min,  0.040 sec
 * total energy  :   -86.3104960 Eh     change       -0.2176755E-04 Eh
   gradient norm :     0.0016225 Eh/α   predicted    -0.1436130E-04 ( -34.02%)
   displ. norm   :     0.0436924 α      lambda       -0.6086334E-05
   maximum displ.:     0.0295940 α      in ANC's #1, #2, #3, ...

........................................................................
.............................. CYCLE   48 ..............................
........................................................................
   1    -87.1421173 -0.871421E+02  0.994E-04    1.71       0.0  T
   2    -87.1421173 -0.331614E-07  0.477E-04    1.71      30.9  T
   3    -87.1421173 -0.398008E-08  0.228E-04    1.71      64.7  T
   4    -87.1421173 -0.826077E-10  0.101E-04    1.71     146.4  T
   5    -87.1421173 -0.180151E-09  0.228E-05    1.71     647.5  T
     SCC iter.                  ...        0 min,  0.018 sec
     gradient                   ...        0 min,  0.040 sec
 * total energy  :   -86.3105041 Eh     change       -0.8124670E-05 Eh
   gradient norm :     0.0010907 Eh/α   predicted    -0.3053358E-05 ( -62.42%)
   displ. norm   :     0.1052169 α      lambda       -0.1636263E-04
   maximum displ.:     0.0670480 α      in ANC's #1, #2, #3, ...

........................................................................
.............................. CYCLE   49 ..............................
........................................................................
   1    -87.1433069 -0.871433E+02  0.297E-03    1.71       0.0  T
   2    -87.1433072 -0.265497E-06  0.137E-03    1.71      10.7  T
   3    -87.1433072 -0.317804E-07  0.653E-04    1.71      22.6  T
   4    -87.1433072 -0.116822E-08  0.245E-04    1.71      60.1  T
   5    -87.1433072 -0.840856E-09  0.614E-05    1.71     240.2  T
   6    -87.1433072 -0.670042E-10  0.246E-05    1.71     600.4  T
     SCC iter.                  ...        0 min,  0.022 sec
     gradient                   ...        0 min,  0.040 sec
 * total energy  :   -86.3105213 Eh     change       -0.1719075E-04 Eh
   gradient norm :     0.0010645 Eh/α   predicted    -0.8222580E-05 ( -52.17%)
   displ. norm   :     0.1442432 α      lambda       -0.1348873E-04
   maximum displ.:     0.0925393 α      in ANC's #1, #2, #3, ...

........................................................................
.............................. CYCLE   50 ..............................
........................................................................
   1    -87.1434871 -0.871435E+02  0.204E-03    1.71       0.0  T
   2    -87.1434872 -0.128337E-06  0.100E-03    1.71      14.7  T
   3    -87.1434872 -0.170115E-07  0.461E-04    1.71      32.0  T
   4    -87.1434872 -0.202832E-08  0.157E-04    1.71      94.1  T
   5    -87.1434872 -0.382357E-09  0.489E-05    1.71     301.7  T
     SCC iter.                  ...        0 min,  0.018 sec
     gradient                   ...        0 min,  0.040 sec
 * total energy  :   -86.3105373 Eh     change       -0.1600000E-04 Eh
   gradient norm :     0.0016160 Eh/α   predicted    -0.6807654E-05 ( -57.45%)
   displ. norm   :     0.1850564 α      lambda       -0.1502719E-04
   maximum displ.:     0.1187308 α      in ANC's #1, #2, #3, ...

........................................................................
.............................. CYCLE   51 ..............................
........................................................................
   1    -87.1431808 -0.871432E+02  0.249E-03    1.71       0.0  T
   2    -87.1431810 -0.157853E-06  0.118E-03    1.71      12.5  T
   3    -87.1431810 -0.197188E-07  0.604E-04    1.71      24.4  T
   4    -87.1431810 -0.630584E-08  0.172E-04    1.71      85.9  T
   5    -87.1431810 -0.306514E-09  0.582E-05    1.71     253.2  T
     SCC iter.                  ...        0 min,  0.018 sec
     gradient                   ...        0 min,  0.040 sec
 * total energy  :   -86.3105568 Eh     change       -0.1951726E-04 Eh
   gradient norm :     0.0014366 Eh/α   predicted    -0.7628419E-05 ( -60.91%)
   displ. norm   :     0.2347752 α      lambda       -0.1839766E-04
   maximum displ.:     0.1506584 α      in ANC's #1, #2, #3, ...

........................................................................
.............................. CYCLE   52 ..............................
........................................................................
   1    -87.1426039 -0.871426E+02  0.353E-03    1.71       0.0  T
   2    -87.1426042 -0.338767E-06  0.168E-03    1.71       8.8  T
   3    -87.1426042 -0.469775E-07  0.853E-04    1.71      17.3  T
   4    -87.1426042 -0.889328E-08  0.272E-04    1.71      54.3  T
   5    -87.1426043 -0.836721E-09  0.877E-05    1.71     168.1  T
   6    -87.1426043 -0.183874E-09  0.314E-05    1.71     469.3  T
     SCC iter.                  ...        0 min,  0.022 sec
     gradient                   ...        0 min,  0.040 sec
 * total energy  :   -86.3105788 Eh     change       -0.2194239E-04 Eh
   gradient norm :     0.0008100 Eh/α   predicted    -0.9425531E-05 ( -57.04%)
   displ. norm   :     0.2013783 α      lambda       -0.1260787E-04
   maximum displ.:     0.1316521 α      in ANC's #1, #2, #3, ...

........................................................................
.............................. CYCLE   53 ..............................
........................................................................
   1    -87.1422874 -0.871423E+02  0.317E-03    1.71       0.0  T
   2    -87.1422877 -0.307991E-06  0.148E-03    1.71       9.9  T
   3    -87.1422877 -0.364903E-07  0.725E-04    1.71      20.3  T
   4    -87.1422877 -0.570918E-08  0.266E-04    1.71      55.5  T
   5    -87.1422877 -0.825594E-09  0.801E-05    1.71     184.1  T
   6    -87.1422877 -0.151999E-09  0.265E-05    1.71     555.5  T
     SCC iter.                  ...        0 min,  0.022 sec
     gradient                   ...        0 min,  0.040 sec
 * total energy  :   -86.3105923 Eh     change       -0.1348288E-04 Eh
   gradient norm :     0.0007520 Eh/α   predicted    -0.6421404E-05 ( -52.37%)
   displ. norm   :     0.1096999 α      lambda       -0.6159818E-05
   maximum displ.:     0.0744316 α      in ANC's #1, #2, #3, ...

........................................................................
.............................. CYCLE   54 ..............................
........................................................................
   1    -87.1425153 -0.871425E+02  0.148E-03    1.71       0.0  T
   2    -87.1425154 -0.672322E-07  0.692E-04    1.71      21.3  T
   3    -87.1425154 -0.585595E-08  0.350E-04    1.71      42.2  T
   4    -87.1425154 -0.141144E-08  0.130E-04    1.71     113.1  T
   5    -87.1425154 -0.188990E-09  0.397E-05    1.71     371.7  T
     SCC iter.                  ...        0 min,  0.018 sec
     gradient                   ...        0 min,  0.040 sec
 * total energy  :   -86.3105997 Eh     change       -0.7466487E-05 Eh
   gradient norm :     0.0006609 Eh/α   predicted    -0.3098473E-05 ( -58.50%)
   displ. norm   :     0.0919851 α      lambda       -0.6146656E-05
   maximum displ.:     0.0631873 α      in ANC's #1, #2, #3, ...

........................................................................
.............................. CYCLE   55 ..............................
........................................................................
   1    -87.1428338 -0.871428E+02  0.102E-03    1.71       0.0  T
   2    -87.1428339 -0.361422E-07  0.465E-04    1.71      31.7  T
   3    -87.1428339 -0.248680E-08  0.238E-04    1.71      61.9  T
   4    -87.1428339 -0.496243E-09  0.938E-05    1.71     157.2  T
   5    -87.1428339 -0.883631E-10  0.301E-05    1.71     489.5  T
     SCC iter.                  ...        0 min,  0.018 sec
     gradient                   ...        0 min,  0.040 sec
 * total energy  :   -86.3106077 Eh     change       -0.7932264E-05 Eh
   gradient norm :     0.0005772 Eh/α   predicted    -0.3086636E-05 ( -61.09%)
   displ. norm   :     0.1183763 α      lambda       -0.8103026E-05
   maximum displ.:     0.0803044 α      in ANC's #1, #2, #3, ...

........................................................................
.............................. CYCLE   56 ..............................
........................................................................
   1    -87.1430025 -0.871430E+02  0.107E-03    1.71       0.0  T
   2    -87.1430026 -0.396787E-07  0.494E-04    1.71      29.8  T
   3    -87.1430026 -0.327907E-08  0.256E-04    1.71      57.6  T
   4    -87.1430026 -0.381519E-09  0.902E-05    1.71     163.5  T
   5    -87.1430026 -0.555218E-10  0.365E-05    1.71     403.8  T
     SCC iter.                  ...        0 min,  0.018 sec
     gradient                   ...        0 min,  0.040 sec
 * total energy  :   -86.3106174 Eh     change       -0.9746693E-05 Eh
   gradient norm :     0.0004945 Eh/α   predicted    -0.4077523E-05 ( -58.17%)
   displ. norm   :     0.1148390 α      lambda       -0.6178316E-05
   maximum displ.:     0.0777376 α      in ANC's #1, #2, #3, ...

........................................................................
.............................. CYCLE   57 ..............................
........................................................................
   1    -87.1429993 -0.871430E+02  0.841E-04    1.71       0.0  T
   2    -87.1429993 -0.191858E-07  0.415E-04    1.71      35.5  T
   3    -87.1429993 -0.145751E-08  0.223E-04    1.71      66.1  T
   4    -87.1429993 -0.253578E-09  0.654E-05    1.71     225.5  T
   5    -87.1429993 -0.306528E-10  0.255E-05    1.71     577.4  T
     SCC iter.                  ...        0 min,  0.018 sec
     gradient                   ...        0 min,  0.040 sec
 * total energy  :   -86.3106243 Eh     change       -0.6940270E-05 Eh
   gradient norm :     0.0004816 Eh/α   predicted    -0.3110649E-05 ( -55.18%)
   displ. norm   :     0.0774588 α      lambda       -0.3187196E-05
   maximum displ.:     0.0534496 α      in ANC's #1, #2, #3, ...

........................................................................
.............................. CYCLE   58 ..............................
........................................................................
   1    -87.1429879 -0.871430E+02  0.552E-04    1.71       0.0  T
   2    -87.1429879 -0.120709E-07  0.257E-04    1.71      57.3  T
   3    -87.1429879 -0.673211E-09  0.125E-04    1.71     118.1  T
   4    -87.1429879 -0.502780E-10  0.546E-05    1.71     270.1  T
     SCC iter.                  ...        0 min,  0.015 sec
     gradient                   ...        0 min,  0.041 sec
 * total energy  :   -86.3106281 Eh     change       -0.3755339E-05 Eh
   gradient norm :     0.0003486 Eh/α   predicted    -0.1601989E-05 ( -57.34%)
   displ. norm   :     0.0573139 α      lambda       -0.2436762E-05
   maximum displ.:     0.0400382 α      in ANC's #1, #2, #8, ...

   *** GEOMETRY OPTIMIZATION CONVERGED AFTER 58 ITERATIONS ***

------------------------------------------------------------------------
 total energy gain   :        -0.0285998 Eh      -17.9467 kcal/mol
 total RMSD          :         1.2401104 a0        0.6562 Å
 total power (kW/mol):        -1.2946342 (step)  -13.6406 (real)
------------------------------------------------------------------------

 ANCopt (total)                0 d,  0 h,  0 min,  5.505 sec
 optimizer setup                ...        0 min,  0.001 sec (  0.012%)
 model hessian                  ...        0 min,  0.082 sec (  1.498%)
 ANC generation                 ...        0 min,  0.008 sec (  0.136%)
 coordinate transformation      ...        0 min,  0.001 sec (  0.019%)
 single point calculation       ...        0 min,  5.397 sec ( 98.048%)
 optimization log               ...        0 min,  0.009 sec (  0.155%)
 hessian update                 ...        0 min,  0.001 sec (  0.019%)
 rational function              ...        0 min,  0.004 sec (  0.070%)

================
 final structure:
================
46
 xtb: 6.5.1 (579679a)
C           -5.02034455928776       -1.57316063331476       -2.74121262157414
O           -3.95587621931055       -1.16698980177513       -1.86489582929829
C           -4.25731571684755       -0.29464049877346       -0.93094855334516
O           -5.36031113618297        0.18997884077625       -0.76780148467926
C           -3.11358370867422        0.06976383699645       -0.04853214679323
C           -3.29603577610373        0.92451154122328        0.99958159447245
O           -4.44270948897999        1.48452620997124        1.33612738010957
C           -2.18143374347835        1.20131816374822        1.91416542545548
O           -2.22791574856145        1.70505523280287        2.98791761972447
N           -0.81455506702629        0.85647727927922        1.33883892425084
C            0.12775082979777        0.69399945847537        2.47774943140910
C           -0.47004330865237        2.11407163664230        0.58140425996573
C           -0.83866953728165       -0.28804235963159        0.36242566645477
C            0.36291408553206       -1.17671725306494        0.10025798171102
C            0.43285618779516       -2.26592033792347        1.18249620188534
C            0.17744627642189       -1.85541728402296       -1.26812425748222
N            1.62442109889291       -0.44525327427789        0.11241099561950
C            1.91369469504906        0.48539514292204       -0.83682086272091
O            1.08581932347868        0.97086406817315       -1.58950860560482
C            3.32989270429337        0.89634018977568       -0.81655718454159
N            3.93444920755936        1.74256143062172       -1.59148083983595
N            5.23165235574565        1.78681027165643       -1.18828988371010
C            5.34392627114749        0.96498669867462       -0.18950554439063
C            6.55102263957280        0.65202086495221        0.60410841869750
O            4.17536964336813        0.36751420803531        0.09459283523691
N           -1.90652188874165       -0.56302795228655       -0.25205754752401
H           -5.80067821449083       -2.07065794892385       -2.16245278582087
H           -5.43765567868414       -0.69845013500567       -3.24351588877431
H           -4.57965620839091       -2.25865684402370       -3.46147865009960
H           -5.15642071535251        1.21087021224060        0.70308116632456
H           -0.22314892736009       -0.12152501028805        3.10273806225737
H            1.11708388495431        0.49461024912918        2.08361420793236
H            0.13011635380895        1.62333740707266        3.04209489316525
H            0.60585187193406        2.13798277659211        0.45338458937614
H           -0.96703515260359        2.09003499213306       -0.38463801564987
H           -0.79194970486211        2.96908301341890        1.17098730932782
H            1.16445318411517       -3.01411138211760        0.88166738528632
H            0.73399939527149       -1.85616508941748        2.14216282101081
H           -0.53947495189206       -2.74420129957892        1.28746653613454
H           -0.67971767286451       -2.52461317855012       -1.22921217630518
H            1.07206986188265       -2.42965599488299       -1.50031325253778
H            0.01092608115506       -1.11285546684071       -2.04609659580956
H            2.39287210631125       -0.87407903472842        0.60363101991731
H            6.79308159837970       -0.40631098623209        0.50603012271050
H            7.38835504545427        1.25349005911605        0.25781844503185
H            6.36102942369492        0.85484598123896        1.65772843300185
 
 Bond Distances (Angstroems)
 ---------------------------
C1-O2=1.4374         C1-H27=1.0915        C1-H28=1.0916        C1-H29=1.0876        O2-C1=1.4374         O2-C3=1.3131         
C3-O2=1.3131         C3-O4=1.2158         C3-C5=1.4898         O4-C3=1.2158         C5-C3=1.4898         C5-C6=1.3647         
C5-N26=1.3780        C6-C5=1.3647         C6-O7=1.3198         C6-C8=1.4681         O7-C6=1.3198         O7-H30=0.9925        
C8-C6=1.4681         C8-O9=1.1870         C8-N10=1.5226        O9-C8=1.1870         N10-C8=1.5226        N10-C11=1.4871       
N10-C12=1.5080       N10-C13=1.5046       C11-N10=1.4871       C11-H31=1.0857       C11-H32=1.0835       C11-H33=1.0873       
C12-N10=1.5080       C12-H34=1.0837       C12-H35=1.0867       C12-H36=1.0873       C13-N10=1.5046       C13-C14=1.5173       
C13-N26=1.2623       C14-C13=1.5173       C14-C15=1.5370       C14-C16=1.5387       C14-N17=1.4583       C15-C14=1.5370       
C15-H37=1.0888       C15-H38=1.0861       C15-H39=1.0887       C16-C14=1.5387       C16-H40=1.0881       C16-H41=1.0881       
C16-H42=1.0883       N17-C14=1.4583       N17-C18=1.3605       N17-H43=1.0078       C18-N17=1.3605       C18-O19=1.2197       
C18-C20=1.4748       O19-C18=1.2197       C20-C18=1.4748       C20-N21=1.2970       C20-O25=1.3508       N21-C20=1.2970       
N21-N22=1.3591       N22-N21=1.3591       N22-C23=1.2983       C23-N22=1.2983       C23-C24=1.4781       C23-O25=1.3428       
[...]
N26-C5-C6=121.21               O7-C6-C5=125.29                C8-C6-C5=119.67                C8-C6-O7=114.88                
H30-O7-C6=110.19               O9-C8-C6=127.87                N10-C8-C6=113.79               N10-C8-O9=118.24               
C11-N10-C8=107.71              C12-N10-C8=101.89              C12-N10-C11=109.33             C13-N10-C8=113.77              
C13-N10-C11=115.09             C13-N10-C12=108.18             
 
 selected dihedral angles (degree)
 ---------------------------------
C3-O2-C1-H27=297.61           C3-O2-C1-H28= 58.01           C3-O2-C1-H29=177.91           O4-C3-O2-C1=359.54            
C5-C3-O2-C1=179.29            C6-C5-C3-O2=182.69            C6-C5-C3-O4=  2.45            N26-C5-C3-O2=357.35           
N26-C5-C3-O4=177.10           O7-C6-C5-C3=  0.51            O7-C6-C5-N26=186.02           C8-C6-C5-C3=175.81            
C8-C6-C5-N26=  1.32           H30-O7-C6-C5=358.74           H30-O7-C6-C8=183.24           O9-C8-C6-C5=195.19            
O9-C8-C6-O7= 10.97            N10-C8-C6-C5= 18.98           N10-C8-C6-O7=194.75           C11-N10-C8-C6=200.80          
C11-N10-C8-O9= 24.19          C12-N10-C8-C6= 85.82          C12-N10-C8-O9=269.21          C13-N10-C8-C6=329.63          
C13-N10-C8-O9=153.02          
           -------------------------------------------------
          |                Final Singlepoint                |
           -------------------------------------------------

          ...................................................
          :                      SETUP                      :
          :.................................................:
          :  # basis functions                 144          :
          :  # atomic orbitals                 144          :
          :  # shells                           92          :
          :  # electrons                       140          :
          :  # halogen bonds                     0          :
          :  max. iterations                   250          :
          :  Hamiltonian                  GFN1-xTB          :
          :  restarted?                      false          :
          :  GBSA solvation                   true          :
          :  PC potential                    false          :
          :  electronic temp.          300.0000000     K    :
          :  accuracy                    1.0000000          :
          :  -> integral cutoff          0.2500000E+02      :
          :  -> integral neglect         0.1000000E-07      :
          :  -> SCF convergence          0.1000000E-05 Eh   :
          :  -> wf. convergence          0.2000000E-04 e    :
          :  Broyden damping             0.4000000          :
          ...................................................

 iter      E             dE          RMSdq      gap      omega  full diag
   1    -87.1429879 -0.871430E+02  0.154E-05    1.71       0.0  T
   2    -87.1429879 -0.305533E-11  0.899E-06    1.71    1639.7  T
   3    -87.1429879 -0.568434E-12  0.480E-06    1.71    3069.2  T

   *** convergence criteria satisfied after 3 iterations ***

         #    Occupation            Energy/Eh            Energy/eV
      -------------------------------------------------------------
         1        2.0000           -0.8987257             -24.4556
       ...           ...                  ...                  ...
        64        2.0000           -0.4922764             -13.3955
        65        2.0000           -0.4880559             -13.2807
        66        2.0000           -0.4842759             -13.1778
        67        2.0000           -0.4826252             -13.1329
        68        2.0000           -0.4737370             -12.8910
        69        2.0000           -0.4626909             -12.5905
        70        2.0000           -0.4611414             -12.5483 (HOMO)
        71                         -0.3982517             -10.8370 (LUMO)
        72                         -0.3300743              -8.9818
        73                         -0.3280174              -8.9258
        74                         -0.2982474              -8.1157
        75                         -0.2649464              -7.2096
       ...                                ...                  ...
       144                          0.7286989              19.8289
      -------------------------------------------------------------
                  HL-Gap            0.0628897 Eh            1.7113 eV
             Fermi-level           -0.4296966 Eh          -11.6926 eV

 SCC (total)                   0 d,  0 h,  0 min,  0.073 sec
 SCC setup                      ...        0 min,  0.001 sec (  1.687%)
 Dispersion                     ...        0 min,  0.000 sec (  0.230%)
 classical contributions        ...        0 min,  0.000 sec (  0.106%)
 integral evaluation            ...        0 min,  0.018 sec ( 25.150%)
 iterations                     ...        0 min,  0.011 sec ( 15.484%)
 molecular gradient             ...        0 min,  0.041 sec ( 56.271%)
 printout                       ...        0 min,  0.001 sec (  1.052%)

         :::::::::::::::::::::::::::::::::::::::::::::::::::::
         ::                     SUMMARY                     ::
         :::::::::::::::::::::::::::::::::::::::::::::::::::::
         :: total energy             -86.310628099526 Eh    ::
         :: total w/o Gsasa/hb       -86.286868392637 Eh    ::
         :: gradient norm              0.000348714328 Eh/a0 ::
         :: HOMO-LUMO gap              1.711315960841 eV    ::
         ::.................................................::
         :: SCC energy               -87.142987903544 Eh    ::
         :: -> electrostatic           0.406954622434 Eh    ::
         :: -> Gsolv                  -0.113199904821 Eh    ::
         ::    -> Gelec               -0.089440197932 Eh    ::
         ::    -> Gsasa               -0.024330327214 Eh    ::
         ::    -> Ghb                 -0.007053658680 Eh    ::
         ::    -> Gshift               0.007624279005 Eh    ::
         :: repulsion energy           0.863780910069 Eh    ::
         :: dispersion energy         -0.031421106051 Eh    ::
         :: halogen bond corr.         0.000000000000 Eh    ::
         :: add. restraining           0.000000000000 Eh    ::
         :: total charge               1.000000000000 e     ::
         :::::::::::::::::::::::::::::::::::::::::::::::::::::

           -------------------------------------------------
          |                Property Printout                |
           -------------------------------------------------

    * Orbital Energies and Occupations

         #    Occupation            Energy/Eh            Energy/eV
      -------------------------------------------------------------
         1        2.0000           -0.8987257             -24.4556
       ...           ...                  ...                  ...
        58        2.0000           -0.5312779             -14.4568
        59        2.0000           -0.5276912             -14.3592
        60        2.0000           -0.5206869             -14.1686
        61        2.0000           -0.5164965             -14.0546
        62        2.0000           -0.5149589             -14.0127
        63        2.0000           -0.5087007             -13.8425
        64        2.0000           -0.4922764             -13.3955
        65        2.0000           -0.4880559             -13.2807
        66        2.0000           -0.4842759             -13.1778
        67        2.0000           -0.4826252             -13.1329
        68        2.0000           -0.4737370             -12.8910
        69        2.0000           -0.4626909             -12.5905
        70        2.0000           -0.4611414             -12.5483 (HOMO)
        71                         -0.3982517             -10.8370 (LUMO)
        72                         -0.3300743              -8.9818
        73                         -0.3280174              -8.9258
        74                         -0.2982474              -8.1157
        75                         -0.2649464              -7.2096
        76                         -0.2148217              -5.8456
        77                         -0.2136647              -5.8141
        78                         -0.1666567              -4.5350
        79                         -0.1614125              -4.3923
        80                         -0.1481640              -4.0317
        81                         -0.1471233              -4.0034
       ...                                ...                  ...
       144                          0.7286989              19.8289
      -------------------------------------------------------------
                  HL-Gap            0.0628897 Eh            1.7113 eV
             Fermi-level           -0.4296966 Eh          -11.6926 eV

  Mulliken/CM5 charges         n(s)   n(p)   n(d)
     1C     0.15841  0.03703   0.987  2.854  0.000
     2O    -0.38768 -0.47126   1.680  4.708  0.000
     3C     0.58683  0.65219   0.959  2.454  0.000
     4O    -0.55246 -0.61812   1.722  4.831  0.000
     5C     0.07857  0.15270   1.047  2.874  0.000
     6C     0.25975  0.29291   1.018  2.722  0.000
     7O    -0.47769 -0.66455   1.694  4.784  0.000
     8C     0.48276  0.56764   1.038  2.479  0.000
     9O    -0.42639 -0.47653   1.715  4.712  0.000
    10N    -0.12715 -0.41380   1.508  3.619  0.000
    11C     0.02594 -0.06798   1.016  2.958  0.000
    12C     0.03265 -0.06264   1.024  2.943  0.000
    13C     0.27018  0.40785   1.061  2.669  0.000
    14C     0.15847  0.19833   1.064  2.777  0.000
    15C    -0.11661 -0.25875   1.030  3.087  0.000
    16C    -0.10169 -0.23963   1.023  3.079  0.000
    17N    -0.36110 -0.72425   1.442  3.919  0.000
    18C     0.47010  0.57563   0.984  2.546  0.000
    19O    -0.57001 -0.61932   1.726  4.844  0.000
    20C     0.32985  0.45532   1.001  2.669  0.000
    21N    -0.20818 -0.31216   1.565  3.644  0.000
    22N    -0.25821 -0.36556   1.562  3.696  0.000
    23C     0.39649  0.50479   1.010  2.593  0.000
    24C    -0.11264 -0.25002   1.013  3.099  0.000
    25O    -0.35587 -0.41349   1.696  4.660  0.000
    26N    -0.29641 -0.49210   1.509  3.788  0.000
    27H     0.06631  0.12784   0.934  0.000  0.000
    28H     0.06644  0.12836   0.934  0.000  0.000
    29H     0.06664  0.12695   0.933  0.000  0.000
    30H     0.43297  0.61868   0.567  0.000  0.000
    31H     0.08863  0.15464   0.911  0.000  0.000
    32H     0.08407  0.15813   0.916  0.000  0.000
    33H     0.10052  0.16922   0.899  0.000  0.000
    34H     0.09835  0.17079   0.902  0.000  0.000
    35H     0.09091  0.15988   0.909  0.000  0.000
    36H     0.09416  0.16033   0.906  0.000  0.000
    37H     0.07936  0.13484   0.921  0.000  0.000
    38H     0.06113  0.11880   0.939  0.000  0.000
    39H     0.06553  0.12089   0.934  0.000  0.000
    40H     0.05503  0.11370   0.945  0.000  0.000
    41H     0.06118  0.11803   0.939  0.000  0.000
    42H     0.06642  0.12996   0.934  0.000  0.000
    43H     0.28155  0.48705   0.718  0.000  0.000
    44H     0.08489  0.13938   0.915  0.000  0.000
    45H     0.07386  0.12952   0.926  0.000  0.000
    46H     0.08413  0.13879   0.916  0.000  0.000

Wiberg/Mayer (AO) data.
largest (>0.10) Wiberg bond orders for each atom

 ---------------------------------------------------------------------------
     #   Z sym  total        # sym  WBO       # sym  WBO       # sym  WBO
 ---------------------------------------------------------------------------
     1   6 C    3.849 --    29 H    0.985    28 H    0.978    27 H    0.977
                             2 O    0.876
     2   8 O    2.238 --     3 C    1.168     1 C    0.876     4 O    0.140
     3   6 C    3.861 --     4 O    1.616     2 O    1.168     5 C    0.999
     4   8 O    1.964 --     3 C    1.616     2 O    0.140
     5   6 C    3.960 --     6 C    1.517    26 N    1.112     3 C    0.999
                             7 O    0.113
     6   6 C    3.930 --     5 C    1.517     7 O    1.164     8 C    1.026
     7   8 O    2.127 --     6 C    1.164    30 H    0.748     5 C    0.113
     8   6 C    3.858 --     9 O    1.824     6 C    1.026    10 N    0.844
     9   8 O    2.086 --     8 C    1.824
    10   7 N    3.612 --    11 C    0.894    13 C    0.864    12 C    0.859
                             8 C    0.844
    11   6 C    3.881 --    31 H    0.978    33 H    0.976    32 H    0.974
                            10 N    0.894
    12   6 C    3.873 --    35 H    0.978    36 H    0.978    34 H    0.973
                            10 N    0.859
    13   6 C    3.896 --    26 N    1.787    14 C    0.984    10 N    0.864
    14   6 C    3.933 --    13 C    0.984    16 C    0.979    15 C    0.969
                            17 N    0.938
    15   6 C    3.982 --    39 H    0.983    38 H    0.979    37 H    0.976
                            14 C    0.969
    16   6 C    3.983 --    40 H    0.984    41 H    0.983    42 H    0.979
                            14 C    0.979
    17   7 N    3.321 --    18 C    1.217    14 C    0.938    43 H    0.885
                            19 O    0.162
    18   6 C    3.910 --    19 O    1.587    17 N    1.217    20 C    1.008
    19   8 O    1.911 --    18 C    1.587    17 N    0.162
    20   6 C    3.877 --    21 N    1.611    25 O    1.046    18 C    1.008
    21   7 N    3.006 --    20 C    1.611    22 N    1.210
    22   7 N    2.983 --    23 C    1.599    21 N    1.210
    23   6 C    3.864 --    22 N    1.599    25 O    1.074    24 C    1.034
    24   6 C    3.984 --    23 C    1.034    45 H    0.982    46 H    0.962
                            44 H    0.960
    25   8 O    2.318 --    23 C    1.074    20 C    1.046
    26   7 N    3.091 --    13 C    1.787     5 C    1.112
    27   1 H    1.002 --     1 C    0.977
    28   1 H    1.003 --     1 C    0.978
    29   1 H    1.007 --     1 C    0.985
    30   1 H    0.829 --     7 O    0.748
    31   1 H    0.996 --    11 C    0.978
    32   1 H    1.003 --    11 C    0.974
    33   1 H    0.995 --    11 C    0.976
    34   1 H    0.999 --    12 C    0.973
    35   1 H    1.002 --    12 C    0.978
    36   1 H    0.991 --    12 C    0.978
    37   1 H    0.993 --    15 C    0.976
    38   1 H    0.998 --    15 C    0.979
    39   1 H    0.998 --    15 C    0.983
    40   1 H    1.006 --    16 C    0.984
    41   1 H    0.998 --    16 C    0.983
    42   1 H    1.009 --    16 C    0.979
    43   1 H    0.928 --    17 N    0.885
    44   1 H    0.995 --    24 C    0.960
    45   1 H    0.997 --    24 C    0.982
    46   1 H    0.995 --    24 C    0.962
 ---------------------------------------------------------------------------

Topologies differ in total number of bonds
Writing topology from bond orders to xtbtopo.mol

 dipole moment from electron density (au)
     X       Y       Z   
   0.5230  -2.0598   2.7961  total (Debye):    8.927

           -------------------------------------------------
          |                Geometry Summary                 |
           -------------------------------------------------

      molecular mass/u    :      366.3497991
   center of mass at/Å    :       -0.1807556       0.2816250       0.0043681
  moments of inertia/u·Å² :        0.1220940E+04   0.4639593E+04   0.5115907E+04
rotational constants/cm⁻¹ :        0.1380709E-01   0.3633429E-02   0.3295140E-02

 * 39 selected distances

     #   Z          #   Z                                           value/Å
     1   6 C        2   8 O                                       1.4373584
     2   8 O        3   6 C                                       1.3130563
     3   6 C        4   8 O                                       1.2157599
     5   6 C        6   6 C                                       1.3647070
     6   6 C        7   8 O                                       1.3197501
     8   6 C        9   8 O                                       1.1869523
    10   7 N       11   6 C                                       1.4870968
    10   7 N       12   6 C                                       1.5079588
    14   6 C       15   6 C                                       1.5370411
    14   6 C       16   6 C                                       1.5386690 (max)
    14   6 C       17   7 N                                       1.4582824
    17   7 N       18   6 C                                       1.3604511
    18   6 C       19   8 O                                       1.2196708
    20   6 C       21   7 N                                       1.2969526
    22   7 N       23   6 C                                       1.2982950
    23   6 C       24   6 C                                       1.4781248
    20   6 C       25   8 O                                       1.3508082
    23   6 C       25   8 O                                       1.3428366
    13   6 C       26   7 N                                       1.2623453
     1   6 C       27   1 H                                       1.0915069
     1   6 C       28   1 H                                       1.0915932
     1   6 C       29   1 H                                       1.0876096
     7   8 O       30   1 H                                       0.9924812 (min)
    11   6 C       31   1 H                                       1.0857356
    11   6 C       32   1 H                                       1.0834568
    11   6 C       33   1 H                                       1.0872721
    12   6 C       34   1 H                                       1.0837488
    12   6 C       35   1 H                                       1.0866538
    12   6 C       36   1 H                                       1.0873254
    15   6 C       37   1 H                                       1.0888169
    15   6 C       38   1 H                                       1.0860694
    15   6 C       39   1 H                                       1.0886687
    16   6 C       40   1 H                                       1.0881487
    16   6 C       41   1 H                                       1.0881238
    16   6 C       42   1 H                                       1.0882868
    17   7 N       43   1 H                                       1.0078223
    24   6 C       44   1 H                                       1.0900818
    24   6 C       45   1 H                                       1.0875696
    24   6 C       46   1 H                                       1.0896563

 * 6 distinct bonds (by element types)

   Z      Z             #   av. dist./Å        max./Å        min./Å
   1 H    6 C          18     1.0877958     1.0915932     1.0834568
   6 C    6 C           4     1.4796355     1.5386690     1.3647070
   1 H    7 N           1     1.0078223     1.0078223     1.0078223
   6 C    7 N           7     1.3816260     1.5079588     1.2623453
   1 H    8 O           1     0.9924812     0.9924812     0.9924812
   6 C    8 O           8     1.2982741     1.4373584     1.1869523


optimized geometry written to: xtbopt.xyz


           -------------------------------------------------
          | TOTAL ENERGY              -86.310628099526 Eh   |
          | GRADIENT NORM               0.000348714328 Eh/α |
          | HOMO-LUMO GAP               1.711315960841 eV   |
           -------------------------------------------------

------------------------------------------------------------------------
 * finished run on 2023/06/20 at 15:54:52.718     
------------------------------------------------------------------------
 total:
 * wall-time:     0 d,  0 h,  0 min,  5.810 sec
 *  cpu-time:     0 d,  0 h,  0 min,  5.778 sec
 * ratio c/w:     0.994 speedup
 SCF:
 * wall-time:     0 d,  0 h,  0 min,  0.170 sec
 *  cpu-time:     0 d,  0 h,  0 min,  0.170 sec
 * ratio c/w:     1.000 speedup
 ANC optimizer:
 * wall-time:     0 d,  0 h,  0 min,  5.583 sec
 *  cpu-time:     0 d,  0 h,  0 min,  5.577 sec
 * ratio c/w:     0.999 speedup

