42
 energy: -82.955999097363 gnorm: 0.000402493670 xtb: 6.5.1 (579679a)
C            6.14031424911285        2.62032550225902       -0.79344419580440
C            4.83662821767264        1.94076024274030       -0.62502550464072
N            3.65665245700129        2.40777181613230       -0.89834132592648
N            2.76643683452206        1.42776488274764       -0.57235175677851
C            3.46007968399607        0.42697618763392       -0.12088187004846
C            2.92241976462484       -0.87953067135257        0.34576227915631
O            3.63109699200244       -1.80260170060140        0.71283557478777
N            1.57984943848335       -0.89046778922954        0.29523019297551
C            0.75086741520713       -2.03307045724267        0.66643542105581
C            0.98367208816112       -2.38414995888685        2.14347193711675
C            1.08126659451681       -3.22250785984720       -0.24644507381957
C           -0.68721267308001       -1.59505071230252        0.46566327727872
N           -0.95362745930981       -0.40100936020796        0.09676783119582
C           -2.27649129761648        0.00876532824538       -0.07643060707064
C           -2.34113394343556        1.32651533640622       -0.53350184847419
O           -1.54096555404965        2.16880917705471       -0.80759421146225
O           -3.84659507706726        1.78384690376390       -0.80264991494770
C           -3.91395226714721        2.69772380336227       -1.91603873469188
C           -4.48986424058760        2.28514378732674        0.39069152506372
C           -3.38255275936319       -0.86538081356890        0.17938265280791
O           -4.57296643780259       -0.55796272588660        0.11023877287462
C           -3.01231740596729       -2.28270191765465        0.58216650059404
O           -3.82966187891321       -3.15924013594759        0.79569152464256
N           -1.66955255392413       -2.53105050596461        0.70374703101879
O            4.77903707089644        0.69461352668469       -0.13209147371162
H            6.79926309062472        2.01584635513203       -1.41610141276669
H            5.98925177633300        3.59265602406477       -1.25546796707737
H            6.62003109394119        2.74984782370307        0.17678894836141
H            1.08410783154385       -0.06033334734185       -0.01601298351568
H            0.78226239810328       -1.51474845397235        2.76746365589285
H            0.32173134216661       -3.19519984962887        2.43939560232760
H            2.01480009999391       -2.70039348738276        2.29131864643684
H            0.44449439081974       -4.06950824511836       -0.00115812918897
H            0.92349484467649       -2.94722311348672       -1.28823578684650
H            2.12032956147379       -3.51569432335249       -0.10713069582172
H           -4.96473539618929        2.91480998350004       -2.09325525466173
H           -3.36343067221134        3.61166086751650       -1.68695920126958
H           -3.47721136659743        2.18958532182011       -2.77354597792223
H           -4.31834900618238        1.55717114442658        1.18008602436436
H           -4.07564359571542        3.25838286541643        0.65775470589380
H           -5.55408677953004        2.36034331672253        0.17495216802281
H           -1.41773387116400       -3.46572376764913        0.98681765460589
