      -----------------------------------------------------------      
     |                   =====================                   |     
     |                           x T B                           |     
     |                   =====================                   |     
     |                         S. Grimme                         |     
     |          Mulliken Center for Theoretical Chemistry        |     
     |                    University of Bonn                     |     
      -----------------------------------------------------------      

   * xtb version 6.5.1 (579679a) compiled by 'ehlert@majestix' on 2022-07-11

   xtb is free software: you can redistribute it and/or modify it under
   the terms of the GNU Lesser General Public License as published by
   the Free Software Foundation, either version 3 of the License, or
   (at your option) any later version.
   
   xtb is distributed in the hope that it will be useful,
   but WITHOUT ANY WARRANTY; without even the implied warranty of
   MERCHANTABILITY or FITNESS FOR A PARTICULAR PURPOSE.  See the
   GNU Lesser General Public License for more details.
   
   Cite this work as:
   * C. Bannwarth, E. Caldeweyher, S. Ehlert, A. Hansen, P. Pracht,
     J. Seibert, S. Spicher, S. Grimme, WIREs Comput. Mol. Sci., 2020, 11,
     e01493. DOI: 10.1002/wcms.1493
   
   for GFN2-xTB:
   * C. Bannwarth, S. Ehlert and S. Grimme., J. Chem. Theory Comput., 2019,
     15, 1652-1671. DOI: 10.1021/acs.jctc.8b01176
   for GFN1-xTB:
   * S. Grimme, C. Bannwarth, P. Shushkov, J. Chem. Theory Comput., 2017,
     13, 1989-2009. DOI: 10.1021/acs.jctc.7b00118
   for GFN0-xTB:
   * P. Pracht, E. Caldeweyher, S. Ehlert, S. Grimme, ChemRxiv, 2019, preprint.
     DOI: 10.26434/chemrxiv.8326202.v1
   for GFN-FF:
   * S. Spicher and S. Grimme, Angew. Chem. Int. Ed., 2020, 59, 15665-15673.
     DOI: 10.1002/anie.202004239
   
   for ALPB and GBSA implicit solvation:
   * S. Ehlert, M. Stahn, S. Spicher, S. Grimme, J. Chem. Theory Comput.,
     2021, 17, 4250-4261. DOI: 10.1021/acs.jctc.1c00471
   
   for DFT-D4:
   * E. Caldeweyher, C. Bannwarth and S. Grimme, J. Chem. Phys., 2017,
     147, 034112. DOI: 10.1063/1.4993215
   * E. Caldeweyher, S. Ehlert, A. Hansen, H. Neugebauer, S. Spicher,
     C. Bannwarth and S. Grimme, J. Chem. Phys., 2019, 150, 154122.
     DOI: 10.1063/1.5090222
   * E. Caldeweyher, J.-M. Mewes, S. Ehlert and S. Grimme, Phys. Chem. Chem. Phys.
     2020, 22, 8499-8512. DOI: 10.1039/D0CP00502A
   
   for sTDA-xTB:
   * S. Grimme and C. Bannwarth, J. Chem. Phys., 2016, 145, 054103.
     DOI: 10.1063/1.4959605
   
   in the mass-spec context:
   * V. Asgeirsson, C. Bauer and S. Grimme, Chem. Sci., 2017, 8, 4879.
     DOI: 10.1039/c7sc00601b
   * J. Koopman and S. Grimme, ACS Omega 2019, 4, 12, 15120-15133.
     DOI: 10.1021/acsomega.9b02011
   
   for metadynamics refer to:
   * S. Grimme, J. Chem. Theory Comput., 2019, 155, 2847-2862
     DOI: 10.1021/acs.jctc.9b00143
   
   for SPH calculations refer to:
   * S. Spicher and S. Grimme, J. Chem. Theory Comput., 2021, 17, 1701-1714
     DOI: 10.1021/acs.jctc.0c01306
   
   with help from (in alphabetical order)
   P. Atkinson, C. Bannwarth, F. Bohle, G. Brandenburg, E. Caldeweyher
   M. Checinski, S. Dohm, S. Ehlert, S. Ehrlich, I. Gerasimov, C. Hölzer
   A. Katbashev, J. Koopman, C. Lavigne, S. Lehtola, F. März, M. Müller,
   F. Musil, H. Neugebauer, J. Pisarek, C. Plett, P. Pracht, F. Pultar,
   J. Seibert, P. Shushkov, S. Spicher, M. Stahn, M. Steiner, T. Strunk,
   J. Stückrath, T. Rose, and J. Unsleber
   
 * started run on 2023/06/20 at 15:42:54.415     

           -------------------------------------------------
          |                Calculation Setup                |
           -------------------------------------------------

          program call               : /lustre/hpc/kemi/ree/PhD/git/ReactivityQM/dep/xtb-6.5.1/bin/xtb --gfn 1 /lustre/hpc/kemi/ree/PhD/git/ReactivityQM/calculations/R03/reac02prodN08/conf06/R03_reac02prodN08_conf06_gfn1.xyz --opt --vfukui --chrg 1 --uhf 0 --alpb DMSO
          hostname                   : node068
          coordinate file            : /lustre/hpc/kemi/ree/PhD/git/ReactivityQM/calculations/R03/reac02prodN08/conf06/R03_reac02prodN08_conf06_gfn1.xyz
          omp threads                :                     1

   ID    Z sym.   atoms
    1    6 C      1, 3, 4, 6, 8-11, 13, 15, 18, 19, 22, 23, 25
    2    8 O      2, 5, 14, 20, 24, 26
    3    7 N      7, 12, 16, 17, 21
    4    1 H      27-46

           -------------------------------------------------
          |                 G F N 1 - x T B                 |
           -------------------------------------------------

        Reference                      10.1021/acs.jctc.7b00118
      * Hamiltonian:
        H0-scaling (s, p, d)           1.850000    2.250000    2.000000
        zeta-weighting                 0.000000
      * Dispersion:
        s8                             2.400000
        a1                             0.630000
        a2                             5.000000
        s9                             0.000000
      * Repulsion:
        kExp                           1.500000
        rExp                           1.000000
      * Coulomb:
        alpha                          2.000000
        third order                    atomic
        anisotropic                    false
      * Halogen bond correction:
        rad-scale                      1.300000
        damping                        0.440000

      * Solvation model:               ALPB
        Solvent                        DMSO
        Parameter file                 internal GFN1-xTB/ALPB
        Dielectric constant                4.6680E+01
        Reference state                gsolv [1 M gas/solution]
        Free energy shift                  7.6243E-03 Eh       4.7843E+00 kcal/mol
        Temperature                        2.9815E+02 K
        Density                            1.1000E+00 kg/L
        Solvent mass                       7.8130E+01 g/mol
        Interaction kernel             P16
        Born radius scaling (c1)           1.7672E+00
        Born radii integrator          GBOBC
        Born offset                        0.0000E+00 a0       0.0000E+00 AA
        H-bond correction              true
        Ion screening                  false
        Surface tension                    1.0000E-05 Eh       1.5569E+01 dyn/cm
        Grid points                               230 per atom

          ...................................................
          :                      SETUP                      :
          :.................................................:
          :  # basis functions                 144          :
          :  # atomic orbitals                 144          :
          :  # shells                           92          :
          :  # electrons                       140          :
          :  # halogen bonds                     0          :
          :  max. iterations                   250          :
          :  Hamiltonian                  GFN1-xTB          :
          :  restarted?                      false          :
          :  GBSA solvation                   true          :
          :  PC potential                    false          :
          :  electronic temp.          300.0000000     K    :
          :  accuracy                    1.0000000          :
          :  -> integral cutoff          0.2500000E+02      :
          :  -> integral neglect         0.1000000E-07      :
          :  -> SCF convergence          0.1000000E-05 Eh   :
          :  -> wf. convergence          0.2000000E-04 e    :
          :  Broyden damping             0.4000000          :
          ...................................................

 iter      E             dE          RMSdq      gap      omega  full diag
   1    -86.4583804 -0.864584E+02  0.825E+00    0.11       0.0  T
   2    -86.7202036 -0.261823E+00  0.532E+00    0.51       1.0  T
   3    -86.6059049  0.114299E+00  0.312E+00    0.17       1.0  T
   4    -86.7021638 -0.962590E-01  0.185E+00    0.46       1.0  T
   5    -86.8511825 -0.149019E+00  0.121E+00    0.46       1.0  T
   6    -86.9268335 -0.756511E-01  0.716E-01    0.03       1.0  T
   7    -86.9517056 -0.248720E-01  0.493E-01    0.03       1.0  T
   8    -86.9372774  0.144282E-01  0.639E-01    0.20       1.0  T
   9    -86.9531836 -0.159063E-01  0.542E-01    0.03       1.0  T
  10    -86.9716704 -0.184868E-01  0.307E-01    0.08       1.0  T
  11    -86.9801690 -0.849851E-02  0.124E-01    0.05       1.0  T
  12    -86.9818080 -0.163904E-02  0.593E-02    0.03       1.0  T
  13    -86.9814489  0.359088E-03  0.716E-02    0.05       1.0  T
  14    -86.9810720  0.376910E-03  0.840E-02    0.03       1.0  T
  15    -86.9821254 -0.105344E-02  0.191E-02    0.03       1.0  T
  16    -86.9821206  0.485176E-05  0.191E-02    0.04       1.0  T
  17    -86.9821651 -0.445516E-04  0.408E-03    0.04       3.6  T
  18    -86.9821668 -0.169908E-05  0.188E-03    0.04       7.8  T
  19    -86.9821672 -0.378759E-06  0.414E-04    0.04      35.6  T
  20    -86.9821672  0.213466E-07  0.563E-04    0.04      26.2  T
  21    -86.9821672 -0.403834E-07  0.841E-05    0.04     175.3  T
  22    -86.9821672 -0.908940E-09  0.108E-05    0.04    1359.0  T

   *** convergence criteria satisfied after 22 iterations ***

         #    Occupation            Energy/Eh            Energy/eV
      -------------------------------------------------------------
         1        2.0000           -0.8905813             -24.2340
       ...           ...                  ...                  ...
        64        2.0000           -0.5038533             -13.7105
        65        2.0000           -0.4931720             -13.4199
        66        2.0000           -0.4887401             -13.2993
        67        2.0000           -0.4857189             -13.2171
        68        1.9949           -0.4755803             -12.9412
        69        1.9558           -0.4735074             -12.8848
        70        1.3720           -0.4706504             -12.8070 (HOMO)
        71        0.6773           -0.4692720             -12.7695 (LUMO)
        72                         -0.3532552              -9.6126
        73                         -0.3488306              -9.4922
        74                         -0.3251026              -8.8465
        75                         -0.2873444              -7.8190
       ...                                ...                  ...
       144                          0.6637175              18.0607
      -------------------------------------------------------------
                  HL-Gap            0.0013784 Eh            0.0375 eV
             Fermi-level           -0.4699078 Eh          -12.7868 eV

 SCC (total)                   0 d,  0 h,  0 min,  0.240 sec
 SCC setup                      ...        0 min,  0.002 sec (  0.900%)
 Dispersion                     ...        0 min,  0.000 sec (  0.144%)
 classical contributions        ...        0 min,  0.000 sec (  0.048%)
 integral evaluation            ...        0 min,  0.029 sec ( 12.212%)
 iterations                     ...        0 min,  0.139 sec ( 57.981%)
 molecular gradient             ...        0 min,  0.067 sec ( 28.068%)
 printout                       ...        0 min,  0.002 sec (  0.638%)

         :::::::::::::::::::::::::::::::::::::::::::::::::::::
         ::                     SUMMARY                     ::
         :::::::::::::::::::::::::::::::::::::::::::::::::::::
         :: total energy             -86.185969679207 Eh    ::
         :: total w/o Gsasa/hb       -86.160059905951 Eh    ::
         :: gradient norm              0.135343430705 Eh/a0 ::
         :: HOMO-LUMO gap              0.037508146614 eV    ::
         ::.................................................::
         :: SCC energy               -86.982167238156 Eh    ::
         :: -> electrostatic           0.402799938607 Eh    ::
         :: -> Gsolv                  -0.101972393723 Eh    ::
         ::    -> Gelec               -0.076062620467 Eh    ::
         ::    -> Gsasa               -0.024651800495 Eh    ::
         ::    -> Ghb                 -0.008882251766 Eh    ::
         ::    -> Gshift               0.007624279005 Eh    ::
         :: repulsion energy           0.825322660353 Eh    ::
         :: dispersion energy         -0.029125101404 Eh    ::
         :: halogen bond corr.         0.000000000000 Eh    ::
         :: add. restraining           0.000000000000 Eh    ::
         :: total charge               1.000000000253 e     ::
         :::::::::::::::::::::::::::::::::::::::::::::::::::::

      ----------------------------------------------------------- 
     |                   =====================                   |
     |                        A N C O P T                        |
     |                   =====================                   |
     |               Approximate Normal Coordinate               |
     |                Rational Function Optimizer                |
      ----------------------------------------------------------- 

          ...................................................
          :                      SETUP                      :
          :.................................................:
          :   optimization level            normal          :
          :   max. optcycles                   200          :
          :   ANC micro-cycles                  20          :
          :   degrees of freedom               132          :
          :.................................................:
          :   RF solver                   davidson          :
          :   write xtbopt.log                true          :
          :   linear?                        false          :
          :   energy convergence         0.5000000E-05 Eh   :
          :   grad. convergence          0.1000000E-02 Eh/α :
          :   maximium RF displ.         1.0000000          :
          :   Hlow (freq-cutoff)         0.1000000E-01      :
          :   Hmax (freq-cutoff)         5.0000000          :
          :   S6 in model hess.         20.0000000          :
          ...................................................

generating ANC from model Hessian ...
Using Lindh-Hessian (1995)
 Shifting diagonal of input Hessian by   9.820136740724093E-003
 Lowest  eigenvalues of input Hessian
    0.000000    0.000000    0.000000    0.000000    0.000000    0.000000
    0.010000    0.010214    0.010595    0.011251    0.011619    0.012138
    0.012377    0.013372    0.014149    0.015080    0.015797    0.017369
 Highest eigenvalues
    1.965845    2.049125    2.117182    2.189834    2.363166    2.395081
 

........................................................................
.............................. CYCLE    1 ..............................
........................................................................
   1    -86.9821672 -0.869822E+02  0.133E-06    0.04       0.0  T
   2    -86.9821672  0.128040E-10  0.102E-05    0.04    1452.5  T
   3    -86.9821672 -0.125198E-10  0.179E-06    0.04    8251.8  T
     SCC iter.                  ...        0 min,  0.019 sec
     gradient                   ...        0 min,  0.069 sec
 * total energy  :   -86.1859697 Eh     change       -0.1469402E-10 Eh
   gradient norm :     0.1353431 Eh/α   predicted     0.0000000E+00 (-100.00%)
   displ. norm   :     0.3739674 α      lambda       -0.2128748E-01
   maximum displ.:     0.1434525 α      in ANC's #23, #24, #13, ...

........................................................................
.............................. CYCLE    2 ..............................
........................................................................
   1    -86.9899292 -0.869899E+02  0.337E-01    0.12       0.0  T
   2    -86.7491049  0.240824E+00  0.137E+00    0.10       1.0  T
   3    -86.8776059 -0.128501E+00  0.103E+00    0.13       1.0  T
   4    -86.9943749 -0.116769E+00  0.293E-01    0.02       1.0  T
   5    -87.0023397 -0.796486E-02  0.159E-01    0.03       1.0  T
   6    -87.0048197 -0.247997E-02  0.613E-02    0.05       1.0  T
   7    -87.0051823 -0.362560E-03  0.304E-02    0.05       1.0  T
   8    -87.0051734  0.889109E-05  0.284E-02    0.05       1.0  T
   9    -87.0051538  0.195753E-04  0.330E-02    0.05       1.0  T
  10    -87.0052821 -0.128308E-03  0.363E-03    0.05       4.1  T
  11    -87.0052817  0.458192E-06  0.394E-03    0.05       3.7  T
  12    -87.0052832 -0.156513E-05  0.146E-03    0.05      10.1  T
  13    -87.0052834 -0.220044E-06  0.415E-04    0.05      35.5  T
  14    -87.0052835 -0.259924E-07  0.470E-05    0.05     313.6  T
  15    -87.0052835  0.182881E-08  0.130E-04    0.05     113.1  T
     SCC iter.                  ...        0 min,  0.094 sec
     gradient                   ...        0 min,  0.067 sec
 * total energy  :   -86.2024236 Eh     change       -0.1645390E-01 Eh
   gradient norm :     0.0832094 Eh/α   predicted    -0.1215059E-01 ( -26.15%)
   displ. norm   :     0.4115574 α      lambda       -0.1575802E-01
   maximum displ.:     0.1167331 α      in ANC's #5, #23, #24, ...

........................................................................
.............................. CYCLE    3 ..............................
........................................................................
   1    -87.0124605 -0.870125E+02  0.371E-01    0.24       0.0  T
   2    -86.8774107  0.135050E+00  0.115E+00    0.11       1.0  T
   3    -87.0267093 -0.149299E+00  0.116E-01    0.12       1.0  T
   4    -87.0226958  0.401358E-02  0.205E-01    0.06       1.0  T
   5    -87.0281913 -0.549553E-02  0.506E-02    0.10       1.0  T
   6    -87.0273097  0.881582E-03  0.905E-02    0.08       1.0  T
   7    -87.0283949 -0.108519E-02  0.280E-02    0.09       1.0  T
   8    -87.0284878 -0.929225E-04  0.775E-03    0.09       1.9  T
   9    -87.0284967 -0.884473E-05  0.189E-03    0.10       7.8  T
  10    -87.0284968 -0.928724E-07  0.153E-03    0.10       9.6  T
  11    -87.0284970 -0.258183E-06  0.700E-04    0.10      21.1  T
  12    -87.0284971 -0.500912E-07  0.873E-05    0.10     168.9  T
  13    -87.0284971  0.426226E-09  0.810E-05    0.10     182.0  T
     SCC iter.                  ...        0 min,  0.081 sec
     gradient                   ...        0 min,  0.066 sec
 * total energy  :   -86.2122860 Eh     change       -0.9862457E-02 Eh
   gradient norm :     0.0318537 Eh/α   predicted    -0.9213555E-02 (  -6.58%)
   displ. norm   :     0.3844141 α      lambda       -0.4487508E-02
   maximum displ.:     0.1966834 α      in ANC's #5, #12, #13, ...

........................................................................
.............................. CYCLE    4 ..............................
........................................................................
   1    -87.0279621 -0.870280E+02  0.215E-01    0.26       0.0  T
   2    -86.8636604  0.164302E+00  0.112E+00    0.09       1.0  T
   3    -87.0305694 -0.166909E+00  0.149E-01    0.19       1.0  T
   4    -87.0315366 -0.967225E-03  0.113E-01    0.20       1.0  T
   5    -87.0325306 -0.993979E-03  0.677E-02    0.18       1.0  T
   6    -87.0330994 -0.568759E-03  0.229E-02    0.14       1.0  T
   7    -87.0329855  0.113834E-03  0.338E-02    0.13       1.0  T
   8    -87.0331455 -0.159998E-03  0.475E-03    0.14       3.1  T
   9    -87.0331455  0.459335E-07  0.418E-03    0.14       3.5  T
  10    -87.0331480 -0.256961E-05  0.430E-04    0.14      34.3  T
  11    -87.0331480  0.295005E-08  0.393E-04    0.14      37.5  T
  12    -87.0331481 -0.674490E-08  0.267E-04    0.14      55.3  T
  13    -87.0331481 -0.718276E-08  0.111E-04    0.14     132.6  T
  14    -87.0331481 -0.151823E-08  0.374E-05    0.14     394.2  T
     SCC iter.                  ...        0 min,  0.086 sec
     gradient                   ...        0 min,  0.069 sec
 * total energy  :   -86.2156005 Eh     change       -0.3314510E-02 Eh
   gradient norm :     0.0246526 Eh/α   predicted    -0.2575899E-02 ( -22.28%)
   displ. norm   :     0.4843516 α      lambda       -0.3229940E-02
   maximum displ.:     0.3028890 α      in ANC's #5, #12, #7, ...

........................................................................
.............................. CYCLE    5 ..............................
........................................................................
   1    -87.0323869 -0.870324E+02  0.158E-01    0.27       0.0  T
   2    -86.9405085  0.918784E-01  0.845E-01    0.06       1.0  T
   3    -87.0340868 -0.935783E-01  0.948E-02    0.25       1.0  T
   4    -87.0343823 -0.295493E-03  0.774E-02    0.22       1.0  T
   5    -87.0348040 -0.421669E-03  0.477E-02    0.20       1.0  T
   6    -87.0350915 -0.287482E-03  0.831E-03    0.17       1.8  T
   7    -87.0350743  0.171490E-04  0.126E-02    0.16       1.2  T
   8    -87.0350959 -0.216046E-04  0.185E-03    0.16       8.0  T
   9    -87.0350962 -0.284727E-06  0.747E-04    0.16      19.7  T
  10    -87.0350963 -0.514449E-07  0.523E-04    0.16      28.2  T
  11    -87.0350963 -0.195327E-07  0.317E-04    0.16      46.5  T
  12    -87.0350963 -0.104616E-07  0.120E-04    0.16     122.5  T
  13    -87.0350963 -0.163011E-08  0.409E-05    0.16     360.8  T
     SCC iter.                  ...        0 min,  0.079 sec
     gradient                   ...        0 min,  0.070 sec
 * total energy  :   -86.2179568 Eh     change       -0.2356247E-02 Eh
   gradient norm :     0.0199119 Eh/α   predicted    -0.1993842E-02 ( -15.38%)
   displ. norm   :     0.5005060 α      lambda       -0.2205647E-02
   maximum displ.:     0.3378257 α      in ANC's #5, #12, #7, ...

........................................................................
.............................. CYCLE    6 ..............................
........................................................................
   1    -87.0367426 -0.870367E+02  0.117E-01    0.24       0.0  T
   2    -86.9952996  0.414429E-01  0.579E-01    0.07       1.0  T
   3    -87.0378174 -0.425178E-01  0.642E-02    0.23       1.0  T
   4    -87.0380722 -0.254794E-03  0.421E-02    0.21       1.0  T
   5    -87.0382286 -0.156342E-03  0.212E-02    0.19       1.0  T
   6    -87.0382628 -0.342657E-04  0.131E-02    0.17       1.1  T
   7    -87.0382767 -0.139234E-04  0.775E-03    0.17       1.9  T
   8    -87.0382846 -0.789356E-05  0.118E-03    0.17      12.5  T
   9    -87.0382848 -0.178349E-06  0.211E-04    0.17      70.0  T
  10    -87.0382848 -0.499874E-08  0.811E-05    0.17     181.9  T
  11    -87.0382848  0.482743E-10  0.570E-05    0.17     258.7  T
     SCC iter.                  ...        0 min,  0.070 sec
     gradient                   ...        0 min,  0.069 sec
 * total energy  :   -86.2197043 Eh     change       -0.1747522E-02 Eh
   gradient norm :     0.0169102 Eh/α   predicted    -0.1379089E-02 ( -21.08%)
   displ. norm   :     0.5525720 α      lambda       -0.1936143E-02
   maximum displ.:     0.3676918 α      in ANC's #5, #12, #7, ...

........................................................................
.............................. CYCLE    7 ..............................
........................................................................
   1    -87.0420252 -0.870420E+02  0.911E-02    0.25       0.0  T
   2    -87.0261765  0.158487E-01  0.368E-01    0.09       1.0  T
   3    -87.0427682 -0.165917E-01  0.416E-02    0.22       1.0  T
   4    -87.0428970 -0.128835E-03  0.248E-02    0.20       1.0  T
   5    -87.0429553 -0.583412E-04  0.110E-02    0.19       1.3  T
   6    -87.0429523  0.305161E-05  0.114E-02    0.17       1.3  T
   7    -87.0429639 -0.116246E-04  0.619E-03    0.18       2.4  T
   8    -87.0429688 -0.491603E-05  0.909E-04    0.18      16.2  T
   9    -87.0429689 -0.100176E-06  0.131E-04    0.18     112.1  T
  10    -87.0429689 -0.942421E-09  0.676E-05    0.18     218.1  T
     SCC iter.                  ...        0 min,  0.065 sec
     gradient                   ...        0 min,  0.069 sec
 * total energy  :   -86.2213169 Eh     change       -0.1612588E-02 Eh
   gradient norm :     0.0147719 Eh/α   predicted    -0.1263659E-02 ( -21.64%)
   displ. norm   :     0.6408594 α      lambda       -0.1919539E-02
   maximum displ.:     0.4240689 α      in ANC's #5, #7, #3, ...

........................................................................
.............................. CYCLE    8 ..............................
........................................................................
   1    -87.0464343 -0.870464E+02  0.762E-02    0.27       0.0  T
   2    -87.0428814  0.355288E-02  0.188E-01    0.12       1.0  T
   3    -87.0469307 -0.404927E-02  0.325E-02    0.23       1.0  T
   4    -87.0470250 -0.943196E-04  0.139E-02    0.21       1.1  T
   5    -87.0470432 -0.182391E-04  0.548E-03    0.19       2.7  T
   6    -87.0470432  0.469122E-07  0.505E-03    0.19       2.9  T
   7    -87.0470444 -0.121849E-05  0.319E-03    0.19       4.6  T
   8    -87.0470457 -0.132384E-05  0.391E-04    0.19      37.7  T
   9    -87.0470457 -0.117891E-07  0.151E-04    0.19      97.7  T
  10    -87.0470457 -0.136664E-08  0.346E-05    0.19     426.3  T
     SCC iter.                  ...        0 min,  0.066 sec
     gradient                   ...        0 min,  0.069 sec
 * total energy  :   -86.2229979 Eh     change       -0.1680959E-02 Eh
   gradient norm :     0.0153164 Eh/α   predicted    -0.1353949E-02 ( -19.45%)
   displ. norm   :     0.7326601 α      lambda       -0.2178467E-02
   maximum displ.:     0.4805493 α      in ANC's #5, #3, #7, ...

........................................................................
.............................. CYCLE    9 ..............................
........................................................................
   1    -87.0509073 -0.870509E+02  0.710E-02    0.32       0.0  T
   2    -87.0510366 -0.129291E-03  0.645E-02    0.19       1.0  T
   3    -87.0513467 -0.310107E-03  0.214E-02    0.24       1.0  T
   4    -87.0513891 -0.424038E-04  0.978E-03    0.23       1.5  T
   5    -87.0513875  0.151893E-05  0.701E-03    0.22       2.1  T
   6    -87.0513914 -0.380783E-05  0.284E-03    0.22       5.2  T
   7    -87.0513918 -0.479586E-06  0.489E-04    0.22      30.1  T
   8    -87.0513918 -0.154431E-08  0.240E-04    0.22      61.4  T
   9    -87.0513918 -0.320593E-08  0.804E-05    0.22     183.3  T
  10    -87.0513918 -0.216033E-09  0.232E-05    0.22     636.7  T
     SCC iter.                  ...        0 min,  0.063 sec
     gradient                   ...        0 min,  0.070 sec
 * total energy  :   -86.2250310 Eh     change       -0.2033174E-02 Eh
   gradient norm :     0.0157924 Eh/α   predicted    -0.1673929E-02 ( -17.67%)
   displ. norm   :     0.8531630 α      lambda       -0.2891439E-02
   maximum displ.:     0.5458874 α      in ANC's #5, #3, #7, ...

........................................................................
.............................. CYCLE   10 ..............................
........................................................................
   1    -87.0549167 -0.870549E+02  0.755E-02    0.45       0.0  T
   2    -87.0553022 -0.385548E-03  0.323E-02    0.34       1.0  T
   3    -87.0553512 -0.490062E-04  0.149E-02    0.34       1.0  T
   4    -87.0553540 -0.274756E-05  0.668E-03    0.33       2.2  T
   5    -87.0553547 -0.716219E-06  0.516E-03    0.32       2.9  T
   6    -87.0553558 -0.106070E-05  0.104E-03    0.32      14.2  T
   7    -87.0553558 -0.200493E-07  0.370E-04    0.32      39.9  T
   8    -87.0553558 -0.180805E-08  0.118E-04    0.32     125.4  T
   9    -87.0553558 -0.267363E-09  0.369E-05    0.32     399.1  T
     SCC iter.                  ...        0 min,  0.057 sec
     gradient                   ...        0 min,  0.070 sec
 * total energy  :   -86.2281395 Eh     change       -0.3108513E-02 Eh
   gradient norm :     0.0202655 Eh/α   predicted    -0.2498040E-02 ( -19.64%)
   displ. norm   :     0.8499345 α      lambda       -0.3699756E-02
   maximum displ.:     0.5310944 α      in ANC's #5, #3, #7, ...

........................................................................
.............................. CYCLE   11 ..............................
........................................................................
   1    -87.0573278 -0.870573E+02  0.692E-02    0.63       0.0  T
   2    -87.0576132 -0.285362E-03  0.273E-02    0.57       1.0  T
   3    -87.0576536 -0.404733E-04  0.130E-02    0.57       1.1  T
   4    -87.0576566 -0.299929E-05  0.553E-03    0.57       2.7  T
   5    -87.0576567 -0.557837E-07  0.351E-03    0.56       4.2  T
   6    -87.0576570 -0.361430E-06  0.601E-04    0.56      24.5  T
   7    -87.0576570 -0.548738E-08  0.257E-04    0.56      57.4  T
   8    -87.0576570 -0.896890E-09  0.720E-05    0.56     204.7  T
   9    -87.0576570 -0.121261E-09  0.220E-05    0.56     670.4  T
     SCC iter.                  ...        0 min,  0.057 sec
     gradient                   ...        0 min,  0.071 sec
 * total energy  :   -86.2326386 Eh     change       -0.4499075E-02 Eh
   gradient norm :     0.0320305 Eh/α   predicted    -0.3186211E-02 ( -29.18%)
   displ. norm   :     0.7448382 α      lambda       -0.6062647E-02
   maximum displ.:     0.4302931 α      in ANC's #5, #3, #12, ...

........................................................................
.............................. CYCLE   12 ..............................
........................................................................
   1    -87.0668326 -0.870668E+02  0.931E-02    0.93       0.0  T
   2    -87.0672184 -0.385822E-03  0.301E-02    0.89       1.0  T
   3    -87.0672708 -0.523777E-04  0.177E-02    0.89       1.0  T
   4    -87.0672777 -0.691831E-05  0.733E-03    0.89       2.0  T
   5    -87.0672778 -0.675436E-07  0.377E-03    0.88       3.9  T
   6    -87.0672781 -0.290135E-06  0.556E-04    0.88      26.5  T
   7    -87.0672781 -0.879120E-08  0.175E-04    0.88      84.1  T
   8    -87.0672781 -0.518497E-09  0.699E-05    0.88     210.9  T
     SCC iter.                  ...        0 min,  0.050 sec
     gradient                   ...        0 min,  0.071 sec
 * total energy  :   -86.2401456 Eh     change       -0.7506930E-02 Eh
   gradient norm :     0.0496373 Eh/α   predicted    -0.4713047E-02 ( -37.22%)
   displ. norm   :     0.6825644 α      lambda       -0.1043483E-01
   maximum displ.:     0.3533487 α      in ANC's #5, #12, #3, ...

........................................................................
.............................. CYCLE   13 ..............................
........................................................................
   1    -87.0779280 -0.870779E+02  0.139E-01    1.15       0.0  T
   2    -87.0785822 -0.654227E-03  0.487E-02    1.11       1.0  T
   3    -87.0787218 -0.139538E-03  0.287E-02    1.12       1.0  T
   4    -87.0787479 -0.260926E-04  0.106E-02    1.11       1.4  T
   5    -87.0787480 -0.951539E-07  0.369E-03    1.11       4.0  T
   6    -87.0787482 -0.258579E-06  0.877E-04    1.11      16.8  T
   7    -87.0787482 -0.111614E-07  0.287E-04    1.11      51.3  T
   8    -87.0787482 -0.150401E-08  0.960E-05    1.11     153.6  T
   9    -87.0787482 -0.137334E-09  0.242E-05    1.11     608.9  T
     SCC iter.                  ...        0 min,  0.055 sec
     gradient                   ...        0 min,  0.069 sec
 * total energy  :   -86.2523600 Eh     change       -0.1221450E-01 Eh
   gradient norm :     0.0681720 Eh/α   predicted    -0.7648172E-02 ( -37.38%)
   displ. norm   :     0.6276225 α      lambda       -0.1535691E-01
   maximum displ.:     0.2859774 α      in ANC's #5, #12, #3, ...

........................................................................
.............................. CYCLE   14 ..............................
........................................................................
   1    -87.0978442 -0.870978E+02  0.183E-01    1.19       0.0  T
   2    -87.0989578 -0.111362E-02  0.672E-02    1.13       1.0  T
   3    -87.0991757 -0.217931E-03  0.427E-02    1.16       1.0  T
   4    -87.0992350 -0.592892E-04  0.153E-02    1.14       1.0  T
   5    -87.0992353 -0.241578E-06  0.406E-03    1.14       3.6  T
   6    -87.0992356 -0.352412E-06  0.125E-03    1.14      11.8  T
   7    -87.0992356 -0.138769E-07  0.518E-04    1.14      28.5  T
   8    -87.0992356 -0.457487E-08  0.111E-04    1.14     133.3  T
   9    -87.0992356 -0.118334E-09  0.256E-05    1.14     575.6  T
     SCC iter.                  ...        0 min,  0.055 sec
     gradient                   ...        0 min,  0.070 sec
 * total energy  :   -86.2679782 Eh     change       -0.1561819E-01 Eh
   gradient norm :     0.0744915 Eh/α   predicted    -0.1070306E-01 ( -31.47%)
   displ. norm   :     0.8794300 α      lambda       -0.3703636E-01
   maximum displ.:     0.3010046 α      in ANC's #20, #43, #65, ...

........................................................................
.............................. CYCLE   15 ..............................
........................................................................
   1    -87.1343689 -0.871344E+02  0.307E-01    1.15       0.0  T
   2    -87.1370031 -0.263422E-02  0.132E-01    0.98       1.0  T
   3    -87.1375744 -0.571283E-03  0.907E-02    1.03       1.0  T
   4    -87.1378114 -0.236958E-03  0.278E-02    0.98       1.0  T
   5    -87.1378131 -0.177296E-05  0.104E-02    0.98       1.4  T
   6    -87.1378153 -0.220734E-05  0.244E-03    0.98       6.1  T
   7    -87.1378154 -0.629718E-07  0.122E-03    0.98      12.0  T
   8    -87.1378154 -0.217975E-07  0.248E-04    0.98      59.3  T
   9    -87.1378154 -0.126755E-08  0.810E-05    0.98     182.0  T
  10    -87.1378154 -0.128679E-09  0.205E-05    0.98     718.7  T
     SCC iter.                  ...        0 min,  0.062 sec
     gradient                   ...        0 min,  0.069 sec
 * total energy  :   -86.2723051 Eh     change       -0.4326870E-02 Eh
   gradient norm :     0.1674852 Eh/α   predicted    -0.3284002E-01 ( 658.98%)
   displ. norm   :     0.3366969 α      lambda       -0.3671556E-01
   maximum displ.:     0.1317427 α      in ANC's #5, #78, #43, ...

........................................................................
.............................. CYCLE   16 ..............................
........................................................................
   1    -87.1340985 -0.871341E+02  0.134E-01    0.95       0.0  T
   2    -87.1346004 -0.501897E-03  0.465E-02    0.96       1.0  T
   3    -87.1346178 -0.174600E-04  0.216E-02    0.97       1.0  T
   4    -87.1346192 -0.134637E-05  0.802E-03    0.97       1.8  T
   5    -87.1346198 -0.615562E-06  0.286E-03    0.97       5.2  T
   6    -87.1346201 -0.266638E-06  0.741E-04    0.97      19.9  T
   7    -87.1346201 -0.166227E-07  0.369E-04    0.97      40.0  T
   8    -87.1346201 -0.276351E-08  0.712E-05    0.97     207.0  T
   9    -87.1346201 -0.967475E-10  0.241E-05    0.97     612.0  T
     SCC iter.                  ...        0 min,  0.056 sec
     gradient                   ...        0 min,  0.071 sec
 * total energy  :   -86.2875881 Eh     change       -0.1528296E-01 Eh
   gradient norm :     0.0720914 Eh/α   predicted    -0.2043894E-01 (  33.74%)
   displ. norm   :     0.5212624 α      lambda       -0.8012950E-02
   maximum displ.:     0.3214644 α      in ANC's #5, #3, #7, ...

........................................................................
.............................. CYCLE   17 ..............................
........................................................................
   1    -87.1165949 -0.871166E+02  0.667E-02    0.89       0.0  T
   2    -87.1167908 -0.195938E-03  0.331E-02    0.87       1.0  T
   3    -87.1168290 -0.381761E-04  0.179E-02    0.88       1.0  T
   4    -87.1168319 -0.293694E-05  0.886E-03    0.88       1.7  T
   5    -87.1168331 -0.120083E-05  0.159E-03    0.88       9.3  T
   6    -87.1168333 -0.120936E-06  0.328E-04    0.88      45.0  T
   7    -87.1168333 -0.193280E-08  0.166E-04    0.88      88.8  T
   8    -87.1168333 -0.147523E-09  0.749E-05    0.88     196.9  T
     SCC iter.                  ...        0 min,  0.051 sec
     gradient                   ...        0 min,  0.070 sec
 * total energy  :   -86.2923751 Eh     change       -0.4787048E-02 Eh
   gradient norm :     0.0414055 Eh/α   predicted    -0.5095108E-02 (   6.44%)
   displ. norm   :     0.5391992 α      lambda       -0.1180874E-01
   maximum displ.:     0.2329803 α      in ANC's #4, #27, #42, ...

........................................................................
.............................. CYCLE   18 ..............................
........................................................................
   1    -87.1199512 -0.871200E+02  0.830E-02    0.88       0.0  T
   2    -87.1202282 -0.277052E-03  0.349E-02    0.85       1.0  T
   3    -87.1202489 -0.207439E-04  0.234E-02    0.86       1.0  T
   4    -87.1202511 -0.210719E-05  0.908E-03    0.85       1.6  T
   5    -87.1202536 -0.249751E-05  0.239E-03    0.85       6.2  T
   6    -87.1202538 -0.213902E-06  0.666E-04    0.85      22.1  T
   7    -87.1202538 -0.783250E-08  0.228E-04    0.85      64.7  T
   8    -87.1202538 -0.829957E-09  0.653E-05    0.85     225.8  T
   9    -87.1202538 -0.128352E-09  0.158E-05    0.85     931.4  T
     SCC iter.                  ...        0 min,  0.057 sec
     gradient                   ...        0 min,  0.069 sec
 * total energy  :   -86.2930034 Eh     change       -0.6282384E-03 Eh
   gradient norm :     0.0798371 Eh/α   predicted    -0.7620992E-02 (1113.07%)
   displ. norm   :     0.4981677 α      lambda       -0.1146512E-01
   maximum displ.:     0.2106533 α      in ANC's #5, #12, #34, ...

........................................................................
.............................. CYCLE   19 ..............................
........................................................................
   1    -87.1280271 -0.871280E+02  0.878E-02    0.85       0.0  T
   2    -87.1285594 -0.532225E-03  0.524E-02    0.77       1.0  T
   3    -87.1287026 -0.143261E-03  0.158E-02    0.80       1.0  T
   4    -87.1287061 -0.347221E-05  0.996E-03    0.79       1.5  T
   5    -87.1287070 -0.885348E-06  0.258E-03    0.80       5.7  T
   6    -87.1287071 -0.949681E-07  0.580E-04    0.80      25.4  T
   7    -87.1287071 -0.695569E-08  0.164E-04    0.80      90.0  T
   8    -87.1287071 -0.505679E-09  0.682E-05    0.80     216.2  T
     SCC iter.                  ...        0 min,  0.051 sec
     gradient                   ...        0 min,  0.069 sec
 * total energy  :   -86.2989119 Eh     change       -0.5908546E-02 Eh
   gradient norm :     0.0183744 Eh/α   predicted    -0.7155239E-02 (  21.10%)
   displ. norm   :     0.5930313 α      lambda       -0.2871540E-02
   maximum displ.:     0.3437946 α      in ANC's #5, #12, #3, ...

........................................................................
.............................. CYCLE   20 ..............................
........................................................................
   1    -87.1289876 -0.871290E+02  0.357E-02    0.82       0.0  T
   2    -87.1290137 -0.261186E-04  0.154E-02    0.81       1.0  T
   3    -87.1290151 -0.138707E-05  0.841E-03    0.81       1.8  T
   4    -87.1290163 -0.117272E-05  0.414E-03    0.81       3.6  T
   5    -87.1290167 -0.408808E-06  0.705E-04    0.81      20.9  T
   6    -87.1290167 -0.862660E-08  0.251E-04    0.81      58.7  T
   7    -87.1290167 -0.119542E-08  0.736E-05    0.81     200.2  T
   8    -87.1290167 -0.919158E-10  0.194E-05    0.81     760.9  T
     SCC iter.                  ...        0 min,  0.053 sec
     gradient                   ...        0 min,  0.069 sec
 * total energy  :   -86.3003290 Eh     change       -0.1417085E-02 Eh
   gradient norm :     0.0292170 Eh/α   predicted    -0.1940732E-02 (  36.95%)
   displ. norm   :     0.5676701 α      lambda       -0.3563636E-02
   maximum displ.:     0.2705756 α      in ANC's #4, #20, #5, ...
 * RMSD in coord.:     1.2595832 α      energy gain  -0.1143593E+00 Eh

generating ANC from model Hessian ...
Using Lindh-Hessian (1995)
 Shifting diagonal of input Hessian by   9.830652168965941E-003
 Lowest  eigenvalues of input Hessian
    0.000000    0.000000    0.000000    0.000000    0.000000    0.000000
    0.010000    0.010254    0.010521    0.010871    0.011417    0.012024
    0.012702    0.013375    0.014040    0.014410    0.015623    0.017189
 Highest eigenvalues
    2.076701    2.129519    2.185458    2.394315    2.429433    2.433810
 

........................................................................
.............................. CYCLE   21 ..............................
........................................................................
   1    -87.1323121 -0.871323E+02  0.559E-02    0.83       0.0  T
   2    -87.1324886 -0.176571E-03  0.257E-02    0.83       1.0  T
   3    -87.1324935 -0.489942E-05  0.150E-02    0.84       1.0  T
   4    -87.1324934  0.160608E-06  0.438E-03    0.84       3.4  T
   5    -87.1324938 -0.467593E-06  0.123E-03    0.84      12.0  T
   6    -87.1324939 -0.519390E-07  0.475E-04    0.84      31.1  T
   7    -87.1324939 -0.631312E-08  0.147E-04    0.84     100.3  T
   8    -87.1324939 -0.612843E-09  0.315E-05    0.84     468.2  T
     SCC iter.                  ...        0 min,  0.050 sec
     gradient                   ...        0 min,  0.072 sec
 * total energy  :   -86.2987471 Eh     change        0.1581918E-02 Eh
   gradient norm :     0.0556977 Eh/α   predicted     0.0000000E+00 (-100.00%)
   displ. norm   :     0.2460885 α      lambda       -0.5220907E-02
   maximum displ.:     0.0800026 α      in ANC's #33, #36, #9, ...

........................................................................
.............................. CYCLE   22 ..............................
........................................................................
   1    -87.1349407 -0.871349E+02  0.277E-02    0.83       0.0  T
   2    -87.1349717 -0.310073E-04  0.158E-02    0.82       1.0  T
   3    -87.1349771 -0.535188E-05  0.932E-03    0.82       1.6  T
   4    -87.1349772 -0.563767E-07  0.337E-03    0.82       4.4  T
   5    -87.1349775 -0.374012E-06  0.773E-04    0.82      19.1  T
   6    -87.1349775 -0.208965E-07  0.254E-04    0.82      58.0  T
   7    -87.1349775 -0.910873E-09  0.746E-05    0.82     197.7  T
   8    -87.1349775 -0.124885E-09  0.208E-05    0.82     710.5  T
     SCC iter.                  ...        0 min,  0.050 sec
     gradient                   ...        0 min,  0.070 sec
 * total energy  :   -86.3020278 Eh     change       -0.3280746E-02 Eh
   gradient norm :     0.0182910 Eh/α   predicted    -0.2769857E-02 ( -15.57%)
   displ. norm   :     0.2308433 α      lambda       -0.1116941E-02
   maximum displ.:     0.0846780 α      in ANC's #7, #3, #9, ...

........................................................................
.............................. CYCLE   23 ..............................
........................................................................
   1    -87.1343584 -0.871344E+02  0.166E-02    0.81       0.0  T
   2    -87.1343668 -0.834616E-05  0.963E-03    0.80       1.5  T
   3    -87.1343702 -0.338651E-05  0.520E-03    0.80       2.8  T
   4    -87.1343703 -0.148114E-06  0.156E-03    0.80       9.4  T
   5    -87.1343704 -0.467058E-07  0.419E-04    0.80      35.2  T
   6    -87.1343704 -0.512733E-08  0.112E-04    0.80     132.0  T
   7    -87.1343704 -0.169123E-09  0.478E-05    0.80     308.2  T
     SCC iter.                  ...        0 min,  0.044 sec
     gradient                   ...        0 min,  0.070 sec
 * total energy  :   -86.3028133 Eh     change       -0.7854731E-03 Eh
   gradient norm :     0.0081404 Eh/α   predicted    -0.5884120E-03 ( -25.09%)
   displ. norm   :     0.3307940 α      lambda       -0.8175853E-03
   maximum displ.:     0.1275376 α      in ANC's #4, #3, #7, ...

........................................................................
.............................. CYCLE   24 ..............................
........................................................................
   1    -87.1330505 -0.871331E+02  0.150E-02    0.79       0.0  T
   2    -87.1330568 -0.629774E-05  0.907E-03    0.78       1.6  T
   3    -87.1330604 -0.362127E-05  0.441E-03    0.79       3.3  T
   4    -87.1330605 -0.149427E-06  0.131E-03    0.79      11.3  T
   5    -87.1330605 -0.112950E-07  0.293E-04    0.79      50.3  T
   6    -87.1330605 -0.250050E-08  0.896E-05    0.79     164.6  T
   7    -87.1330605 -0.840146E-10  0.415E-05    0.79     355.7  T
     SCC iter.                  ...        0 min,  0.044 sec
     gradient                   ...        0 min,  0.070 sec
 * total energy  :   -86.3034470 Eh     change       -0.6336832E-03 Eh
   gradient norm :     0.0117390 Eh/α   predicted    -0.4535286E-03 ( -28.43%)
   displ. norm   :     0.4681530 α      lambda       -0.9085792E-03
   maximum displ.:     0.1908798 α      in ANC's #4, #3, #7, ...

........................................................................
.............................. CYCLE   25 ..............................
........................................................................
   1    -87.1311429 -0.871311E+02  0.128E-02    0.79       0.0  T
   2    -87.1311483 -0.541221E-05  0.785E-03    0.78       1.9  T
   3    -87.1311510 -0.272653E-05  0.352E-03    0.78       4.2  T
   4    -87.1311511 -0.110639E-06  0.140E-03    0.78      10.6  T
   5    -87.1311511 -0.891687E-08  0.255E-04    0.78      57.9  T
   6    -87.1311511 -0.185982E-08  0.947E-05    0.78     155.7  T
   7    -87.1311511 -0.728875E-10  0.303E-05    0.78     486.3  T
     SCC iter.                  ...        0 min,  0.045 sec
     gradient                   ...        0 min,  0.070 sec
 * total energy  :   -86.3041281 Eh     change       -0.6811154E-03 Eh
   gradient norm :     0.0162252 Eh/α   predicted    -0.5538594E-03 ( -18.68%)
   displ. norm   :     0.4156665 α      lambda       -0.7523368E-03
   maximum displ.:     0.1943943 α      in ANC's #4, #3, #7, ...

........................................................................
.............................. CYCLE   26 ..............................
........................................................................
   1    -87.1318783 -0.871319E+02  0.839E-03    0.78       0.0  T
   2    -87.1318807 -0.238746E-05  0.453E-03    0.78       3.3  T
   3    -87.1318813 -0.538465E-06  0.222E-03    0.78       6.6  T
   4    -87.1318813 -0.693143E-07  0.112E-03    0.78      13.2  T
   5    -87.1318814 -0.182966E-07  0.221E-04    0.78      66.6  T
   6    -87.1318814 -0.118129E-08  0.860E-05    0.78     171.5  T
   7    -87.1318814 -0.631815E-10  0.190E-05    0.78     777.0  T
     SCC iter.                  ...        0 min,  0.044 sec
     gradient                   ...        0 min,  0.069 sec
 * total energy  :   -86.3047029 Eh     change       -0.5748496E-03 Eh
   gradient norm :     0.0151267 Eh/α   predicted    -0.4411707E-03 ( -23.25%)
   displ. norm   :     0.3781767 α      lambda       -0.7483655E-03
   maximum displ.:     0.2028514 α      in ANC's #4, #3, #7, ...

........................................................................
.............................. CYCLE   27 ..............................
........................................................................
   1    -87.1357264 -0.871357E+02  0.938E-03    0.79       0.0  T
   2    -87.1357277 -0.134287E-05  0.511E-03    0.79       2.9  T
   3    -87.1357278 -0.820589E-07  0.270E-03    0.79       5.5  T
   4    -87.1357278 -0.288579E-07  0.364E-04    0.79      40.5  T
   5    -87.1357278 -0.200201E-08  0.121E-04    0.79     121.5  T
   6    -87.1357278 -0.151545E-09  0.528E-05    0.79     279.3  T
     SCC iter.                  ...        0 min,  0.038 sec
     gradient                   ...        0 min,  0.069 sec
 * total energy  :   -86.3052598 Eh     change       -0.5568896E-03 Eh
   gradient norm :     0.0097410 Eh/α   predicted    -0.4277173E-03 ( -23.20%)
   displ. norm   :     0.4608772 α      lambda       -0.6356724E-03
   maximum displ.:     0.2397252 α      in ANC's #4, #3, #16, ...

........................................................................
.............................. CYCLE   28 ..............................
........................................................................
   1    -87.1355201 -0.871355E+02  0.119E-02    0.80       0.0  T
   2    -87.1355215 -0.139773E-05  0.598E-03    0.80       2.5  T
   3    -87.1355216 -0.321289E-07  0.260E-03    0.80       5.7  T
   4    -87.1355216 -0.507956E-07  0.568E-04    0.80      26.0  T
   5    -87.1355216 -0.623648E-08  0.223E-04    0.80      66.0  T
   6    -87.1355216 -0.181532E-08  0.645E-05    0.80     228.4  T
   7    -87.1355216 -0.152667E-09  0.214E-05    0.80     688.9  T
     SCC iter.                  ...        0 min,  0.044 sec
     gradient                   ...        0 min,  0.069 sec
 * total energy  :   -86.3056933 Eh     change       -0.4335110E-03 Eh
   gradient norm :     0.0117039 Eh/α   predicted    -0.3853510E-03 ( -11.11%)
   displ. norm   :     0.3545909 α      lambda       -0.7372413E-03
   maximum displ.:     0.2082635 α      in ANC's #4, #3, #16, ...

........................................................................
.............................. CYCLE   29 ..............................
........................................................................
   1    -87.1416059 -0.871416E+02  0.131E-02    0.79       0.0  T
   2    -87.1416103 -0.441151E-05  0.691E-03    0.80       2.1  T
   3    -87.1416107 -0.381948E-06  0.436E-03    0.80       3.4  T
   4    -87.1416109 -0.174723E-06  0.142E-03    0.80      10.4  T
   5    -87.1416110 -0.691686E-07  0.240E-04    0.80      61.4  T
   6    -87.1416110 -0.195608E-08  0.848E-05    0.80     173.8  T
   7    -87.1416110 -0.111839E-09  0.370E-05    0.80     398.1  T
     SCC iter.                  ...        0 min,  0.043 sec
     gradient                   ...        0 min,  0.069 sec
 * total energy  :   -86.3060579 Eh     change       -0.3645936E-03 Eh
   gradient norm :     0.0113267 Eh/α   predicted    -0.4149728E-03 (  13.82%)
   displ. norm   :     0.3939884 α      lambda       -0.4343531E-03
   maximum displ.:     0.2036319 α      in ANC's #4, #16, #3, ...

........................................................................
.............................. CYCLE   30 ..............................
........................................................................
   1    -87.1366863 -0.871367E+02  0.134E-02    0.79       0.0  T
   2    -87.1366882 -0.188899E-05  0.660E-03    0.79       2.2  T
   3    -87.1366882 -0.393753E-07  0.269E-03    0.79       5.5  T
   4    -87.1366883 -0.897817E-07  0.777E-04    0.79      19.0  T
   5    -87.1366883 -0.547264E-08  0.142E-04    0.79     103.5  T
   6    -87.1366883 -0.589736E-09  0.472E-05    0.79     312.1  T
     SCC iter.                  ...        0 min,  0.032 sec
     gradient                   ...        0 min,  0.063 sec
 * total energy  :   -86.3063276 Eh     change       -0.2696503E-03 Eh
   gradient norm :     0.0123638 Eh/α   predicted    -0.2508898E-03 (  -6.96%)
   displ. norm   :     0.2137759 α      lambda       -0.3720048E-03
   maximum displ.:     0.0983057 α      in ANC's #16, #4, #3, ...

........................................................................
.............................. CYCLE   31 ..............................
........................................................................
   1    -87.1360851 -0.871361E+02  0.789E-03    0.78       0.0  T
   2    -87.1360862 -0.105397E-05  0.376E-03    0.77       3.9  T
   3    -87.1360863 -0.112350E-06  0.243E-03    0.78       6.1  T
   4    -87.1360863 -0.341707E-07  0.486E-04    0.77      30.3  T
   5    -87.1360864 -0.101784E-07  0.230E-04    0.77      64.0  T
   6    -87.1360864 -0.254529E-08  0.453E-05    0.77     325.7  T
   7    -87.1360864 -0.505338E-10  0.145E-05    0.77    1018.6  T
     SCC iter.                  ...        0 min,  0.047 sec
     gradient                   ...        0 min,  0.052 sec
 * total energy  :   -86.3066184 Eh     change       -0.2907998E-03 Eh
   gradient norm :     0.0079732 Eh/α   predicted    -0.1945051E-03 ( -33.11%)
   displ. norm   :     0.3492064 α      lambda       -0.4680832E-03
   maximum displ.:     0.1496316 α      in ANC's #7, #16, #4, ...

........................................................................
.............................. CYCLE   32 ..............................
........................................................................
   1    -87.1364439 -0.871364E+02  0.100E-02    0.76       0.0  T
   2    -87.1364456 -0.165238E-05  0.446E-03    0.76       3.3  T
   3    -87.1364458 -0.182525E-06  0.293E-03    0.76       5.0  T
   4    -87.1364458 -0.536276E-07  0.623E-04    0.76      23.7  T
   5    -87.1364458 -0.184163E-07  0.257E-04    0.76      57.3  T
   6    -87.1364458 -0.269000E-08  0.580E-05    0.76     254.1  T
   7    -87.1364458 -0.705143E-10  0.184E-05    0.76     800.6  T
     SCC iter.                  ...        0 min,  0.049 sec
     gradient                   ...        0 min,  0.071 sec
 * total energy  :   -86.3069391 Eh     change       -0.3207614E-03 Eh
   gradient norm :     0.0071661 Eh/α   predicted    -0.2625834E-03 ( -18.14%)
   displ. norm   :     0.3863934 α      lambda       -0.2704985E-03
   maximum displ.:     0.1645045 α      in ANC's #16, #4, #3, ...

........................................................................
.............................. CYCLE   33 ..............................
........................................................................
   1    -87.1346463 -0.871346E+02  0.575E-03    0.76       0.0  T
   2    -87.1346471 -0.765161E-06  0.253E-03    0.76       5.8  T
   3    -87.1346471 -0.575257E-07  0.128E-03    0.76      11.5  T
   4    -87.1346471 -0.108415E-07  0.288E-04    0.76      51.1  T
   5    -87.1346471 -0.533404E-09  0.100E-04    0.76     147.1  T
   6    -87.1346471 -0.167347E-09  0.374E-05    0.76     394.3  T
     SCC iter.                  ...        0 min,  0.036 sec
     gradient                   ...        0 min,  0.070 sec
 * total energy  :   -86.3071233 Eh     change       -0.1842001E-03 Eh
   gradient norm :     0.0088518 Eh/α   predicted    -0.1554435E-03 ( -15.61%)
   displ. norm   :     0.2942513 α      lambda       -0.3366474E-03
   maximum displ.:     0.1598421 α      in ANC's #7, #2, #3, ...

........................................................................
.............................. CYCLE   34 ..............................
........................................................................
   1    -87.1395007 -0.871395E+02  0.128E-02    0.77       0.0  T
   2    -87.1395039 -0.319473E-05  0.600E-03    0.77       2.5  T
   3    -87.1395041 -0.130907E-06  0.315E-03    0.77       4.7  T
   4    -87.1395041 -0.563311E-07  0.112E-03    0.77      13.2  T
   5    -87.1395042 -0.360928E-07  0.270E-04    0.77      54.6  T
   6    -87.1395042 -0.310507E-08  0.581E-05    0.77     253.7  T
   7    -87.1395042 -0.118106E-09  0.181E-05    0.77     814.2  T
     SCC iter.                  ...        0 min,  0.044 sec
     gradient                   ...        0 min,  0.070 sec
 * total energy  :   -86.3072831 Eh     change       -0.1597839E-03 Eh
   gradient norm :     0.0069859 Eh/α   predicted    -0.1828997E-03 (  14.47%)
   displ. norm   :     0.2835558 α      lambda       -0.2036719E-03
   maximum displ.:     0.1269801 α      in ANC's #3, #2, #16, ...

........................................................................
.............................. CYCLE   35 ..............................
........................................................................
   1    -87.1380949 -0.871381E+02  0.795E-03    0.78       0.0  T
   2    -87.1380956 -0.675862E-06  0.405E-03    0.78       3.6  T
   3    -87.1380956 -0.760612E-07  0.247E-03    0.78       6.0  T
   4    -87.1380957 -0.745277E-07  0.568E-04    0.78      26.0  T
   5    -87.1380957 -0.182030E-07  0.156E-04    0.78      94.5  T
   6    -87.1380957 -0.427576E-09  0.287E-05    0.78     514.2  T
     SCC iter.                  ...        0 min,  0.040 sec
     gradient                   ...        0 min,  0.069 sec
 * total energy  :   -86.3073985 Eh     change       -0.1154149E-03 Eh
   gradient norm :     0.0046756 Eh/α   predicted    -0.1100278E-03 (  -4.67%)
   displ. norm   :     0.0856075 α      lambda       -0.7029227E-04
   maximum displ.:     0.0456771 α      in ANC's #2, #3, #1, ...

........................................................................
.............................. CYCLE   36 ..............................
........................................................................
   1    -87.1396908 -0.871397E+02  0.358E-03    0.78       0.0  T
   2    -87.1396912 -0.379198E-06  0.193E-03    0.78       7.7  T
   3    -87.1396913 -0.118542E-06  0.988E-04    0.78      14.9  T
   4    -87.1396913 -0.133839E-07  0.348E-04    0.78      42.4  T
   5    -87.1396913 -0.128325E-08  0.870E-05    0.78     169.4  T
   6    -87.1396913 -0.250907E-09  0.169E-05    0.78     871.4  T
     SCC iter.                  ...        0 min,  0.040 sec
     gradient                   ...        0 min,  0.070 sec
 * total energy  :   -86.3074526 Eh     change       -0.5405057E-04 Eh
   gradient norm :     0.0033885 Eh/α   predicted    -0.3540725E-04 ( -34.49%)
   displ. norm   :     0.2178797 α      lambda       -0.1124370E-03
   maximum displ.:     0.1155314 α      in ANC's #2, #3, #1, ...

........................................................................
.............................. CYCLE   37 ..............................
........................................................................
   1    -87.1406565 -0.871407E+02  0.559E-03    0.79       0.0  T
   2    -87.1406581 -0.160595E-05  0.338E-03    0.79       4.4  T
   3    -87.1406587 -0.524075E-06  0.109E-03    0.79      13.5  T
   4    -87.1406587 -0.177661E-07  0.601E-04    0.79      24.5  T
   5    -87.1406587 -0.310530E-08  0.159E-04    0.79      92.6  T
   6    -87.1406587 -0.387146E-09  0.367E-05    0.79     401.5  T
     SCC iter.                  ...        0 min,  0.038 sec
     gradient                   ...        0 min,  0.071 sec
 * total energy  :   -86.3075339 Eh     change       -0.8132903E-04 Eh
   gradient norm :     0.0042736 Eh/α   predicted    -0.5888819E-04 ( -27.59%)
   displ. norm   :     0.2783717 α      lambda       -0.1075650E-03
   maximum displ.:     0.1521256 α      in ANC's #2, #3, #1, ...

........................................................................
.............................. CYCLE   38 ..............................
........................................................................
   1    -87.1406961 -0.871407E+02  0.610E-03    0.80       0.0  T
   2    -87.1406983 -0.218831E-05  0.273E-03    0.80       5.4  T
   3    -87.1406986 -0.272047E-06  0.109E-03    0.80      13.6  T
   4    -87.1406986 -0.317341E-07  0.624E-04    0.80      23.6  T
   5    -87.1406986 -0.530733E-08  0.213E-04    0.80      69.1  T
   6    -87.1406986 -0.572783E-09  0.472E-05    0.80     312.7  T
   7    -87.1406986 -0.313776E-10  0.186E-05    0.80     790.7  T
     SCC iter.                  ...        0 min,  0.045 sec
     gradient                   ...        0 min,  0.070 sec
 * total energy  :   -86.3076104 Eh     change       -0.7646460E-04 Eh
   gradient norm :     0.0055761 Eh/α   predicted    -0.5795139E-04 ( -24.21%)
   displ. norm   :     0.3046122 α      lambda       -0.1110104E-03
   maximum displ.:     0.1666678 α      in ANC's #2, #1, #3, ...

........................................................................
.............................. CYCLE   39 ..............................
........................................................................
   1    -87.1404731 -0.871405E+02  0.709E-03    0.80       0.0  T
   2    -87.1404760 -0.293380E-05  0.278E-03    0.80       5.3  T
   3    -87.1404762 -0.222348E-06  0.120E-03    0.80      12.3  T
   4    -87.1404762 -0.246967E-07  0.658E-04    0.80      22.4  T
   5    -87.1404763 -0.551378E-08  0.260E-04    0.80      56.6  T
   6    -87.1404763 -0.181424E-08  0.502E-05    0.80     293.7  T
   7    -87.1404763 -0.520259E-10  0.222E-05    0.80     665.3  T
     SCC iter.                  ...        0 min,  0.046 sec
     gradient                   ...        0 min,  0.070 sec
 * total energy  :   -86.3076890 Eh     change       -0.7858557E-04 Eh
   gradient norm :     0.0042175 Eh/α   predicted    -0.6065638E-04 ( -22.81%)
   displ. norm   :     0.3136362 α      lambda       -0.9088732E-04
   maximum displ.:     0.1730573 α      in ANC's #2, #1, #3, ...

........................................................................
.............................. CYCLE   40 ..............................
........................................................................
   1    -87.1393788 -0.871394E+02  0.709E-03    0.80       0.0  T
   2    -87.1393811 -0.228540E-05  0.280E-03    0.80       5.3  T
   3    -87.1393813 -0.190709E-06  0.153E-03    0.80       9.6  T
   4    -87.1393814 -0.570492E-07  0.663E-04    0.80      22.2  T
   5    -87.1393814 -0.387605E-08  0.259E-04    0.80      56.9  T
   6    -87.1393814 -0.157331E-08  0.463E-05    0.80     318.4  T
   7    -87.1393814 -0.452047E-10  0.214E-05    0.80     690.2  T
     SCC iter.                  ...        0 min,  0.046 sec
     gradient                   ...        0 min,  0.070 sec
 * total energy  :   -86.3077505 Eh     change       -0.6155092E-04 Eh
   gradient norm :     0.0033174 Eh/α   predicted    -0.4991630E-04 ( -18.90%)
   displ. norm   :     0.1595463 α      lambda       -0.6626083E-04
   maximum displ.:     0.0863521 α      in ANC's #2, #1, #4, ...

........................................................................
.............................. CYCLE   41 ..............................
........................................................................
   1    -87.1410631 -0.871411E+02  0.613E-03    0.80       0.0  T
   2    -87.1410639 -0.811276E-06  0.285E-03    0.80       5.2  T
   3    -87.1410640 -0.962172E-07  0.178E-03    0.80       8.3  T
   4    -87.1410641 -0.841836E-07  0.562E-04    0.80      26.3  T
   5    -87.1410641 -0.186427E-08  0.150E-04    0.80      98.4  T
   6    -87.1410641 -0.577032E-09  0.244E-05    0.80     604.4  T
     SCC iter.                  ...        0 min,  0.038 sec
     gradient                   ...        0 min,  0.069 sec
 * total energy  :   -86.3077898 Eh     change       -0.3923934E-04 Eh
   gradient norm :     0.0037550 Eh/α   predicted    -0.3397802E-04 ( -13.41%)
   displ. norm   :     0.2157441 α      lambda       -0.6281391E-04
   maximum displ.:     0.1111457 α      in ANC's #2, #1, #3, ...

........................................................................
.............................. CYCLE   42 ..............................
........................................................................
   1    -87.1399262 -0.871399E+02  0.536E-03    0.80       0.0  T
   2    -87.1399270 -0.859198E-06  0.288E-03    0.80       5.1  T
   3    -87.1399275 -0.478265E-06  0.131E-03    0.80      11.2  T
   4    -87.1399275 -0.226153E-07  0.460E-04    0.80      32.0  T
   5    -87.1399275 -0.561101E-09  0.134E-04    0.80     109.8  T
   6    -87.1399275 -0.370136E-09  0.234E-05    0.80     631.3  T
     SCC iter.                  ...        0 min,  0.037 sec
     gradient                   ...        0 min,  0.072 sec
 * total energy  :   -86.3078301 Eh     change       -0.4032001E-04 Eh
   gradient norm :     0.0042471 Eh/α   predicted    -0.3286932E-04 ( -18.48%)
   displ. norm   :     0.1413386 α      lambda       -0.5916723E-04
   maximum displ.:     0.0708526 α      in ANC's #1, #2, #4, ...
 * RMSD in coord.:     0.7394947 α      energy gain  -0.7501094E-02 Eh

generating ANC from model Hessian ...
Using Lindh-Hessian (1995)
 Shifting diagonal of input Hessian by   9.843094490945562E-003
 Lowest  eigenvalues of input Hessian
    0.000000    0.000000    0.000000    0.000000    0.000000    0.000000
    0.010000    0.010242    0.010505    0.010823    0.011362    0.012033
    0.012837    0.013135    0.013946    0.014273    0.015566    0.017274
 Highest eigenvalues
    2.062498    2.120016    2.187804    2.397970    2.427695    2.473527
 

........................................................................
.............................. CYCLE   43 ..............................
........................................................................
   1    -87.1404674 -0.871405E+02  0.448E-03    0.80       0.0  T
   2    -87.1404681 -0.634818E-06  0.239E-03    0.80       6.2  T
   3    -87.1404683 -0.274805E-06  0.112E-03    0.80      13.2  T
   4    -87.1404683 -0.103450E-07  0.415E-04    0.80      35.5  T
   5    -87.1404684 -0.305937E-08  0.926E-05    0.80     159.2  T
   6    -87.1404684 -0.130115E-09  0.232E-05    0.80     634.6  T
     SCC iter.                  ...        0 min,  0.038 sec
     gradient                   ...        0 min,  0.069 sec
 * total energy  :   -86.3078721 Eh     change       -0.4204248E-04 Eh
   gradient norm :     0.0038543 Eh/α   predicted     0.0000000E+00 (-100.00%)
   displ. norm   :     0.0358096 α      lambda       -0.4254138E-04
   maximum displ.:     0.0188597 α      in ANC's #18, #1, #16, ...

........................................................................
.............................. CYCLE   44 ..............................
........................................................................
   1    -87.1408480 -0.871408E+02  0.276E-03    0.80       0.0  T
   2    -87.1408482 -0.184560E-06  0.133E-03    0.80      11.1  T
   3    -87.1408482 -0.520555E-07  0.788E-04    0.80      18.7  T
   4    -87.1408483 -0.969837E-08  0.260E-04    0.80      56.8  T
   5    -87.1408483 -0.772005E-09  0.650E-05    0.80     226.7  T
   6    -87.1408483 -0.983817E-10  0.120E-05    0.80    1231.7  T
     SCC iter.                  ...        0 min,  0.032 sec
     gradient                   ...        0 min,  0.070 sec
 * total energy  :   -86.3079069 Eh     change       -0.3472834E-04 Eh
   gradient norm :     0.0019150 Eh/α   predicted    -0.2228502E-04 ( -35.83%)
   displ. norm   :     0.1287625 α      lambda       -0.5450365E-04
   maximum displ.:     0.0696650 α      in ANC's #18, #1, #16, ...

........................................................................
.............................. CYCLE   45 ..............................
........................................................................
   1    -87.1411540 -0.871412E+02  0.644E-03    0.81       0.0  T
   2    -87.1411553 -0.130366E-05  0.312E-03    0.80       4.7  T
   3    -87.1411557 -0.439891E-06  0.168E-03    0.81       8.8  T
   4    -87.1411558 -0.417112E-07  0.615E-04    0.81      24.0  T
   5    -87.1411558 -0.162431E-08  0.141E-04    0.81     104.3  T
   6    -87.1411558 -0.449617E-09  0.253E-05    0.81     582.4  T
     SCC iter.                  ...        0 min,  0.037 sec
     gradient                   ...        0 min,  0.067 sec
 * total energy  :   -86.3079470 Eh     change       -0.4015954E-04 Eh
   gradient norm :     0.0030384 Eh/α   predicted    -0.2745327E-04 ( -31.64%)
   displ. norm   :     0.0440058 α      lambda       -0.2144855E-04
   maximum displ.:     0.0214951 α      in ANC's #1, #18, #16, ...

........................................................................
.............................. CYCLE   46 ..............................
........................................................................
   1    -87.1410893 -0.871411E+02  0.866E-04    0.81       0.0  T
   2    -87.1410893 -0.170095E-07  0.422E-04    0.81      34.9  T
   3    -87.1410893 -0.291564E-08  0.250E-04    0.81      58.9  T
   4    -87.1410893 -0.772985E-09  0.829E-05    0.81     177.9  T
   5    -87.1410893 -0.222741E-09  0.236E-05    0.81     625.6  T
     SCC iter.                  ...        0 min,  0.031 sec
     gradient                   ...        0 min,  0.068 sec
 * total energy  :   -86.3079668 Eh     change       -0.1980483E-04 Eh
   gradient norm :     0.0025109 Eh/α   predicted    -0.1074556E-04 ( -45.74%)
   displ. norm   :     0.2506153 α      lambda       -0.1030301E-03
   maximum displ.:     0.1202819 α      in ANC's #1, #18, #3, ...

........................................................................
.............................. CYCLE   47 ..............................
........................................................................
   1    -87.1401289 -0.871401E+02  0.365E-03    0.81       0.0  T
   2    -87.1401293 -0.351110E-06  0.173E-03    0.81       8.5  T
   3    -87.1401293 -0.389926E-07  0.930E-04    0.81      15.8  T
   4    -87.1401293 -0.343934E-08  0.292E-04    0.81      50.5  T
   5    -87.1401293 -0.300490E-08  0.110E-04    0.81     133.8  T
   6    -87.1401293 -0.379501E-09  0.288E-05    0.81     511.1  T
     SCC iter.                  ...        0 min,  0.037 sec
     gradient                   ...        0 min,  0.071 sec
 * total energy  :   -86.3080321 Eh     change       -0.6526953E-04 Eh
   gradient norm :     0.0022968 Eh/α   predicted    -0.5475092E-04 ( -16.12%)
   displ. norm   :     0.1290089 α      lambda       -0.2615523E-04
   maximum displ.:     0.0667068 α      in ANC's #1, #18, #3, ...

........................................................................
.............................. CYCLE   48 ..............................
........................................................................
   1    -87.1400980 -0.871401E+02  0.151E-03    0.81       0.0  T
   2    -87.1400981 -0.633303E-07  0.732E-04    0.81      20.1  T
   3    -87.1400981 -0.133632E-07  0.386E-04    0.81      38.2  T
   4    -87.1400981 -0.205893E-08  0.131E-04    0.81     112.3  T
   5    -87.1400981 -0.380169E-09  0.387E-05    0.81     380.6  T
     SCC iter.                  ...        0 min,  0.032 sec
     gradient                   ...        0 min,  0.073 sec
 * total energy  :   -86.3080527 Eh     change       -0.2064288E-04 Eh
   gradient norm :     0.0023691 Eh/α   predicted    -0.1330013E-04 ( -35.57%)
   displ. norm   :     0.1684042 α      lambda       -0.3768354E-04
   maximum displ.:     0.0900900 α      in ANC's #1, #6, #3, ...

........................................................................
.............................. CYCLE   49 ..............................
........................................................................
   1    -87.1406597 -0.871407E+02  0.289E-03    0.80       0.0  T
   2    -87.1406600 -0.281725E-06  0.157E-03    0.81       9.4  T
   3    -87.1406601 -0.111952E-06  0.734E-04    0.80      20.1  T
   4    -87.1406601 -0.788522E-08  0.248E-04    0.80      59.3  T
   5    -87.1406601 -0.293610E-09  0.671E-05    0.80     219.6  T
   6    -87.1406601 -0.975291E-10  0.182E-05    0.80     810.0  T
     SCC iter.                  ...        0 min,  0.036 sec
     gradient                   ...        0 min,  0.068 sec
 * total energy  :   -86.3080820 Eh     change       -0.2925599E-04 Eh
   gradient norm :     0.0017787 Eh/α   predicted    -0.1938114E-04 ( -33.75%)
   displ. norm   :     0.3257271 α      lambda       -0.3877208E-04
   maximum displ.:     0.1750147 α      in ANC's #1, #6, #3, ...

........................................................................
.............................. CYCLE   50 ..............................
........................................................................
   1    -87.1404619 -0.871405E+02  0.585E-03    0.80       0.0  T
   2    -87.1404631 -0.123646E-05  0.294E-03    0.81       5.0  T
   3    -87.1404636 -0.478673E-06  0.124E-03    0.80      11.9  T
   4    -87.1404636 -0.324676E-07  0.453E-04    0.80      32.6  T
   5    -87.1404636 -0.803283E-09  0.132E-04    0.80     112.0  T
   6    -87.1404636 -0.432763E-09  0.344E-05    0.80     428.5  T
     SCC iter.                  ...        0 min,  0.036 sec
     gradient                   ...        0 min,  0.068 sec
 * total energy  :   -86.3081171 Eh     change       -0.3515025E-04 Eh
   gradient norm :     0.0027686 Eh/α   predicted    -0.2030270E-04 ( -42.24%)
   displ. norm   :     0.0915022 α      lambda       -0.2720891E-04
   maximum displ.:     0.0512994 α      in ANC's #1, #6, #3, ...

........................................................................
.............................. CYCLE   51 ..............................
........................................................................
   1    -87.1419461 -0.871419E+02  0.367E-03    0.80       0.0  T
   2    -87.1419467 -0.681390E-06  0.217E-03    0.81       6.8  T
   3    -87.1419470 -0.209385E-06  0.921E-04    0.81      16.0  T
   4    -87.1419470 -0.871623E-08  0.415E-04    0.81      35.5  T
   5    -87.1419470 -0.100532E-08  0.124E-04    0.81     118.8  T
   6    -87.1419470 -0.376403E-09  0.228E-05    0.81     645.4  T
     SCC iter.                  ...        0 min,  0.037 sec
     gradient                   ...        0 min,  0.069 sec
 * total energy  :   -86.3081368 Eh     change       -0.1970386E-04 Eh
   gradient norm :     0.0027413 Eh/α   predicted    -0.1371865E-04 ( -30.38%)
   displ. norm   :     0.2291501 α      lambda       -0.4223606E-04
   maximum displ.:     0.1283589 α      in ANC's #1, #6, #3, ...

........................................................................
.............................. CYCLE   52 ..............................
........................................................................
   1    -87.1420287 -0.871420E+02  0.509E-03    0.81       0.0  T
   2    -87.1420301 -0.136381E-05  0.271E-03    0.81       5.4  T
   3    -87.1420305 -0.398248E-06  0.873E-04    0.81      16.9  T
   4    -87.1420305 -0.194427E-07  0.420E-04    0.81      35.1  T
   5    -87.1420305 -0.119587E-08  0.157E-04    0.81      94.0  T
   6    -87.1420305 -0.398899E-09  0.323E-05    0.81     456.3  T
     SCC iter.                  ...        0 min,  0.035 sec
     gradient                   ...        0 min,  0.066 sec
 * total energy  :   -86.3081727 Eh     change       -0.3589519E-04 Eh
   gradient norm :     0.0024058 Eh/α   predicted    -0.2225878E-04 ( -37.99%)
   displ. norm   :     0.4486492 α      lambda       -0.7650482E-04
   maximum displ.:     0.2514920 α      in ANC's #1, #6, #3, ...

........................................................................
.............................. CYCLE   53 ..............................
........................................................................
   1    -87.1399882 -0.871400E+02  0.103E-02    0.82       0.0  T
   2    -87.1399926 -0.437361E-05  0.482E-03    0.83       3.1  T
   3    -87.1399936 -0.986955E-06  0.206E-03    0.82       7.1  T
   4    -87.1399937 -0.939781E-07  0.908E-04    0.82      16.2  T
   5    -87.1399937 -0.641995E-08  0.284E-04    0.82      51.9  T
   6    -87.1399937 -0.209333E-08  0.613E-05    0.82     240.7  T
   7    -87.1399937 -0.886615E-10  0.281E-05    0.82     525.5  T
     SCC iter.                  ...        0 min,  0.043 sec
     gradient                   ...        0 min,  0.067 sec
 * total energy  :   -86.3082226 Eh     change       -0.4991555E-04 Eh
   gradient norm :     0.0040314 Eh/α   predicted    -0.4595549E-04 (  -7.93%)
   displ. norm   :     0.1669431 α      lambda       -0.6114203E-04
   maximum displ.:     0.0907819 α      in ANC's #1, #4, #3, ...

........................................................................
.............................. CYCLE   54 ..............................
........................................................................
   1    -87.1413244 -0.871413E+02  0.538E-03    0.83       0.0  T
   2    -87.1413263 -0.189855E-05  0.300E-03    0.84       4.9  T
   3    -87.1413267 -0.350575E-06  0.114E-03    0.83      13.0  T
   4    -87.1413267 -0.116678E-07  0.652E-04    0.83      22.6  T
   5    -87.1413267 -0.400811E-08  0.241E-04    0.83      61.3  T
   6    -87.1413267 -0.130527E-08  0.458E-05    0.83     321.7  T
   7    -87.1413267 -0.763407E-10  0.180E-05    0.83     818.3  T
     SCC iter.                  ...        0 min,  0.043 sec
     gradient                   ...        0 min,  0.067 sec
 * total energy  :   -86.3082654 Eh     change       -0.4271734E-04 Eh
   gradient norm :     0.0024266 Eh/α   predicted    -0.3142556E-04 ( -26.43%)
   displ. norm   :     0.2969808 α      lambda       -0.5763372E-04
   maximum displ.:     0.1701590 α      in ANC's #1, #4, #3, ...

........................................................................
.............................. CYCLE   55 ..............................
........................................................................
   1    -87.1407669 -0.871408E+02  0.600E-03    0.84       0.0  T
   2    -87.1407685 -0.157792E-05  0.271E-03    0.84       5.4  T
   3    -87.1407688 -0.242010E-06  0.124E-03    0.84      11.9  T
   4    -87.1407688 -0.384109E-07  0.544E-04    0.84      27.1  T
   5    -87.1407688 -0.250783E-08  0.199E-04    0.84      74.0  T
   6    -87.1407688 -0.918149E-09  0.379E-05    0.84     388.9  T
     SCC iter.                  ...        0 min,  0.036 sec
     gradient                   ...        0 min,  0.067 sec
 * total energy  :   -86.3083095 Eh     change       -0.4415533E-04 Eh
   gradient norm :     0.0033951 Eh/α   predicted    -0.3135943E-04 ( -28.98%)
   displ. norm   :     0.2625978 α      lambda       -0.9104278E-04
   maximum displ.:     0.1378727 α      in ANC's #1, #16, #4, ...

........................................................................
.............................. CYCLE   56 ..............................
........................................................................
   1    -87.1425058 -0.871425E+02  0.517E-03    0.85       0.0  T
   2    -87.1425070 -0.123498E-05  0.251E-03    0.85       5.9  T
   3    -87.1425072 -0.132009E-06  0.127E-03    0.85      11.7  T
   4    -87.1425072 -0.181231E-07  0.620E-04    0.85      23.8  T
   5    -87.1425072 -0.224121E-08  0.223E-04    0.85      66.1  T
   6    -87.1425072 -0.189249E-08  0.422E-05    0.85     349.5  T
   7    -87.1425072 -0.568292E-10  0.182E-05    0.85     811.9  T
     SCC iter.                  ...        0 min,  0.043 sec
     gradient                   ...        0 min,  0.067 sec
 * total energy  :   -86.3083589 Eh     change       -0.4933214E-04 Eh
   gradient norm :     0.0039969 Eh/α   predicted    -0.4866136E-04 (  -1.36%)
   displ. norm   :     0.3048539 α      lambda       -0.6205599E-04
   maximum displ.:     0.1804242 α      in ANC's #1, #3, #4, ...

........................................................................
.............................. CYCLE   57 ..............................
........................................................................
   1    -87.1397925 -0.871398E+02  0.686E-03    0.84       0.0  T
   2    -87.1397937 -0.121413E-05  0.310E-03    0.84       4.7  T
   3    -87.1397938 -0.934155E-07  0.170E-03    0.84       8.7  T
   4    -87.1397938 -0.892076E-08  0.471E-04    0.84      31.3  T
   5    -87.1397938 -0.508582E-08  0.140E-04    0.84     105.6  T
   6    -87.1397938 -0.797286E-09  0.420E-05    0.84     350.9  T
     SCC iter.                  ...        0 min,  0.037 sec
     gradient                   ...        0 min,  0.068 sec
[...]
C6-C3-O2-C1=182.75            C4-C6-C3-O2=115.24            C4-C6-C3-O5=297.03            N7-C6-C3-O2=358.51            
N7-C6-C3-O5=180.30            C25-C6-C3-O2=235.36           C25-C6-C3-O5= 57.15           C3-C6-C4-H30=299.28           
C3-C6-C4-H31= 59.90           C3-C6-C4-H32=180.17           N7-C6-C4-H30= 55.21           N7-C6-C4-H31=175.84           
N7-C6-C4-H32=296.11           C25-C6-C4-H30=184.68          C25-C6-C4-H31=305.31          C25-C6-C4-H32= 65.58          
C8-N7-C6-C3=242.33            C8-N7-C6-C4=130.41            C8-N7-C6-C25=  0.83           C9-C8-N7-C6=180.22            
N21-C8-N7-C6=357.74           C10-C9-C8-N7= 97.24           C10-C9-C8-N21=279.68          C11-C9-C8-N7=337.47           
C11-C9-C8-N21=159.91          N12-C9-C8-N7=219.39           N12-C9-C8-N21= 41.83          H33-C10-C9-C8=309.54          
H33-C10-C9-C11= 68.84         H33-C10-C9-N12=189.45         H34-C10-C9-C8=190.35          H34-C10-C9-C11=309.65         
H34-C10-C9-N12= 70.26         H35-C10-C9-C8= 69.51          H35-C10-C9-C11=188.82         H35-C10-C9-N12=309.43         
           -------------------------------------------------
          |                Final Singlepoint                |
           -------------------------------------------------

          ...................................................
          :                      SETUP                      :
          :.................................................:
          :  # basis functions                 144          :
          :  # atomic orbitals                 144          :
          :  # shells                           92          :
          :  # electrons                       140          :
          :  # halogen bonds                     0          :
          :  max. iterations                   250          :
          :  Hamiltonian                  GFN1-xTB          :
          :  restarted?                      false          :
          :  GBSA solvation                   true          :
          :  PC potential                    false          :
          :  electronic temp.          300.0000000     K    :
          :  accuracy                    1.0000000          :
          :  -> integral cutoff          0.2500000E+02      :
          :  -> integral neglect         0.1000000E-07      :
          :  -> SCF convergence          0.1000000E-05 Eh   :
          :  -> wf. convergence          0.2000000E-04 e    :
          :  Broyden damping             0.4000000          :
          ...................................................

 iter      E             dE          RMSdq      gap      omega  full diag
   1    -87.1421412 -0.871421E+02  0.660E-06    0.84       0.0  T
   2    -87.1421412 -0.824230E-12  0.340E-06    0.84    4336.8  T
   3    -87.1421412  0.127898E-12  0.197E-06    0.84    7499.2  T

   *** convergence criteria satisfied after 3 iterations ***

         #    Occupation            Energy/Eh            Energy/eV
      -------------------------------------------------------------
         1        2.0000           -0.9161590             -24.9300
       ...           ...                  ...                  ...
        64        2.0000           -0.4935202             -13.4294
        65        2.0000           -0.4901104             -13.3366
        66        2.0000           -0.4874606             -13.2645
        67        2.0000           -0.4761278             -12.9561
        68        2.0000           -0.4698847             -12.7862
        69        2.0000           -0.4601003             -12.5200
        70        2.0000           -0.4569813             -12.4351 (HOMO)
        71        0.0000           -0.4259374             -11.5903 (LUMO)
        72                         -0.3306812              -8.9983
        73                         -0.3217566              -8.7554
        74                         -0.3101342              -8.4392
        75                         -0.2695680              -7.3353
       ...                                ...                  ...
       144                          0.7366629              20.0456
      -------------------------------------------------------------
                  HL-Gap            0.0310439 Eh            0.8447 eV
             Fermi-level           -0.4414419 Eh          -12.0122 eV

 SCC (total)                   0 d,  0 h,  0 min,  0.137 sec
 SCC setup                      ...        0 min,  0.002 sec (  1.448%)
 Dispersion                     ...        0 min,  0.000 sec (  0.249%)
 classical contributions        ...        0 min,  0.000 sec (  0.077%)
 integral evaluation            ...        0 min,  0.033 sec ( 23.951%)
 iterations                     ...        0 min,  0.022 sec ( 16.017%)
 molecular gradient             ...        0 min,  0.078 sec ( 57.109%)
 printout                       ...        0 min,  0.002 sec (  1.130%)

         :::::::::::::::::::::::::::::::::::::::::::::::::::::
         ::                     SUMMARY                     ::
         :::::::::::::::::::::::::::::::::::::::::::::::::::::
         :: total energy             -86.308738629713 Eh    ::
         :: total w/o Gsasa/hb       -86.282847033692 Eh    ::
         :: gradient norm              0.000593706794 Eh/a0 ::
         :: HOMO-LUMO gap              0.844747498321 eV    ::
         ::.................................................::
         :: SCC energy               -87.142141224489 Eh    ::
         :: -> electrostatic           0.407671385172 Eh    ::
         :: -> Gsolv                  -0.106202125086 Eh    ::
         ::    -> Gelec               -0.080310529065 Eh    ::
         ::    -> Gsasa               -0.024448485010 Eh    ::
         ::    -> Ghb                 -0.009067390016 Eh    ::
         ::    -> Gshift               0.007624279005 Eh    ::
         :: repulsion energy           0.863496402985 Eh    ::
         :: dispersion energy         -0.030093808209 Eh    ::
         :: halogen bond corr.         0.000000000000 Eh    ::
         :: add. restraining           0.000000000000 Eh    ::
         :: total charge               1.000000000001 e     ::
         :::::::::::::::::::::::::::::::::::::::::::::::::::::

           -------------------------------------------------
          |                Property Printout                |
           -------------------------------------------------

    * Orbital Energies and Occupations

         #    Occupation            Energy/Eh            Energy/eV
      -------------------------------------------------------------
         1        2.0000           -0.9161590             -24.9300
       ...           ...                  ...                  ...
        58        2.0000           -0.5309552             -14.4480
        59        2.0000           -0.5282452             -14.3743
        60        2.0000           -0.5231463             -14.2355
        61        2.0000           -0.5146040             -14.0031
        62        2.0000           -0.5129674             -13.9586
        63        2.0000           -0.5097977             -13.8723
        64        2.0000           -0.4935202             -13.4294
        65        2.0000           -0.4901104             -13.3366
        66        2.0000           -0.4874606             -13.2645
        67        2.0000           -0.4761278             -12.9561
        68        2.0000           -0.4698847             -12.7862
        69        2.0000           -0.4601003             -12.5200
        70        2.0000           -0.4569813             -12.4351 (HOMO)
        71        0.0000           -0.4259374             -11.5903 (LUMO)
        72                         -0.3306812              -8.9983
        73                         -0.3217566              -8.7554
        74                         -0.3101342              -8.4392
        75                         -0.2695680              -7.3353
        76                         -0.2629236              -7.1545
        77                         -0.2092189              -5.6931
        78                         -0.1631160              -4.4386
        79                         -0.1592373              -4.3331
        80                         -0.1566170              -4.2618
        81                         -0.1516647              -4.1270
       ...                                ...                  ...
       144                          0.7366629              20.0456
      -------------------------------------------------------------
                  HL-Gap            0.0310439 Eh            0.8447 eV
             Fermi-level           -0.4414419 Eh          -12.0122 eV

  Mulliken/CM5 charges         n(s)   n(p)   n(d)
     1C     0.15325  0.03088   0.997  2.850  0.000
     2O    -0.36714 -0.45270   1.673  4.694  0.000
     3C     0.61935  0.68820   0.958  2.422  0.000
     4C    -0.07268 -0.21064   1.031  3.042  0.000
     5O    -0.48290 -0.53380   1.714  4.768  0.000
     6C     0.12993  0.18926   1.062  2.808  0.000
     7N    -0.36290 -0.55850   1.521  3.842  0.000
     8C     0.29079  0.44189   1.032  2.677  0.000
     9C     0.15806  0.19857   1.065  2.777  0.000
    10C    -0.10455 -0.24503   1.023  3.082  0.000
    11C    -0.10307 -0.24076   1.022  3.081  0.000
    12N    -0.36332 -0.72102   1.439  3.925  0.000
    13C     0.47736  0.58381   0.978  2.545  0.000
    14O    -0.55149 -0.59802   1.723  4.828  0.000
    15C     0.33277  0.45814   1.004  2.663  0.000
    16N    -0.24032 -0.35206   1.568  3.673  0.000
    17N    -0.25745 -0.36457   1.563  3.694  0.000
    18C     0.39132  0.49938   1.010  2.599  0.000
    19C    -0.11131 -0.24861   1.013  3.099  0.000
    20O    -0.33406 -0.38579   1.690  4.644  0.000
    21N    -0.19262 -0.44143   1.458  3.735  0.000
    22C     0.04596 -0.04192   1.002  2.952  0.000
    23C     0.45185  0.55783   0.976  2.572  0.000
    24O    -0.52404 -0.57560   1.721  4.803  0.000
    25C     0.34476  0.38123   1.085  2.571  0.000
    26O    -0.38997 -0.58537   1.689  4.701  0.000
    27H     0.07815  0.13802   0.922  0.000  0.000
    28H     0.08170  0.14190   0.918  0.000  0.000
    29H     0.07713  0.14097   0.923  0.000  0.000
    30H     0.08605  0.14357   0.914  0.000  0.000
    31H     0.08488  0.14406   0.915  0.000  0.000
    32H     0.08291  0.13907   0.917  0.000  0.000
    33H     0.05211  0.10785   0.948  0.000  0.000
    34H     0.07826  0.13901   0.922  0.000  0.000
    35H     0.05412  0.11185   0.946  0.000  0.000
    36H     0.04859  0.10812   0.951  0.000  0.000
    37H     0.05340  0.11229   0.947  0.000  0.000
    38H     0.06696  0.12642   0.933  0.000  0.000
    39H     0.25356  0.46349   0.746  0.000  0.000
    40H     0.08154  0.13606   0.918  0.000  0.000
    41H     0.08191  0.13629   0.918  0.000  0.000
    42H     0.07185  0.12763   0.928  0.000  0.000
    43H     0.09750  0.16622   0.902  0.000  0.000
    44H     0.08683  0.15240   0.913  0.000  0.000
    45H     0.07392  0.14576   0.926  0.000  0.000
    46H     0.47106  0.64564   0.529  0.000  0.000

Wiberg/Mayer (AO) data.
largest (>0.10) Wiberg bond orders for each atom

 ---------------------------------------------------------------------------
     #   Z sym  total        # sym  WBO       # sym  WBO       # sym  WBO
 ---------------------------------------------------------------------------
     1   6 C    3.823 --    29 H    0.980    28 H    0.980    27 H    0.976
                             2 O    0.844
     2   8 O    2.266 --     3 C    1.222     1 C    0.844     5 O    0.148
     3   6 C    3.859 --     5 O    1.726     2 O    1.222     6 C    0.754
     4   6 C    3.955 --    30 H    0.980    31 H    0.980    32 H    0.978
                             6 C    0.896
     5   8 O    2.057 --     3 C    1.726     2 O    0.148
     6   6 C    3.965 --    25 C    1.104     7 N    1.034     4 C    0.896
                             3 C    0.754
     7   7 N    3.036 --     8 C    1.690     6 C    1.034
     8   6 C    3.912 --     7 N    1.690    21 N    1.089     9 C    0.976
     9   6 C    3.932 --    11 C    0.985     8 C    0.976    10 C    0.973
                            12 N    0.932
    10   6 C    3.984 --    33 H    0.984    35 H    0.978    34 H    0.974
                             9 C    0.973
    11   6 C    3.986 --     9 C    0.985    36 H    0.984    37 H    0.983
                            38 H    0.981
    12   7 N    3.310 --    13 C    1.207     9 C    0.932    39 H    0.895
                            14 O    0.166
    13   6 C    3.911 --    14 O    1.621    12 N    1.207    15 C    0.995
    14   8 O    1.933 --    13 C    1.621    12 N    0.166
    15   6 C    3.878 --    16 N    1.602    20 O    1.067    13 C    0.995
    16   7 N    3.021 --    15 C    1.602    17 N    1.207
    17   7 N    2.981 --    18 C    1.597    16 N    1.207
    18   6 C    3.868 --    17 N    1.597    20 O    1.085    19 C    1.032
    19   6 C    3.985 --    18 C    1.032    42 H    0.982    40 H    0.963
                            41 H    0.961
    20   8 O    2.335 --    18 C    1.085    15 C    1.067
    21   7 N    3.529 --    23 C    1.196     8 C    1.089    22 C    0.913
                            24 O    0.171
    22   6 C    3.895 --    45 H    0.975    43 H    0.969    44 H    0.965
                            21 N    0.913
    23   6 C    3.927 --    24 O    1.603    21 N    1.196    25 C    0.997
    24   8 O    1.965 --    23 C    1.603    21 N    0.171
    25   6 C    3.813 --    26 O    1.369     6 C    1.104    23 C    0.997
    26   8 O    2.292 --    25 C    1.369    46 H    0.741
    27   1 H    1.000 --     1 C    0.976
    28   1 H    1.002 --     1 C    0.980
    29   1 H    0.999 --     1 C    0.980
    30   1 H    0.994 --     4 C    0.980
    31   1 H    0.996 --     4 C    0.980
    32   1 H    0.993 --     4 C    0.978
    33   1 H    1.000 --    10 C    0.984
    34   1 H    1.009 --    10 C    0.974
    35   1 H    1.000 --    10 C    0.978
    36   1 H    1.004 --    11 C    0.984
    37   1 H    1.008 --    11 C    0.983
    38   1 H    1.002 --    11 C    0.981
    39   1 H    0.951 --    12 N    0.895
    40   1 H    0.996 --    19 C    0.963
    41   1 H    0.996 --    19 C    0.961
    42   1 H    0.998 --    19 C    0.982
    43   1 H    0.996 --    22 C    0.969
    44   1 H    0.996 --    22 C    0.965
    45   1 H    1.008 --    22 C    0.975
    46   1 H    0.791 --    26 O    0.741
 ---------------------------------------------------------------------------

Topologies differ in total number of bonds
Writing topology from bond orders to xtbtopo.mol

 dipole moment from electron density (au)
     X       Y       Z   
  -2.9153   0.3301  -0.9395  total (Debye):    7.830

           -------------------------------------------------
          |                Geometry Summary                 |
           -------------------------------------------------

      molecular mass/u    :      366.3497991
   center of mass at/Å    :       -0.0081572       0.0749365      -0.1154626
  moments of inertia/u·Å² :        0.1356110E+04   0.4815382E+04   0.4939216E+04
rotational constants/cm⁻¹ :        0.1243087E-01   0.3500788E-02   0.3413018E-02

 * 41 selected distances

     #   Z          #   Z                                           value/Å
     1   6 C        2   8 O                                       1.4462772
     2   8 O        3   6 C                                       1.2909577
     3   6 C        5   8 O                                       1.1911847
     6   6 C        7   7 N                                       1.4145631
     7   7 N        8   6 C                                       1.2785867
     9   6 C       10   6 C                                       1.5368950 (max)
     9   6 C       11   6 C                                       1.5358435
     9   6 C       12   7 N                                       1.4619672
    12   7 N       13   6 C                                       1.3622774
    13   6 C       14   8 O                                       1.2134180
    15   6 C       16   7 N                                       1.3004650
    17   7 N       18   6 C                                       1.3007008
    18   6 C       19   6 C                                       1.4792911
    15   6 C       20   8 O                                       1.3439575
    18   6 C       20   8 O                                       1.3405558
     8   6 C       21   7 N                                       1.3951482
    21   7 N       22   6 C                                       1.4675161
    21   7 N       23   6 C                                       1.3635875
    23   6 C       24   8 O                                       1.2167129
     6   6 C       25   6 C                                       1.4490757
    25   6 C       26   8 O                                       1.2742642
     1   6 C       27   1 H                                       1.0900311
     1   6 C       28   1 H                                       1.0879456
     1   6 C       29   1 H                                       1.0901885
     4   6 C       30   1 H                                       1.0874043
     4   6 C       31   1 H                                       1.0877908
     4   6 C       32   1 H                                       1.0872243
    10   6 C       33   1 H                                       1.0887522
    10   6 C       34   1 H                                       1.0882387
    10   6 C       35   1 H                                       1.0874047
    11   6 C       36   1 H                                       1.0885251
    11   6 C       37   1 H                                       1.0877862
    11   6 C       38   1 H                                       1.0888171
    12   7 N       39   1 H                                       1.0091022
    19   6 C       40   1 H                                       1.0900844
    19   6 C       41   1 H                                       1.0904653
    19   6 C       42   1 H                                       1.0874288
    22   6 C       43   1 H                                       1.0897697
    22   6 C       44   1 H                                       1.0898062
    22   6 C       45   1 H                                       1.0828130
    26   8 O       46   1 H                                       0.9869127 (min)

 * 6 distinct bonds (by element types)

   Z      Z             #   av. dist./Å        max./Å        min./Å
   1 H    6 C          18     1.0883598     1.0904653     1.0828130
   6 C    6 C           4     1.5002763     1.5368950     1.4490757
   1 H    7 N           1     1.0091022     1.0091022     1.0091022
   6 C    7 N           9     1.3716458     1.4675161     1.2785867
   1 H    8 O           1     0.9869127     0.9869127     0.9869127
   6 C    8 O           8     1.2896660     1.4462772     1.1911847


optimized geometry written to: xtbopt.xyz


           -------------------------------------------------
          | TOTAL ENERGY              -86.308738629713 Eh   |
          | GRADIENT NORM               0.000593706794 Eh/α |
          | HOMO-LUMO GAP               0.844747498321 eV   |
           -------------------------------------------------

------------------------------------------------------------------------
 * finished run on 2023/06/20 at 15:43:06.916     
------------------------------------------------------------------------
 total:
 * wall-time:     0 d,  0 h,  0 min, 12.501 sec
 *  cpu-time:     0 d,  0 h,  0 min, 12.442 sec
 * ratio c/w:     0.995 speedup
 SCF:
 * wall-time:     0 d,  0 h,  0 min,  0.241 sec
 *  cpu-time:     0 d,  0 h,  0 min,  0.240 sec
 * ratio c/w:     0.998 speedup
 ANC optimizer:
 * wall-time:     0 d,  0 h,  0 min, 12.162 sec
 *  cpu-time:     0 d,  0 h,  0 min, 12.152 sec
 * ratio c/w:     0.999 speedup

