      -----------------------------------------------------------      
     |                   =====================                   |     
     |                           x T B                           |     
     |                   =====================                   |     
     |                         S. Grimme                         |     
     |          Mulliken Center for Theoretical Chemistry        |     
     |                    University of Bonn                     |     
      -----------------------------------------------------------      

   * xtb version 6.5.1 (579679a) compiled by 'ehlert@majestix' on 2022-07-11

   xtb is free software: you can redistribute it and/or modify it under
   the terms of the GNU Lesser General Public License as published by
   the Free Software Foundation, either version 3 of the License, or
   (at your option) any later version.
   
   xtb is distributed in the hope that it will be useful,
   but WITHOUT ANY WARRANTY; without even the implied warranty of
   MERCHANTABILITY or FITNESS FOR A PARTICULAR PURPOSE.  See the
   GNU Lesser General Public License for more details.
   
   Cite this work as:
   * C. Bannwarth, E. Caldeweyher, S. Ehlert, A. Hansen, P. Pracht,
     J. Seibert, S. Spicher, S. Grimme, WIREs Comput. Mol. Sci., 2020, 11,
     e01493. DOI: 10.1002/wcms.1493
   
   for GFN2-xTB:
   * C. Bannwarth, S. Ehlert and S. Grimme., J. Chem. Theory Comput., 2019,
     15, 1652-1671. DOI: 10.1021/acs.jctc.8b01176
   for GFN1-xTB:
   * S. Grimme, C. Bannwarth, P. Shushkov, J. Chem. Theory Comput., 2017,
     13, 1989-2009. DOI: 10.1021/acs.jctc.7b00118
   for GFN0-xTB:
   * P. Pracht, E. Caldeweyher, S. Ehlert, S. Grimme, ChemRxiv, 2019, preprint.
     DOI: 10.26434/chemrxiv.8326202.v1
   for GFN-FF:
   * S. Spicher and S. Grimme, Angew. Chem. Int. Ed., 2020, 59, 15665-15673.
     DOI: 10.1002/anie.202004239
   
   for ALPB and GBSA implicit solvation:
   * S. Ehlert, M. Stahn, S. Spicher, S. Grimme, J. Chem. Theory Comput.,
     2021, 17, 4250-4261. DOI: 10.1021/acs.jctc.1c00471
   
   for DFT-D4:
   * E. Caldeweyher, C. Bannwarth and S. Grimme, J. Chem. Phys., 2017,
     147, 034112. DOI: 10.1063/1.4993215
   * E. Caldeweyher, S. Ehlert, A. Hansen, H. Neugebauer, S. Spicher,
     C. Bannwarth and S. Grimme, J. Chem. Phys., 2019, 150, 154122.
     DOI: 10.1063/1.5090222
   * E. Caldeweyher, J.-M. Mewes, S. Ehlert and S. Grimme, Phys. Chem. Chem. Phys.
     2020, 22, 8499-8512. DOI: 10.1039/D0CP00502A
   
   for sTDA-xTB:
   * S. Grimme and C. Bannwarth, J. Chem. Phys., 2016, 145, 054103.
     DOI: 10.1063/1.4959605
   
   in the mass-spec context:
   * V. Asgeirsson, C. Bauer and S. Grimme, Chem. Sci., 2017, 8, 4879.
     DOI: 10.1039/c7sc00601b
   * J. Koopman and S. Grimme, ACS Omega 2019, 4, 12, 15120-15133.
     DOI: 10.1021/acsomega.9b02011
   
   for metadynamics refer to:
   * S. Grimme, J. Chem. Theory Comput., 2019, 155, 2847-2862
     DOI: 10.1021/acs.jctc.9b00143
   
   for SPH calculations refer to:
   * S. Spicher and S. Grimme, J. Chem. Theory Comput., 2021, 17, 1701-1714
     DOI: 10.1021/acs.jctc.0c01306
   
   with help from (in alphabetical order)
   P. Atkinson, C. Bannwarth, F. Bohle, G. Brandenburg, E. Caldeweyher
   M. Checinski, S. Dohm, S. Ehlert, S. Ehrlich, I. Gerasimov, C. Hölzer
   A. Katbashev, J. Koopman, C. Lavigne, S. Lehtola, F. März, M. Müller,
   F. Musil, H. Neugebauer, J. Pisarek, C. Plett, P. Pracht, F. Pultar,
   J. Seibert, P. Shushkov, S. Spicher, M. Stahn, M. Steiner, T. Strunk,
   J. Stückrath, T. Rose, and J. Unsleber
   
 * started run on 2023/06/20 at 15:05:02.008     

           -------------------------------------------------
          |                Calculation Setup                |
           -------------------------------------------------

          program call               : /lustre/hpc/kemi/ree/PhD/git/ReactivityQM/dep/xtb-6.5.1/bin/xtb --gfn 1 /lustre/hpc/kemi/ree/PhD/git/ReactivityQM/calculations/R01/reac02prodN03/conf10/R01_reac02prodN03_conf10_gfn1.xyz --opt --vfukui --chrg 1 --uhf 0 --alpb DMSO
          hostname                   : node312
          coordinate file            : /lustre/hpc/kemi/ree/PhD/git/ReactivityQM/calculations/R01/reac02prodN03/conf10/R01_reac02prodN03_conf10_gfn1.xyz
          omp threads                :                     1

   ID    Z sym.   atoms
    1    6 C      1, 3, 5, 7-10, 13, 15, 17
    2    8 O      2, 4, 14, 16
    3    7 N      6, 11, 12
    4    1 H      18-33

           -------------------------------------------------
          |                 G F N 1 - x T B                 |
           -------------------------------------------------

        Reference                      10.1021/acs.jctc.7b00118
      * Hamiltonian:
        H0-scaling (s, p, d)           1.850000    2.250000    2.000000
        zeta-weighting                 0.000000
      * Dispersion:
        s8                             2.400000
        a1                             0.630000
        a2                             5.000000
        s9                             0.000000
      * Repulsion:
        kExp                           1.500000
        rExp                           1.000000
      * Coulomb:
        alpha                          2.000000
        third order                    atomic
        anisotropic                    false
      * Halogen bond correction:
        rad-scale                      1.300000
        damping                        0.440000

      * Solvation model:               ALPB
        Solvent                        DMSO
        Parameter file                 internal GFN1-xTB/ALPB
        Dielectric constant                4.6680E+01
        Reference state                gsolv [1 M gas/solution]
        Free energy shift                  7.6243E-03 Eh       4.7843E+00 kcal/mol
        Temperature                        2.9815E+02 K
        Density                            1.1000E+00 kg/L
        Solvent mass                       7.8130E+01 g/mol
        Interaction kernel             P16
        Born radius scaling (c1)           1.7672E+00
        Born radii integrator          GBOBC
        Born offset                        0.0000E+00 a0       0.0000E+00 AA
        H-bond correction              true
        Ion screening                  false
        Surface tension                    1.0000E-05 Eh       1.5569E+01 dyn/cm
        Grid points                               230 per atom

          ...................................................
          :                      SETUP                      :
          :.................................................:
          :  # basis functions                 100          :
          :  # atomic orbitals                 100          :
          :  # shells                           66          :
          :  # electrons                        94          :
          :  # halogen bonds                     0          :
          :  max. iterations                   250          :
          :  Hamiltonian                  GFN1-xTB          :
          :  restarted?                      false          :
          :  GBSA solvation                   true          :
          :  PC potential                    false          :
          :  electronic temp.          300.0000000     K    :
          :  accuracy                    1.0000000          :
          :  -> integral cutoff          0.2500000E+02      :
          :  -> integral neglect         0.1000000E-07      :
          :  -> SCF convergence          0.1000000E-05 Eh   :
          :  -> wf. convergence          0.2000000E-04 e    :
          :  Broyden damping             0.4000000          :
          ...................................................

 iter      E             dE          RMSdq      gap      omega  full diag
   1    -58.1621464 -0.581621E+02  0.803E+00    2.58       0.0  T
   2    -58.3594472 -0.197301E+00  0.478E+00    1.56       1.0  T
   3    -58.3558807  0.356649E-02  0.133E+00    1.38       1.0  T
   4    -58.3667401 -0.108594E-01  0.142E-01    1.27       1.0  T
   5    -58.3671355 -0.395416E-03  0.378E-02    1.30       1.0  T
   6    -58.3671566 -0.210472E-04  0.147E-02    1.31       1.2  T
   7    -58.3671595 -0.294466E-05  0.491E-03    1.31       3.5  T
   8    -58.3671598 -0.307657E-06  0.110E-03    1.32      15.9  T
   9    -58.3671598 -0.184553E-07  0.340E-04    1.32      51.1  T
  10    -58.3671598 -0.190350E-08  0.867E-05    1.32     200.7  T
  11    -58.3671598 -0.127706E-09  0.233E-05    1.32     746.0  T

   *** convergence criteria satisfied after 11 iterations ***

         #    Occupation            Energy/Eh            Energy/eV
      -------------------------------------------------------------
         1        2.0000           -0.9136354             -24.8613
       ...           ...                  ...                  ...
        41        2.0000           -0.5112704             -13.9124
        42        2.0000           -0.5104690             -13.8906
        43        2.0000           -0.4999337             -13.6039
        44        2.0000           -0.4928997             -13.4125
        45        2.0000           -0.4860847             -13.2270
        46        2.0000           -0.4813964             -13.0995
        47        2.0000           -0.4282990             -11.6546 (HOMO)
        48                         -0.3799557             -10.3391 (LUMO)
        49                         -0.3213697              -8.7449
        50                         -0.2812304              -7.6527
        51                         -0.2094448              -5.6993
        52                         -0.1871307              -5.0921
       ...                                ...                  ...
       100                          0.6646227              18.0853
      -------------------------------------------------------------
                  HL-Gap            0.0483433 Eh            1.3155 eV
             Fermi-level           -0.4041274 Eh          -10.9969 eV

 SCC (total)                   0 d,  0 h,  0 min,  0.098 sec
 SCC setup                      ...        0 min,  0.002 sec (  1.656%)
 Dispersion                     ...        0 min,  0.000 sec (  0.279%)
 classical contributions        ...        0 min,  0.000 sec (  0.091%)
 integral evaluation            ...        0 min,  0.023 sec ( 23.370%)
 iterations                     ...        0 min,  0.021 sec ( 21.649%)
 molecular gradient             ...        0 min,  0.051 sec ( 52.314%)
 printout                       ...        0 min,  0.001 sec (  0.603%)

         :::::::::::::::::::::::::::::::::::::::::::::::::::::
         ::                     SUMMARY                     ::
         :::::::::::::::::::::::::::::::::::::::::::::::::::::
         :: total energy             -57.805103986453 Eh    ::
         :: total w/o Gsasa/hb       -57.783920451335 Eh    ::
         :: gradient norm              0.098791003972 Eh/a0 ::
         :: HOMO-LUMO gap              1.315488822432 eV    ::
         ::.................................................::
         :: SCC energy               -58.367159830658 Eh    ::
         :: -> electrostatic           0.302512430731 Eh    ::
         :: -> Gsolv                  -0.099462978285 Eh    ::
         ::    -> Gelec               -0.078279443168 Eh    ::
         ::    -> Gsasa               -0.019283498850 Eh    ::
         ::    -> Ghb                 -0.009524315273 Eh    ::
         ::    -> Gshift               0.007624279005 Eh    ::
         :: repulsion energy           0.580412614197 Eh    ::
         :: dispersion energy         -0.018356769992 Eh    ::
         :: halogen bond corr.         0.000000000000 Eh    ::
         :: add. restraining           0.000000000000 Eh    ::
         :: total charge               1.000000000000 e     ::
         :::::::::::::::::::::::::::::::::::::::::::::::::::::

      ----------------------------------------------------------- 
     |                   =====================                   |
     |                        A N C O P T                        |
     |                   =====================                   |
     |               Approximate Normal Coordinate               |
     |                Rational Function Optimizer                |
      ----------------------------------------------------------- 

          ...................................................
          :                      SETUP                      :
          :.................................................:
          :   optimization level            normal          :
          :   max. optcycles                   200          :
          :   ANC micro-cycles                  20          :
          :   degrees of freedom                93          :
          :.................................................:
          :   RF solver                   davidson          :
          :   write xtbopt.log                true          :
          :   linear?                        false          :
          :   energy convergence         0.5000000E-05 Eh   :
          :   grad. convergence          0.1000000E-02 Eh/α :
          :   maximium RF displ.         1.0000000          :
          :   Hlow (freq-cutoff)         0.1000000E-01      :
          :   Hmax (freq-cutoff)         5.0000000          :
          :   S6 in model hess.         20.0000000          :
          ...................................................

generating ANC from model Hessian ...
Using Lindh-Hessian (1995)
 Shifting diagonal of input Hessian by   9.388884134751896E-003
 Lowest  eigenvalues of input Hessian
    0.000000    0.000000    0.000000    0.000000    0.000000    0.000000
    0.010000    0.010451    0.011538    0.011731    0.013151    0.013822
    0.014591    0.015571    0.018075    0.018806    0.019097    0.019800
 Highest eigenvalues
    1.810546    1.950645    1.998272    2.178633    2.334207    2.435439
 

........................................................................
.............................. CYCLE    1 ..............................
........................................................................
   1    -58.3671598 -0.583672E+02  0.943E-06    1.32       0.0  T
   2    -58.3671598 -0.568434E-12  0.504E-06    1.32    3452.1  T
   3    -58.3671598  0.000000E+00  0.213E-06    1.32    8180.0  T
     SCC iter.                  ...        0 min,  0.006 sec
     gradient                   ...        0 min,  0.051 sec
 * total energy  :   -57.8051040 Eh     change       -0.2877698E-11 Eh
   gradient norm :     0.0987911 Eh/α   predicted     0.0000000E+00 (-100.00%)
   displ. norm   :     0.4347971 α      lambda       -0.1842996E-01
   maximum displ.:     0.2607574 α      in ANC's #21, #19, #15, ...

........................................................................
.............................. CYCLE    2 ..............................
........................................................................
   1    -58.3863492 -0.583863E+02  0.759E-02    1.46       0.0  T
   2    -58.3864993 -0.150118E-03  0.285E-02    1.49       1.0  T
   3    -58.3865055 -0.620817E-05  0.150E-02    1.49       1.2  T
   4    -58.3865061 -0.519907E-06  0.464E-03    1.49       3.7  T
   5    -58.3865062 -0.981057E-07  0.833E-04    1.49      20.9  T
   6    -58.3865062 -0.558133E-08  0.310E-04    1.49      56.1  T
   7    -58.3865062 -0.842284E-09  0.106E-04    1.49     163.8  T
   8    -58.3865062 -0.173138E-09  0.237E-05    1.49     735.8  T
     SCC iter.                  ...        0 min,  0.015 sec
     gradient                   ...        0 min,  0.051 sec
 * total energy  :   -57.8188110 Eh     change       -0.1370698E-01 Eh
   gradient norm :     0.0525908 Eh/α   predicted    -0.1097238E-01 ( -19.95%)
   displ. norm   :     0.4221017 α      lambda       -0.9394222E-02
   maximum displ.:     0.2785623 α      in ANC's #21, #19, #15, ...

........................................................................
.............................. CYCLE    3 ..............................
........................................................................
   1    -58.3976787 -0.583977E+02  0.774E-02    1.63       0.0  T
   2    -58.3978863 -0.207527E-03  0.295E-02    1.65       1.0  T
   3    -58.3978934 -0.715194E-05  0.156E-02    1.65       1.1  T
   4    -58.3978937 -0.314630E-06  0.491E-03    1.65       3.5  T
   5    -58.3978939 -0.150077E-06  0.696E-04    1.65      25.0  T
   6    -58.3978939 -0.680600E-08  0.291E-04    1.64      59.9  T
   7    -58.3978939 -0.393150E-09  0.105E-04    1.64     166.1  T
   8    -58.3978939 -0.871339E-10  0.225E-05    1.64     772.2  T
     SCC iter.                  ...        0 min,  0.015 sec
     gradient                   ...        0 min,  0.052 sec
 * total energy  :   -57.8248037 Eh     change       -0.5992692E-02 Eh
   gradient norm :     0.0211812 Eh/α   predicted    -0.5533995E-02 (  -7.65%)
   displ. norm   :     0.3135596 α      lambda       -0.2726004E-02
   maximum displ.:     0.1641061 α      in ANC's #21, #15, #19, ...

........................................................................
.............................. CYCLE    4 ..............................
........................................................................
   1    -58.3998626 -0.583999E+02  0.373E-02    1.66       0.0  T
   2    -58.3999300 -0.674694E-04  0.152E-02    1.67       1.1  T
   3    -58.3999328 -0.272746E-05  0.722E-03    1.66       2.4  T
   4    -58.3999330 -0.286443E-06  0.417E-03    1.66       4.2  T
   5    -58.3999332 -0.111958E-06  0.679E-04    1.66      25.6  T
   6    -58.3999332 -0.114321E-07  0.238E-04    1.66      73.1  T
   7    -58.3999332 -0.492697E-09  0.894E-05    1.66     194.7  T
   8    -58.3999332 -0.514859E-10  0.334E-05    1.66     520.8  T
     SCC iter.                  ...        0 min,  0.015 sec
     gradient                   ...        0 min,  0.051 sec
 * total energy  :   -57.8269700 Eh     change       -0.2166359E-02 Eh
   gradient norm :     0.0241924 Eh/α   predicted    -0.1497016E-02 ( -30.90%)
   displ. norm   :     0.4840722 α      lambda       -0.3544040E-02
   maximum displ.:     0.2207791 α      in ANC's #21, #6, #4, ...

........................................................................
.............................. CYCLE    5 ..............................
........................................................................
   1    -58.3993812 -0.583994E+02  0.947E-02    1.62       0.0  T
   2    -58.3997982 -0.416948E-03  0.338E-02    1.62       1.0  T
   3    -58.3998150 -0.167871E-04  0.140E-02    1.60       1.2  T
   4    -58.3998177 -0.268118E-05  0.955E-03    1.60       1.8  T
   5    -58.3998182 -0.561217E-06  0.147E-03    1.60      11.8  T
   6    -58.3998183 -0.327509E-07  0.533E-04    1.60      32.6  T
   7    -58.3998183 -0.485554E-08  0.218E-04    1.60      79.8  T
   8    -58.3998183 -0.173522E-09  0.652E-05    1.60     267.1  T
   9    -58.3998183 -0.257145E-10  0.153E-05    1.60    1141.1  T
     SCC iter.                  ...        0 min,  0.017 sec
     gradient                   ...        0 min,  0.051 sec
 * total energy  :   -57.8296602 Eh     change       -0.2690148E-02 Eh
   gradient norm :     0.0342631 Eh/α   predicted    -0.2187326E-02 ( -18.69%)
   displ. norm   :     0.3964005 α      lambda       -0.2741024E-02
   maximum displ.:     0.1470843 α      in ANC's #21, #6, #4, ...

........................................................................
.............................. CYCLE    6 ..............................
........................................................................
   1    -58.3979162 -0.583979E+02  0.124E-01    1.52       0.0  T
   2    -58.3985557 -0.639517E-03  0.350E-02    1.50       1.0  T
   3    -58.3985761 -0.203686E-04  0.146E-02    1.48       1.2  T
   4    -58.3985786 -0.257029E-05  0.103E-02    1.48       1.7  T
   5    -58.3985793 -0.627721E-06  0.190E-03    1.47       9.2  T
   6    -58.3985793 -0.653386E-07  0.732E-04    1.48      23.8  T
   7    -58.3985793 -0.121375E-07  0.267E-04    1.48      65.1  T
   8    -58.3985793 -0.358419E-09  0.873E-05    1.48     199.5  T
   9    -58.3985793 -0.279101E-10  0.191E-05    1.48     909.8  T
     SCC iter.                  ...        0 min,  0.017 sec
     gradient                   ...        0 min,  0.051 sec
 * total energy  :   -57.8311158 Eh     change       -0.1455658E-02 Eh
   gradient norm :     0.0438422 Eh/α   predicted    -0.1585871E-02 (   8.95%)
   displ. norm   :     0.1440149 α      lambda       -0.3042164E-02
   maximum displ.:     0.0617986 α      in ANC's #21, #3, #17, ...

........................................................................
.............................. CYCLE    7 ..............................
........................................................................
   1    -58.3991251 -0.583991E+02  0.406E-02    1.43       0.0  T
   2    -58.3991663 -0.412698E-04  0.100E-02    1.41       1.7  T
   3    -58.3991684 -0.203644E-05  0.647E-03    1.41       2.7  T
   4    -58.3991688 -0.392606E-06  0.260E-03    1.40       6.7  T
   5    -58.3991688 -0.544563E-07  0.847E-04    1.40      20.5  T
   6    -58.3991688 -0.766737E-08  0.182E-04    1.40      95.7  T
   7    -58.3991688 -0.636376E-09  0.863E-05    1.40     201.8  T
     SCC iter.                  ...        0 min,  0.013 sec
     gradient                   ...        0 min,  0.039 sec
 * total energy  :   -57.8334269 Eh     change       -0.2311101E-02 Eh
   gradient norm :     0.0327579 Eh/α   predicted    -0.1552659E-02 ( -32.82%)
   displ. norm   :     0.3916937 α      lambda       -0.5492604E-02
   maximum displ.:     0.1204576 α      in ANC's #3, #37, #8, ...

........................................................................
.............................. CYCLE    8 ..............................
........................................................................
   1    -58.4047328 -0.584047E+02  0.142E-01    1.29       0.0  T
   2    -58.4052716 -0.538766E-03  0.334E-02    1.24       1.0  T
   3    -58.4053039 -0.322864E-04  0.261E-02    1.22       1.0  T
   4    -58.4053132 -0.937692E-05  0.111E-02    1.22       1.6  T
   5    -58.4053134 -0.179956E-06  0.244E-03    1.21       7.1  T
   6    -58.4053135 -0.878291E-07  0.587E-04    1.21      29.7  T
   7    -58.4053135 -0.558019E-08  0.305E-04    1.21      57.0  T
   8    -58.4053135 -0.526349E-09  0.765E-05    1.21     227.7  T
   9    -58.4053135 -0.361453E-10  0.185E-05    1.21     942.8  T
     SCC iter.                  ...        0 min,  0.013 sec
     gradient                   ...        0 min,  0.037 sec
 * total energy  :   -57.8371096 Eh     change       -0.3682656E-02 Eh
   gradient norm :     0.0379203 Eh/α   predicted    -0.3167667E-02 ( -13.98%)
   displ. norm   :     0.3703954 α      lambda       -0.5381386E-02
   maximum displ.:     0.1816781 α      in ANC's #21, #19, #35, ...

........................................................................
.............................. CYCLE    9 ..............................
........................................................................
   1    -58.4076955 -0.584077E+02  0.110E-01    1.21       0.0  T
   2    -58.4079880 -0.292428E-03  0.537E-02    1.17       1.0  T
   3    -58.4081245 -0.136552E-03  0.140E-02    1.18       1.2  T
   4    -58.4081263 -0.172844E-05  0.444E-03    1.17       3.9  T
   5    -58.4081263 -0.494259E-07  0.121E-03    1.17      14.4  T
   6    -58.4081263 -0.165750E-07  0.180E-04    1.17      96.7  T
   7    -58.4081263 -0.552802E-09  0.674E-05    1.17     258.4  T
     SCC iter.                  ...        0 min,  0.014 sec
     gradient                   ...        0 min,  0.054 sec
 * total energy  :   -57.8403607 Eh     change       -0.3251121E-02 Eh
   gradient norm :     0.0331375 Eh/α   predicted    -0.3059859E-02 (  -5.88%)
   displ. norm   :     0.4396894 α      lambda       -0.5062543E-02
   maximum displ.:     0.1410319 α      in ANC's #37, #33, #3, ...

........................................................................
.............................. CYCLE   10 ..............................
........................................................................
   1    -58.4199357 -0.584199E+02  0.164E-01    1.19       0.0  T
   2    -58.4205745 -0.638863E-03  0.857E-02    1.14       1.0  T
   3    -58.4209325 -0.358005E-03  0.224E-02    1.14       1.0  T
   4    -58.4209358 -0.324223E-05  0.681E-03    1.13       2.6  T
   5    -58.4209363 -0.533424E-06  0.103E-03    1.13      16.9  T
   6    -58.4209363 -0.320879E-07  0.266E-04    1.13      65.4  T
   7    -58.4209363 -0.135275E-08  0.103E-04    1.13     168.3  T
   8    -58.4209363 -0.730793E-10  0.282E-05    1.13     617.4  T
     SCC iter.                  ...        0 min,  0.016 sec
     gradient                   ...        0 min,  0.054 sec
 * total energy  :   -57.8402506 Eh     change        0.1100981E-03 Eh
   gradient norm :     0.0711604 Eh/α   predicted    -0.3020642E-02 (*******%)
   displ. norm   :     0.2002411 α      lambda       -0.8300031E-02
   maximum displ.:     0.0729239 α      in ANC's #6, #31, #9, ...

........................................................................
.............................. CYCLE   11 ..............................
........................................................................
   1    -58.4138223 -0.584138E+02  0.684E-02    1.18       0.0  T
   2    -58.4139175 -0.951558E-04  0.319E-02    1.19       1.0  T
   3    -58.4139367 -0.191948E-04  0.169E-02    1.18       1.0  T
   4    -58.4139394 -0.269227E-05  0.615E-03    1.18       2.8  T
   5    -58.4139396 -0.224840E-06  0.505E-04    1.18      34.5  T
   6    -58.4139396 -0.893659E-08  0.121E-04    1.18     144.2  T
   7    -58.4139396 -0.196955E-09  0.588E-05    1.18     295.9  T
     SCC iter.                  ...        0 min,  0.014 sec
     gradient                   ...        0 min,  0.054 sec
 * total energy  :   -57.8438267 Eh     change       -0.3576110E-02 Eh
   gradient norm :     0.0246974 Eh/α   predicted    -0.4316411E-02 (  20.70%)
   displ. norm   :     0.2332002 α      lambda       -0.1660849E-02
   maximum displ.:     0.1228105 α      in ANC's #6, #7, #8, ...

........................................................................
.............................. CYCLE   12 ..............................
........................................................................
   1    -58.4141509 -0.584142E+02  0.231E-02    1.16       0.0  T
   2    -58.4141628 -0.118380E-04  0.116E-02    1.16       1.5  T
   3    -58.4141686 -0.577379E-05  0.631E-03    1.16       2.8  T
   4    -58.4141688 -0.231878E-06  0.134E-03    1.16      13.0  T
   5    -58.4141688 -0.110617E-07  0.205E-04    1.16      85.1  T
   6    -58.4141688 -0.809997E-09  0.693E-05    1.16     251.1  T
   7    -58.4141688 -0.491696E-10  0.252E-05    1.16     692.1  T
     SCC iter.                  ...        0 min,  0.015 sec
     gradient                   ...        0 min,  0.054 sec
 * total energy  :   -57.8450730 Eh     change       -0.1246328E-02 Eh
   gradient norm :     0.0182814 Eh/α   predicted    -0.8755891E-03 ( -29.75%)
   displ. norm   :     0.4686914 α      lambda       -0.2508345E-02
   maximum displ.:     0.2568643 α      in ANC's #6, #24, #7, ...

........................................................................
.............................. CYCLE   13 ..............................
........................................................................
   1    -58.4166569 -0.584167E+02  0.433E-02    1.21       0.0  T
   2    -58.4167013 -0.444210E-04  0.199E-02    1.18       1.0  T
   3    -58.4167155 -0.142010E-04  0.124E-02    1.18       1.4  T
   4    -58.4167164 -0.862776E-06  0.391E-03    1.18       4.4  T
   5    -58.4167165 -0.105188E-06  0.551E-04    1.18      31.6  T
   6    -58.4167165 -0.137886E-07  0.204E-04    1.18      85.2  T
   7    -58.4167165 -0.542158E-09  0.788E-05    1.18     220.8  T
   8    -58.4167165 -0.382556E-10  0.187E-05    1.18     931.0  T
     SCC iter.                  ...        0 min,  0.016 sec
     gradient                   ...        0 min,  0.054 sec
 * total energy  :   -57.8467666 Eh     change       -0.1693561E-02 Eh
   gradient norm :     0.0131873 Eh/α   predicted    -0.1529702E-02 (  -9.68%)
   displ. norm   :     0.4089194 α      lambda       -0.1174823E-02
   maximum displ.:     0.2534977 α      in ANC's #6, #7, #4, ...

........................................................................
.............................. CYCLE   14 ..............................
........................................................................
   1    -58.4169034 -0.584169E+02  0.355E-02    1.20       0.0  T
   2    -58.4169487 -0.453124E-04  0.220E-02    1.19       1.0  T
   3    -58.4169716 -0.228859E-04  0.507E-03    1.19       3.4  T
   4    -58.4169716 -0.576611E-07  0.272E-03    1.19       6.4  T
   5    -58.4169716 -0.551721E-08  0.332E-04    1.19      52.4  T
   6    -58.4169716 -0.453888E-08  0.110E-04    1.19     158.8  T
   7    -58.4169716 -0.148553E-09  0.442E-05    1.19     393.5  T
     SCC iter.                  ...        0 min,  0.014 sec
     gradient                   ...        0 min,  0.054 sec
 * total energy  :   -57.8475560 Eh     change       -0.7893523E-03 Eh
   gradient norm :     0.0148290 Eh/α   predicted    -0.6856431E-03 ( -13.14%)
   displ. norm   :     0.3489944 α      lambda       -0.8918066E-03
   maximum displ.:     0.1932636 α      in ANC's #6, #4, #2, ...

........................................................................
.............................. CYCLE   15 ..............................
........................................................................
   1    -58.4192992 -0.584193E+02  0.189E-02    1.21       0.0  T
   2    -58.4193111 -0.118961E-04  0.107E-02    1.20       1.6  T
   3    -58.4193144 -0.324259E-05  0.424E-03    1.20       4.1  T
   4    -58.4193144 -0.438438E-07  0.218E-03    1.20       8.0  T
   5    -58.4193145 -0.391906E-07  0.312E-04    1.20      55.8  T
   6    -58.4193145 -0.304357E-08  0.899E-05    1.20     193.6  T
   7    -58.4193145 -0.120018E-09  0.327E-05    1.20     533.1  T
     SCC iter.                  ...        0 min,  0.014 sec
     gradient                   ...        0 min,  0.054 sec
 * total energy  :   -57.8482325 Eh     change       -0.6765413E-03 Eh
   gradient norm :     0.0135616 Eh/α   predicted    -0.5002133E-03 ( -26.06%)
   displ. norm   :     0.3776866 α      lambda       -0.9378485E-03
   maximum displ.:     0.1946897 α      in ANC's #4, #6, #2, ...

........................................................................
.............................. CYCLE   16 ..............................
........................................................................
   1    -58.4221394 -0.584221E+02  0.230E-02    1.22       0.0  T
   2    -58.4221577 -0.183086E-04  0.154E-02    1.21       1.1  T
   3    -58.4221648 -0.712507E-05  0.567E-03    1.21       3.1  T
   4    -58.4221648 -0.760730E-08  0.265E-03    1.21       6.6  T
   5    -58.4221649 -0.452547E-07  0.347E-04    1.21      50.2  T
   6    -58.4221649 -0.243700E-08  0.101E-04    1.21     171.9  T
   7    -58.4221649 -0.175810E-09  0.355E-05    1.21     490.0  T
     SCC iter.                  ...        0 min,  0.014 sec
     gradient                   ...        0 min,  0.054 sec
 * total energy  :   -57.8489112 Eh     change       -0.6787161E-03 Eh
   gradient norm :     0.0110091 Eh/α   predicted    -0.5358190E-03 ( -21.05%)
   displ. norm   :     0.4293705 α      lambda       -0.6849003E-03
   maximum displ.:     0.2362037 α      in ANC's #4, #2, #6, ...

........................................................................
.............................. CYCLE   17 ..............................
........................................................................
   1    -58.4209529 -0.584210E+02  0.187E-02    1.22       0.0  T
   2    -58.4209620 -0.911526E-05  0.101E-02    1.21       1.7  T
   3    -58.4209657 -0.375616E-05  0.441E-03    1.21       3.9  T
   4    -58.4209659 -0.151941E-06  0.151E-03    1.21      11.5  T
   5    -58.4209659 -0.199736E-08  0.243E-04    1.21      71.8  T
   6    -58.4209659 -0.676522E-09  0.779E-05    1.21     223.4  T
   7    -58.4209659 -0.607869E-10  0.268E-05    1.21     650.6  T
     SCC iter.                  ...        0 min,  0.014 sec
     gradient                   ...        0 min,  0.061 sec
 * total energy  :   -57.8493952 Eh     change       -0.4840318E-03 Eh
   gradient norm :     0.0133718 Eh/α   predicted    -0.4055867E-03 ( -16.21%)
   displ. norm   :     0.3605261 α      lambda       -0.7691616E-03
   maximum displ.:     0.2116463 α      in ANC's #4, #2, #6, ...

........................................................................
.............................. CYCLE   18 ..............................
........................................................................
   1    -58.4245370 -0.584245E+02  0.206E-02    1.21       0.0  T
   2    -58.4245474 -0.103953E-04  0.120E-02    1.22       1.5  T
   3    -58.4245489 -0.149419E-05  0.748E-03    1.22       2.3  T
   4    -58.4245491 -0.234973E-06  0.256E-03    1.22       6.8  T
   5    -58.4245493 -0.103025E-06  0.318E-04    1.22      54.8  T
   6    -58.4245493 -0.172432E-08  0.110E-04    1.22     157.8  T
   7    -58.4245493 -0.946301E-10  0.394E-05    1.22     442.3  T
     SCC iter.                  ...        0 min,  0.013 sec
     gradient                   ...        0 min,  0.054 sec
 * total energy  :   -57.8497906 Eh     change       -0.3953467E-03 Eh
   gradient norm :     0.0108944 Eh/α   predicted    -0.4345702E-03 (   9.92%)
   displ. norm   :     0.3932387 α      lambda       -0.5048192E-03
   maximum displ.:     0.2224627 α      in ANC's #4, #2, #6, ...

........................................................................
.............................. CYCLE   19 ..............................
........................................................................
   1    -58.4211268 -0.584211E+02  0.173E-02    1.21       0.0  T
   2    -58.4211282 -0.134247E-05  0.931E-03    1.21       1.9  T
   3    -58.4211279  0.216681E-06  0.542E-03    1.21       3.2  T
   4    -58.4211285 -0.558573E-06  0.720E-04    1.21      24.2  T
   5    -58.4211285 -0.198218E-07  0.211E-04    1.21      82.5  T
   6    -58.4211285 -0.493678E-09  0.760E-05    1.21     229.2  T
   7    -58.4211285 -0.459508E-10  0.132E-05    1.21    1319.6  T
     SCC iter.                  ...        0 min,  0.013 sec
     gradient                   ...        0 min,  0.054 sec
 * total energy  :   -57.8500581 Eh     change       -0.2675144E-03 Eh
   gradient norm :     0.0116125 Eh/α   predicted    -0.2914435E-03 (   8.94%)
   displ. norm   :     0.1069512 α      lambda       -0.2873842E-03
   maximum displ.:     0.0609692 α      in ANC's #2, #8, #14, ...

........................................................................
.............................. CYCLE   20 ..............................
........................................................................
   1    -58.4230460 -0.584230E+02  0.823E-03    1.22       0.0  T
   2    -58.4230474 -0.146150E-05  0.434E-03    1.21       4.0  T
   3    -58.4230476 -0.148525E-06  0.208E-03    1.21       8.4  T
   4    -58.4230476 -0.133839E-07  0.107E-03    1.21      16.2  T
   5    -58.4230476 -0.197735E-07  0.142E-04    1.21     122.2  T
   6    -58.4230476 -0.439137E-09  0.428E-05    1.21     406.3  T
     SCC iter.                  ...        0 min,  0.011 sec
     gradient                   ...        0 min,  0.054 sec
 * total energy  :   -57.8502634 Eh     change       -0.2052448E-03 Eh
   gradient norm :     0.0071647 Eh/α   predicted    -0.1453425E-03 ( -29.19%)
   displ. norm   :     0.2106730 α      lambda       -0.2539759E-03
   maximum displ.:     0.1417645 α      in ANC's #2, #8, #4, ...
 * RMSD in coord.:     0.5104255 α      energy gain  -0.4515937E-01 Eh

generating ANC from model Hessian ...
Using Lindh-Hessian (1995)
 Shifting diagonal of input Hessian by   9.366452466159136E-003
 Lowest  eigenvalues of input Hessian
    0.000000    0.000000    0.000000    0.000000    0.000000    0.000000
    0.010000    0.010434    0.011463    0.011691    0.013098    0.013999
    0.014465    0.014930    0.016561    0.019205    0.019394    0.019589
 Highest eigenvalues
    1.912774    2.022653    2.100573    2.212280    2.315305    2.449894
 

........................................................................
.............................. CYCLE   21 ..............................
........................................................................
   1    -58.4242479 -0.584242E+02  0.793E-03    1.22       0.0  T
   2    -58.4242488 -0.869712E-06  0.423E-03    1.21       4.1  T
   3    -58.4242488 -0.624658E-07  0.227E-03    1.21       7.7  T
   4    -58.4242488 -0.779065E-08  0.695E-04    1.21      25.1  T
   5    -58.4242488 -0.150816E-07  0.127E-04    1.21     136.6  T
   6    -58.4242488 -0.421011E-09  0.409E-05    1.21     425.8  T
     SCC iter.                  ...        0 min,  0.012 sec
     gradient                   ...        0 min,  0.054 sec
 * total energy  :   -57.8504140 Eh     change       -0.1506657E-03 Eh
   gradient norm :     0.0056052 Eh/α   predicted     0.0000000E+00 (-100.00%)
   displ. norm   :     0.0667823 α      lambda       -0.5913084E-04
   maximum displ.:     0.0330715 α      in ANC's #4, #2, #6, ...

........................................................................
.............................. CYCLE   22 ..............................
........................................................................
   1    -58.4243848 -0.584244E+02  0.414E-03    1.21       0.0  T
   2    -58.4243855 -0.650060E-06  0.243E-03    1.21       7.2  T
   3    -58.4243855 -0.623181E-07  0.126E-03    1.21      13.9  T
   4    -58.4243855  0.358962E-08  0.685E-04    1.21      25.4  T
   5    -58.4243855 -0.732616E-08  0.696E-05    1.21     250.1  T
   6    -58.4243855 -0.223139E-09  0.218E-05    1.21     796.7  T
     SCC iter.                  ...        0 min,  0.012 sec
     gradient                   ...        0 min,  0.054 sec
 * total energy  :   -57.8504911 Eh     change       -0.7705428E-04 Eh
   gradient norm :     0.0029915 Eh/α   predicted    -0.4693773E-04 ( -39.08%)
   displ. norm   :     0.1865303 α      lambda       -0.1639593E-03
   maximum displ.:     0.1043873 α      in ANC's #4, #2, #6, ...

........................................................................
.............................. CYCLE   23 ..............................
........................................................................
   1    -58.4241363 -0.584241E+02  0.751E-03    1.21       0.0  T
   2    -58.4241387 -0.234664E-05  0.470E-03    1.21       3.7  T
   3    -58.4241389 -0.278750E-06  0.232E-03    1.21       7.5  T
   4    -58.4241389  0.137291E-07  0.137E-03    1.21      12.7  T
   5    -58.4241390 -0.259601E-07  0.133E-04    1.21     130.9  T
   6    -58.4241390 -0.718003E-09  0.500E-05    1.21     347.9  T
     SCC iter.                  ...        0 min,  0.012 sec
     gradient                   ...        0 min,  0.054 sec
 * total energy  :   -57.8505960 Eh     change       -0.1049010E-03 Eh
   gradient norm :     0.0028199 Eh/α   predicted    -0.8483594E-04 ( -19.13%)
   displ. norm   :     0.1100926 α      lambda       -0.4616003E-04
   maximum displ.:     0.0649168 α      in ANC's #4, #2, #8, ...

........................................................................
.............................. CYCLE   24 ..............................
........................................................................
   1    -58.4239946 -0.584240E+02  0.194E-03    1.21       0.0  T
   2    -58.4239946 -0.860375E-07  0.124E-03    1.21      14.1  T
   3    -58.4239946 -0.912544E-08  0.637E-04    1.21      27.3  T
   4    -58.4239947 -0.208684E-08  0.280E-04    1.21      62.1  T
   5    -58.4239947 -0.131526E-08  0.409E-05    1.21     426.0  T
   6    -58.4239947 -0.280451E-10  0.196E-05    1.21     886.0  T
     SCC iter.                  ...        0 min,  0.012 sec
     gradient                   ...        0 min,  0.054 sec
 * total energy  :   -57.8506311 Eh     change       -0.3512601E-04 Eh
   gradient norm :     0.0031969 Eh/α   predicted    -0.2337196E-04 ( -33.46%)
   displ. norm   :     0.1022936 α      lambda       -0.3849451E-04
   maximum displ.:     0.0606096 α      in ANC's #4, #2, #3, ...

........................................................................
.............................. CYCLE   25 ..............................
........................................................................
   1    -58.4241110 -0.584241E+02  0.240E-03    1.21       0.0  T
   2    -58.4241112 -0.176453E-06  0.104E-03    1.21      16.7  T
   3    -58.4241112 -0.749359E-08  0.516E-04    1.21      33.7  T
   4    -58.4241112  0.201872E-09  0.230E-04    1.21      75.8  T
   5    -58.4241112 -0.933014E-09  0.499E-05    1.21     348.7  T
   6    -58.4241112 -0.671818E-10  0.152E-05    1.21    1145.2  T
     SCC iter.                  ...        0 min,  0.012 sec
     gradient                   ...        0 min,  0.054 sec
 * total energy  :   -57.8506594 Eh     change       -0.2828096E-04 Eh
   gradient norm :     0.0021237 Eh/α   predicted    -0.1944893E-04 ( -31.23%)
   displ. norm   :     0.0890340 α      lambda       -0.2353444E-04
   maximum displ.:     0.0521199 α      in ANC's #4, #2, #3, ...

........................................................................
.............................. CYCLE   26 ..............................
........................................................................
   1    -58.4242624 -0.584243E+02  0.245E-03    1.21       0.0  T
   2    -58.4242626 -0.214631E-06  0.109E-03    1.21      15.9  T
   3    -58.4242626 -0.881751E-08  0.509E-04    1.21      34.2  T
   4    -58.4242626  0.344038E-09  0.314E-04    1.21      55.4  T
   5    -58.4242626 -0.144249E-08  0.417E-05    1.21     417.4  T
   6    -58.4242626 -0.542855E-10  0.162E-05    1.21    1074.9  T
     SCC iter.                  ...        0 min,  0.012 sec
     gradient                   ...        0 min,  0.054 sec
 * total energy  :   -57.8506759 Eh     change       -0.1650560E-04 Eh
   gradient norm :     0.0011959 Eh/α   predicted    -0.1186154E-04 ( -28.14%)
   displ. norm   :     0.1036483 α      lambda       -0.1142217E-04
   maximum displ.:     0.0571167 α      in ANC's #4, #2, #3, ...

........................................................................
.............................. CYCLE   27 ..............................
........................................................................
   1    -58.4243592 -0.584244E+02  0.215E-03    1.21       0.0  T
   2    -58.4243594 -0.154117E-06  0.829E-04    1.21      21.0  T
   3    -58.4243594 -0.298095E-08  0.493E-04    1.21      35.3  T
   4    -58.4243594 -0.561258E-10  0.115E-04    1.21     151.4  T
   5    -58.4243594 -0.268635E-09  0.483E-05    1.21     360.6  T
     SCC iter.                  ...        0 min,  0.010 sec
     gradient                   ...        0 min,  0.054 sec
 * total energy  :   -57.8506858 Eh     change       -0.9944643E-05 Eh
   gradient norm :     0.0011119 Eh/α   predicted    -0.5742643E-05 ( -42.25%)
   displ. norm   :     0.0356135 α      lambda       -0.4035478E-05
   maximum displ.:     0.0207310 α      in ANC's #3, #2, #7, ...

........................................................................
.............................. CYCLE   28 ..............................
........................................................................
   1    -58.4244643 -0.584245E+02  0.125E-03    1.21       0.0  T
   2    -58.4244644 -0.419498E-07  0.705E-04    1.21      24.7  T
   3    -58.4244644 -0.131319E-07  0.274E-04    1.21      63.6  T
   4    -58.4244644 -0.136318E-09  0.140E-04    1.21     124.0  T
   5    -58.4244644 -0.248960E-09  0.190E-05    1.21     917.4  T
     SCC iter.                  ...        0 min,  0.010 sec
     gradient                   ...        0 min,  0.042 sec
 * total energy  :   -57.8506905 Eh     change       -0.4716961E-05 Eh
   gradient norm :     0.0006875 Eh/α   predicted    -0.2019535E-05 ( -57.19%)
   displ. norm   :     0.0499638 α      lambda       -0.4204389E-05
   maximum displ.:     0.0295012 α      in ANC's #3, #7, #2, ...

   *** GEOMETRY OPTIMIZATION CONVERGED AFTER 28 ITERATIONS ***

------------------------------------------------------------------------
 total energy gain   :        -0.0455866 Eh      -28.6060 kcal/mol
 total RMSD          :         0.5485432 a0        0.2903 Å
 total power (kW/mol):        -4.2745536 (step)  -45.9396 (real)
------------------------------------------------------------------------

 ANCopt (total)                0 d,  0 h,  0 min,  2.605 sec
 optimizer setup                ...        0 min,  0.001 sec (  0.029%)
 model hessian                  ...        0 min,  0.037 sec (  1.432%)
 ANC generation                 ...        0 min,  0.003 sec (  0.113%)
 coordinate transformation      ...        0 min,  0.001 sec (  0.027%)
 single point calculation       ...        0 min,  2.549 sec ( 97.851%)
 optimization log               ...        0 min,  0.006 sec (  0.244%)
 hessian update                 ...        0 min,  0.001 sec (  0.024%)
 rational function              ...        0 min,  0.005 sec (  0.179%)

================
 final structure:
================
33
 xtb: 6.5.1 (579679a)
C           -2.80002286261450        3.24957713211566        0.81120574076474
O           -1.78732296228338        2.25210637260027        0.58013680165854
C           -2.12201006789013        1.09304431273610        0.14874160465881
O           -3.37459014101769        0.86843245623289       -0.07193045278913
C           -1.07917714643419        0.11384810283159       -0.05574863245261
N            0.18759565839086        0.56343422689460        0.21711222517996
C            1.18546373856422       -0.24689629368494        0.08080043942398
C            2.60056484956731        0.22529100041295        0.36562453890133
C            2.55502020970600        1.41612484144631        1.32886878328202
C            3.24900545341217        0.62853225687381       -0.96655941951690
N            3.39268282354027       -0.83587424513951        0.96568434511282
N            1.00751899969319       -1.53216907192902       -0.33615820300399
C           -0.20000091417451       -2.11136458169497       -0.64437864890501
O           -0.26944371008562       -3.26883837726222       -1.00818373229632
C           -1.33331730385136       -1.18216204359694       -0.48031897399176
O           -2.58854191335147       -1.54493754075493       -0.71852924124994
C           -2.95554268255285       -2.87663102641463       -1.13435961498376
H           -2.28224334700681        4.11195676592464        1.22475864910834
H           -3.28296619895243        3.49843393849746       -0.13433830113524
H           -3.53803126345569        2.86029713400720        1.51320590312933
H            3.57142311682644        1.73576839444489        1.55412153530227
H            2.05956109396506        1.12733191720142        2.25472605323263
H            2.00601036658888        2.24283315165223        0.88033057447338
H            4.27520282227532        0.94575327006679       -0.78523427142758
H            3.25603233184403       -0.21828814582814       -1.65107733357109
H            2.69455099288425        1.44731136884344       -1.42288071697878
H            3.63868130475238       -1.53648853590920        0.28274712832502
H            2.88330328602515       -1.27756222714223        1.71728069370350
H            1.81190263635278       -2.13968220008091       -0.41869807425068
H           -3.57526000713489       -0.03771060832165       -0.39480759903037
H           -4.04030665999968       -2.85978265718197       -1.22036536920118
H           -2.64491536078728       -3.60389052675594       -0.38391470953373
H           -2.50082514279538       -3.10779756108459       -2.09786272193886
 
 Bond Distances (Angstroems)
 ---------------------------
C1-O2=1.4401         C1-H18=1.0876        C1-H19=1.0905        C1-H20=1.0904        O2-C1=1.4401         O2-C3=1.2812         
C3-O2=1.2812         C3-O4=1.2916         C3-C5=1.4450         O4-C3=1.2916         O4-H30=0.9827        C5-C3=1.4450         
C5-N6=1.3716         C5-C15=1.3873        N6-C5=1.3716         N6-C7=1.2927         C7-N6=1.2927         C7-C8=1.5187         
C7-N12=1.3629        C8-C7=1.5187         C8-C9=1.5323         C8-C10=1.5355        C8-N11=1.4538        C9-C8=1.5323         
C9-H21=1.0890        C9-H22=1.0891        C9-H23=1.0891        C10-C8=1.5355        C10-H24=1.0893       C10-H25=1.0889       
C10-H26=1.0891       N11-C8=1.4538        N11-H27=1.0089       N11-H28=1.0097       N12-C7=1.3629        N12-C13=1.3743       
N12-H29=1.0114       C13-N12=1.3743       C13-O14=1.2153       C13-C15=1.4747       O14-C13=1.2153       C15-C5=1.3873        
C15-C13=1.4747       C15-O16=1.3281       O16-C15=1.3281       O16-C17=1.4426       C17-O16=1.4426       C17-H31=1.0883       
C17-H32=1.0902       C17-H33=1.0902       H18-C1=1.0876        H19-C1=1.0905        H20-C1=1.0904        H21-C9=1.0890        
H22-C9=1.0891        H23-C9=1.0891        H24-C10=1.0893       H25-C10=1.0889       H26-C10=1.0891       H27-N11=1.0089       
H28-N11=1.0097       H29-N12=1.0114       H30-O4=0.9827        H31-C17=1.0883       H32-C17=1.0902       H33-C17=1.0902       
 C  H  Rav=1.0893 sigma=0.0009  Rmin=1.0876  Rmax=1.0905    12
 C  C  Rav=1.4823 sigma=0.0534  Rmin=1.3873  Rmax=1.5355     6
 N  H  Rav=1.0100 sigma=0.0011  Rmin=1.0089  Rmax=1.0114     3
 N  C  Rav=1.3710 sigma=0.0511  Rmin=1.2927  Rmax=1.4538     5
 O  H  Rav=0.9827 sigma=0.0000  Rmin=0.9827  Rmax=0.9827     1
 O  C  Rav=1.3331 sigma=0.0834  Rmin=1.2153  Rmax=1.4426     6
 
 selected bond angles (degree)
 --------------------
H18-C1-O2=105.99               H19-C1-O2=109.29               H19-C1-H18=111.08              H20-C1-O2=109.39               
H20-C1-H18=111.13              H20-C1-H19=109.87              C3-O2-C1=119.80                O4-C3-O2=117.92                
C5-C3-O2=118.17                C5-C3-O4=123.91                H30-O4-C3=114.49               N6-C5-C3=114.60                
C15-C5-C3=122.97               C15-C5-N6=122.43               C7-N6-C5=119.11                C8-C7-N6=120.30                
N12-C7-N6=121.51               N12-C7-C8=118.18               C9-C8-C7=109.38                C10-C8-C7=108.21               
C10-C8-C9=110.72               N11-C8-C7=110.99               N11-C8-C9=108.90               N11-C8-C10=108.64              
H21-C9-C8=109.29               H22-C9-C8=109.99               H22-C9-H21=109.06              H23-C9-C8=110.24               
H23-C9-H21=109.44              H23-C9-H22=108.79              H24-C10-C8=109.26              H25-C10-C8=110.11              
H25-C10-H24=108.97             H26-C10-C8=110.24              H26-C10-H24=109.29             H26-C10-H25=108.94             
 
 selected dihedral angles (degree)
 ---------------------------------
C3-O2-C1-H18=176.72           C3-O2-C1-H19=296.49           C3-O2-C1-H20= 56.82           O4-C3-O2-C1=  0.43            
C5-C3-O2-C1=180.72            H30-O4-C3-O2=180.44           H30-O4-C3-C5=  0.13           N6-C5-C3-O2=358.63            
N6-C5-C3-O4=178.94            C15-C5-C3-O2=177.99           C15-C5-C3-O4=358.31           C7-N6-C5-C3=179.08            
C7-N6-C5-C15=359.72           C8-C7-N6-C5=179.55            N12-C7-N6-C5=  0.47           C9-C8-C7-N6= 24.03            
C9-C8-C7-N12=203.14           C10-C8-C7-N6=263.33           C10-C8-C7-N12= 82.44          N11-C8-C7-N6=144.22           
N11-C8-C7-N12=323.32          H21-C9-C8-C7=178.42           H21-C9-C8-C10=297.58          H21-C9-C8-N11= 56.97          
H22-C9-C8-C7= 58.72           H22-C9-C8-C10=177.87          H22-C9-C8-N11=297.27          H23-C9-C8-C7=298.75           
H23-C9-C8-C10= 57.91          H23-C9-C8-N11=177.30          H24-C10-C8-C7=181.48          H24-C10-C8-C9= 61.62          
H24-C10-C8-N11=302.07         H25-C10-C8-C7=301.13          H25-C10-C8-C9=181.27          H25-C10-C8-N11= 61.71         
H26-C10-C8-C7= 61.35          H26-C10-C8-C9=301.49          H26-C10-C8-N11=181.94         
           -------------------------------------------------
          |                Final Singlepoint                |
           -------------------------------------------------

          ...................................................
          :                      SETUP                      :
          :.................................................:
          :  # basis functions                 100          :
          :  # atomic orbitals                 100          :
          :  # shells                           66          :
          :  # electrons                        94          :
          :  # halogen bonds                     0          :
          :  max. iterations                   250          :
          :  Hamiltonian                  GFN1-xTB          :
          :  restarted?                      false          :
          :  GBSA solvation                   true          :
          :  PC potential                    false          :
          :  electronic temp.          300.0000000     K    :
          :  accuracy                    1.0000000          :
          :  -> integral cutoff          0.2500000E+02      :
          :  -> integral neglect         0.1000000E-07      :
          :  -> SCF convergence          0.1000000E-05 Eh   :
          :  -> wf. convergence          0.2000000E-04 e    :
          :  Broyden damping             0.4000000          :
          ...................................................

 iter      E             dE          RMSdq      gap      omega  full diag
   1    -58.4244644 -0.584245E+02  0.518E-06    1.21       0.0  T
   2    -58.4244644 -0.525802E-12  0.226E-06    1.21    7687.5  T
   3    -58.4244644  0.284217E-13  0.118E-06    1.21   14779.5  T

   *** convergence criteria satisfied after 3 iterations ***

         #    Occupation            Energy/Eh            Energy/eV
      -------------------------------------------------------------
         1        2.0000           -0.9104881             -24.7756
       ...           ...                  ...                  ...
        41        2.0000           -0.5118264             -13.9275
        42        2.0000           -0.5061549             -13.7732
        43        2.0000           -0.4953075             -13.4780
        44        2.0000           -0.4826985             -13.1349
        45        2.0000           -0.4784491             -13.0193
        46        2.0000           -0.4576136             -12.4523
        47        2.0000           -0.4267505             -11.6125 (HOMO)
        48                         -0.3823872             -10.4053 (LUMO)
        49                         -0.3097418              -8.4285
        50                         -0.2880114              -7.8372
        51                         -0.1968685              -5.3571
        52                         -0.1655931              -4.5060
       ...                                ...                  ...
       100                          0.6866510              18.6847
      -------------------------------------------------------------
                  HL-Gap            0.0443633 Eh            1.2072 eV
             Fermi-level           -0.4045688 Eh          -11.0089 eV

 SCC (total)                   0 d,  0 h,  0 min,  0.087 sec
 SCC setup                      ...        0 min,  0.001 sec (  1.524%)
 Dispersion                     ...        0 min,  0.000 sec (  0.248%)
 classical contributions        ...        0 min,  0.000 sec (  0.085%)
 integral evaluation            ...        0 min,  0.024 sec ( 27.365%)
 iterations                     ...        0 min,  0.007 sec (  7.674%)
 molecular gradient             ...        0 min,  0.054 sec ( 62.427%)
 printout                       ...        0 min,  0.001 sec (  0.624%)

         :::::::::::::::::::::::::::::::::::::::::::::::::::::
         ::                     SUMMARY                     ::
         :::::::::::::::::::::::::::::::::::::::::::::::::::::
         :: total energy             -57.850690547995 Eh    ::
         :: total w/o Gsasa/hb       -57.829204366330 Eh    ::
         :: gradient norm              0.000687606929 Eh/a0 ::
         :: HOMO-LUMO gap              1.207186324602 eV    ::
         ::.................................................::
         :: SCC energy               -58.424464375929 Eh    ::
         :: -> electrostatic           0.283522989124 Eh    ::
         :: -> Gsolv                  -0.096014572560 Eh    ::
         ::    -> Gelec               -0.074528390895 Eh    ::
         ::    -> Gsasa               -0.019500679182 Eh    ::
         ::    -> Ghb                 -0.009609781488 Eh    ::
         ::    -> Gshift               0.007624279005 Eh    ::
         :: repulsion energy           0.592009696131 Eh    ::
         :: dispersion energy         -0.018235868197 Eh    ::
         :: halogen bond corr.         0.000000000000 Eh    ::
         :: add. restraining           0.000000000000 Eh    ::
         :: total charge               1.000000000000 e     ::
         :::::::::::::::::::::::::::::::::::::::::::::::::::::

           -------------------------------------------------
          |                Property Printout                |
           -------------------------------------------------

    * Orbital Energies and Occupations

         #    Occupation            Energy/Eh            Energy/eV
      -------------------------------------------------------------
         1        2.0000           -0.9104881             -24.7756
       ...           ...                  ...                  ...
        35        2.0000           -0.5490382             -14.9401
        36        2.0000           -0.5422570             -14.7556
        37        2.0000           -0.5401569             -14.6984
        38        2.0000           -0.5235056             -14.2453
        39        2.0000           -0.5204789             -14.1630
        40        2.0000           -0.5148774             -14.0105
        41        2.0000           -0.5118264             -13.9275
        42        2.0000           -0.5061549             -13.7732
        43        2.0000           -0.4953075             -13.4780
        44        2.0000           -0.4826985             -13.1349
        45        2.0000           -0.4784491             -13.0193
        46        2.0000           -0.4576136             -12.4523
        47        2.0000           -0.4267505             -11.6125 (HOMO)
        48                         -0.3823872             -10.4053 (LUMO)
        49                         -0.3097418              -8.4285
        50                         -0.2880114              -7.8372
        51                         -0.1968685              -5.3571
        52                         -0.1655931              -4.5060
        53                         -0.1464802              -3.9859
        54                         -0.1408356              -3.8323
        55                         -0.1346664              -3.6645
        56                         -0.1324835              -3.6051
        57                         -0.1238950              -3.3714
        58                         -0.1014778              -2.7614
       ...                                ...                  ...
       100                          0.6866510              18.6847
      -------------------------------------------------------------
                  HL-Gap            0.0443633 Eh            1.2072 eV
             Fermi-level           -0.4045688 Eh          -11.0089 eV

  Mulliken/CM5 charges         n(s)   n(p)   n(d)
     1C     0.15238  0.03069   0.995  2.852  0.000
     2O    -0.32932 -0.41570   1.662  4.667  0.000
     3C     0.58294  0.64166   0.977  2.440  0.000
     4O    -0.45645 -0.65405   1.684  4.773  0.000
     5C     0.08537  0.16202   1.023  2.892  0.000
     6N    -0.36889 -0.55372   1.523  3.846  0.000
     7C     0.29058  0.44037   1.035  2.675  0.000
     8C     0.14558  0.18114   1.062  2.792  0.000
     9C    -0.10060 -0.23942   1.017  3.084  0.000
    10C    -0.10690 -0.24758   1.022  3.085  0.000
    11N    -0.51630 -0.97360   1.465  4.051  0.000
    12N    -0.27460 -0.62250   1.438  3.836  0.000
    13C     0.46371  0.56607   0.979  2.558  0.000
    14O    -0.54233 -0.58993   1.722  4.820  0.000
    15C     0.25430  0.29179   1.040  2.706  0.000
    16O    -0.39689 -0.50120   1.678  4.719  0.000
    17C     0.15860  0.03622   0.994  2.848  0.000
    18H     0.08511  0.14554   0.915  0.000  0.000
    19H     0.08273  0.14473   0.917  0.000  0.000
    20H     0.08202  0.14470   0.918  0.000  0.000
    21H     0.04909  0.10474   0.951  0.000  0.000
    22H     0.04396  0.10131   0.956  0.000  0.000
    23H     0.03990  0.09750   0.960  0.000  0.000
    24H     0.05906  0.11457   0.941  0.000  0.000
    25H     0.04835  0.10542   0.952  0.000  0.000
    26H     0.04608  0.10077   0.954  0.000  0.000
    27H     0.22615  0.41996   0.774  0.000  0.000
    28H     0.22749  0.42057   0.773  0.000  0.000
    29H     0.29657  0.50035   0.703  0.000  0.000
    30H     0.45343  0.64140   0.547  0.000  0.000
    31H     0.07152  0.13211   0.928  0.000  0.000
    32H     0.07358  0.13701   0.926  0.000  0.000
    33H     0.07378  0.13706   0.926  0.000  0.000

Wiberg/Mayer (AO) data.
largest (>0.10) Wiberg bond orders for each atom

 ---------------------------------------------------------------------------
     #   Z sym  total        # sym  WBO       # sym  WBO       # sym  WBO
 ---------------------------------------------------------------------------
     1   6 C    3.822 --    18 H    0.982    20 H    0.973    19 H    0.972
                             2 O    0.853
     2   8 O    2.317 --     3 C    1.283     1 C    0.853
     3   6 C    3.811 --     2 O    1.283     4 O    1.249     5 C    1.122
     4   8 O    2.194 --     3 C    1.249    30 H    0.744
     5   6 C    3.960 --    15 C    1.410     6 N    1.171     3 C    1.122
     6   7 N    3.018 --     7 C    1.570     5 C    1.171
     7   6 C    3.906 --     6 N    1.570    12 N    1.174     8 C    0.969
     8   6 C    3.964 --     9 C    0.994    11 N    0.991    10 C    0.976
                             7 C    0.969
     9   6 C    3.993 --     8 C    0.994    23 H    0.985    21 H    0.985
                            22 H    0.985
    10   6 C    3.991 --    26 H    0.986    25 H    0.985    24 H    0.982
                             8 C    0.976
    11   7 N    2.961 --     8 C    0.991    28 H    0.939    27 H    0.937
    12   7 N    3.482 --     7 C    1.174    13 C    1.145    29 H    0.873
                            14 O    0.142
    13   6 C    3.915 --    14 O    1.609    12 N    1.145    15 C    1.038
    14   8 O    1.938 --    13 C    1.609    12 N    0.142
    15   6 C    3.905 --     5 C    1.410    16 O    1.135    13 C    1.038
    16   8 O    2.249 --    15 C    1.135    17 C    0.855
    17   6 C    3.829 --    31 H    0.983    32 H    0.975    33 H    0.974
                            16 O    0.855
    18   1 H    1.002 --     1 C    0.982
    19   1 H    0.997 --     1 C    0.972
    20   1 H    0.997 --     1 C    0.973
    21   1 H    1.005 --     9 C    0.985
    22   1 H    1.003 --     9 C    0.985
    23   1 H    1.010 --     9 C    0.985
    24   1 H    1.000 --    10 C    0.982
    25   1 H    0.999 --    10 C    0.985
    26   1 H    1.001 --    10 C    0.986
    27   1 H    0.952 --    11 N    0.937
    28   1 H    0.952 --    11 N    0.939
    29   1 H    0.921 --    12 N    0.873
    30   1 H    0.807 --     4 O    0.744
    31   1 H    1.005 --    17 C    0.983
    32   1 H    1.007 --    17 C    0.975
    33   1 H    1.007 --    17 C    0.974
 ---------------------------------------------------------------------------

Topologies differ in total number of bonds
Writing topology from bond orders to xtbtopo.mol

 dipole moment from electron density (au)
     X       Y       Z   
  -3.1178  -0.1418  -0.3188  total (Debye):    7.974

           -------------------------------------------------
          |                Geometry Summary                 |
           -------------------------------------------------

      molecular mass/u    :      242.2521403
   center of mass at/Å    :       -0.2910069      -0.1875646      -0.0547811
  moments of inertia/u·Å² :        0.8984425E+03   0.1311455E+04   0.2095255E+04
rotational constants/cm⁻¹ :        0.1876317E-01   0.1285414E-01   0.8045624E-02

 * 30 selected distances

     #   Z          #   Z                                           value/Å
     1   6 C        2   8 O                                       1.4401049
     2   8 O        3   6 C                                       1.2812269
     3   6 C        4   8 O                                       1.2915509
     5   6 C        6   7 N                                       1.3716029
     6   7 N        7   6 C                                       1.2926552
     8   6 C        9   6 C                                       1.5323183
     8   6 C       10   6 C                                       1.5355108 (max)
     8   6 C       11   7 N                                       1.4538207
     7   6 C       12   7 N                                       1.3628812
    12   7 N       13   6 C                                       1.3742532
    13   6 C       14   8 O                                       1.2152869
     5   6 C       15   6 C                                       1.3872598
    15   6 C       16   8 O                                       1.3281338
    16   8 O       17   6 C                                       1.4425715
     1   6 C       18   1 H                                       1.0875755
     1   6 C       19   1 H                                       1.0905126
     1   6 C       20   1 H                                       1.0904127
     9   6 C       21   1 H                                       1.0890298
     9   6 C       22   1 H                                       1.0890790
     9   6 C       23   1 H                                       1.0890570
    10   6 C       24   1 H                                       1.0893068
    10   6 C       25   1 H                                       1.0889073
    10   6 C       26   1 H                                       1.0890585
    11   7 N       27   1 H                                       1.0088504
    11   7 N       28   1 H                                       1.0096797
    12   7 N       29   1 H                                       1.0113942
     4   8 O       30   1 H                                       0.9826563 (min)
    17   6 C       31   1 H                                       1.0882987
    17   6 C       32   1 H                                       1.0902126
    17   6 C       33   1 H                                       1.0902039

 * 6 distinct bonds (by element types)

   Z      Z             #   av. dist./Å        max./Å        min./Å
   1 H    6 C          12     1.0893045     1.0905126     1.0875755
   6 C    6 C           3     1.4850296     1.5355108     1.3872598
   1 H    7 N           3     1.0099748     1.0113942     1.0088504
   6 C    7 N           5     1.3710427     1.4538207     1.2926552
   1 H    8 O           1     0.9826563     0.9826563     0.9826563
   6 C    8 O           6     1.3331458     1.4425715     1.2152869


optimized geometry written to: xtbopt.xyz


           -------------------------------------------------
          | TOTAL ENERGY              -57.850690547995 Eh   |
          | GRADIENT NORM               0.000687606929 Eh/α |
          | HOMO-LUMO GAP               1.207186324602 eV   |
           -------------------------------------------------

------------------------------------------------------------------------
 * finished run on 2023/06/20 at 15:05:04.923     
------------------------------------------------------------------------
 total:
 * wall-time:     0 d,  0 h,  0 min,  2.915 sec
 *  cpu-time:     0 d,  0 h,  0 min,  2.816 sec
 * ratio c/w:     0.966 speedup
 SCF:
 * wall-time:     0 d,  0 h,  0 min,  0.099 sec
 *  cpu-time:     0 d,  0 h,  0 min,  0.098 sec
 * ratio c/w:     0.996 speedup
 ANC optimizer:
 * wall-time:     0 d,  0 h,  0 min,  2.698 sec
 *  cpu-time:     0 d,  0 h,  0 min,  2.679 sec
 * ratio c/w:     0.993 speedup

