      -----------------------------------------------------------      
     |                   =====================                   |     
     |                           x T B                           |     
     |                   =====================                   |     
     |                         S. Grimme                         |     
     |          Mulliken Center for Theoretical Chemistry        |     
     |                    University of Bonn                     |     
      -----------------------------------------------------------      

   * xtb version 6.5.1 (579679a) compiled by 'ehlert@majestix' on 2022-07-11

   xtb is free software: you can redistribute it and/or modify it under
   the terms of the GNU Lesser General Public License as published by
   the Free Software Foundation, either version 3 of the License, or
   (at your option) any later version.
   
   xtb is distributed in the hope that it will be useful,
   but WITHOUT ANY WARRANTY; without even the implied warranty of
   MERCHANTABILITY or FITNESS FOR A PARTICULAR PURPOSE.  See the
   GNU Lesser General Public License for more details.
   
   Cite this work as:
   * C. Bannwarth, E. Caldeweyher, S. Ehlert, A. Hansen, P. Pracht,
     J. Seibert, S. Spicher, S. Grimme, WIREs Comput. Mol. Sci., 2020, 11,
     e01493. DOI: 10.1002/wcms.1493
   
   for GFN2-xTB:
   * C. Bannwarth, S. Ehlert and S. Grimme., J. Chem. Theory Comput., 2019,
     15, 1652-1671. DOI: 10.1021/acs.jctc.8b01176
   for GFN1-xTB:
   * S. Grimme, C. Bannwarth, P. Shushkov, J. Chem. Theory Comput., 2017,
     13, 1989-2009. DOI: 10.1021/acs.jctc.7b00118
   for GFN0-xTB:
   * P. Pracht, E. Caldeweyher, S. Ehlert, S. Grimme, ChemRxiv, 2019, preprint.
     DOI: 10.26434/chemrxiv.8326202.v1
   for GFN-FF:
   * S. Spicher and S. Grimme, Angew. Chem. Int. Ed., 2020, 59, 15665-15673.
     DOI: 10.1002/anie.202004239
   
   for ALPB and GBSA implicit solvation:
   * S. Ehlert, M. Stahn, S. Spicher, S. Grimme, J. Chem. Theory Comput.,
     2021, 17, 4250-4261. DOI: 10.1021/acs.jctc.1c00471
   
   for DFT-D4:
   * E. Caldeweyher, C. Bannwarth and S. Grimme, J. Chem. Phys., 2017,
     147, 034112. DOI: 10.1063/1.4993215
   * E. Caldeweyher, S. Ehlert, A. Hansen, H. Neugebauer, S. Spicher,
     C. Bannwarth and S. Grimme, J. Chem. Phys., 2019, 150, 154122.
     DOI: 10.1063/1.5090222
   * E. Caldeweyher, J.-M. Mewes, S. Ehlert and S. Grimme, Phys. Chem. Chem. Phys.
     2020, 22, 8499-8512. DOI: 10.1039/D0CP00502A
   
   for sTDA-xTB:
   * S. Grimme and C. Bannwarth, J. Chem. Phys., 2016, 145, 054103.
     DOI: 10.1063/1.4959605
   
   in the mass-spec context:
   * V. Asgeirsson, C. Bauer and S. Grimme, Chem. Sci., 2017, 8, 4879.
     DOI: 10.1039/c7sc00601b
   * J. Koopman and S. Grimme, ACS Omega 2019, 4, 12, 15120-15133.
     DOI: 10.1021/acsomega.9b02011
   
   for metadynamics refer to:
   * S. Grimme, J. Chem. Theory Comput., 2019, 155, 2847-2862
     DOI: 10.1021/acs.jctc.9b00143
   
   for SPH calculations refer to:
   * S. Spicher and S. Grimme, J. Chem. Theory Comput., 2021, 17, 1701-1714
     DOI: 10.1021/acs.jctc.0c01306
   
   with help from (in alphabetical order)
   P. Atkinson, C. Bannwarth, F. Bohle, G. Brandenburg, E. Caldeweyher
   M. Checinski, S. Dohm, S. Ehlert, S. Ehrlich, I. Gerasimov, C. Hölzer
   A. Katbashev, J. Koopman, C. Lavigne, S. Lehtola, F. März, M. Müller,
   F. Musil, H. Neugebauer, J. Pisarek, C. Plett, P. Pracht, F. Pultar,
   J. Seibert, P. Shushkov, S. Spicher, M. Stahn, M. Steiner, T. Strunk,
   J. Stückrath, T. Rose, and J. Unsleber
   
 * started run on 2023/06/20 at 18:12:18.002     

           -------------------------------------------------
          |                Calculation Setup                |
           -------------------------------------------------

          program call               : /lustre/hpc/kemi/ree/PhD/git/ReactivityQM/dep/xtb-6.5.1/bin/xtb --gfn 1 /lustre/hpc/kemi/ree/PhD/git/ReactivityQM/calculations/R02deprot/reac01prodN06/conf15/R02deprot_reac01prodN06_conf15_gfn1.xyz --opt --vfukui --chrg 0 --uhf 0 --alpb DMSO
          hostname                   : node308
          coordinate file            : /lustre/hpc/kemi/ree/PhD/git/ReactivityQM/calculations/R02deprot/reac01prodN06/conf15/R02deprot_reac01prodN06_conf15_gfn1.xyz
          omp threads                :                     1

   ID    Z sym.   atoms
    1    6 C      1, 3, 5, 6, 8, 11-14, 16, 18, 21, 22, 25
    2    8 O      2, 4, 7, 9, 17, 23
    3    7 N      10, 15, 19, 20, 24
    4    1 H      26-42

           -------------------------------------------------
          |                 G F N 1 - x T B                 |
           -------------------------------------------------

        Reference                      10.1021/acs.jctc.7b00118
      * Hamiltonian:
        H0-scaling (s, p, d)           1.850000    2.250000    2.000000
        zeta-weighting                 0.000000
      * Dispersion:
        s8                             2.400000
        a1                             0.630000
        a2                             5.000000
        s9                             0.000000
      * Repulsion:
        kExp                           1.500000
        rExp                           1.000000
      * Coulomb:
        alpha                          2.000000
        third order                    atomic
        anisotropic                    false
      * Halogen bond correction:
        rad-scale                      1.300000
        damping                        0.440000

      * Solvation model:               ALPB
        Solvent                        DMSO
        Parameter file                 internal GFN1-xTB/ALPB
        Dielectric constant                4.6680E+01
        Reference state                gsolv [1 M gas/solution]
        Free energy shift                  7.6243E-03 Eh       4.7843E+00 kcal/mol
        Temperature                        2.9815E+02 K
        Density                            1.1000E+00 kg/L
        Solvent mass                       7.8130E+01 g/mol
        Interaction kernel             P16
        Born radius scaling (c1)           1.7672E+00
        Born radii integrator          GBOBC
        Born offset                        0.0000E+00 a0       0.0000E+00 AA
        H-bond correction              true
        Ion screening                  false
        Surface tension                    1.0000E-05 Eh       1.5569E+01 dyn/cm
        Grid points                               230 per atom

          ...................................................
          :                      SETUP                      :
          :.................................................:
          :  # basis functions                 134          :
          :  # atomic orbitals                 134          :
          :  # shells                           84          :
          :  # electrons                       134          :
          :  # halogen bonds                     0          :
          :  max. iterations                   250          :
          :  Hamiltonian                  GFN1-xTB          :
          :  restarted?                      false          :
          :  GBSA solvation                   true          :
          :  PC potential                    false          :
          :  electronic temp.          300.0000000     K    :
          :  accuracy                    1.0000000          :
          :  -> integral cutoff          0.2500000E+02      :
          :  -> integral neglect         0.1000000E-07      :
          :  -> SCF convergence          0.1000000E-05 Eh   :
          :  -> wf. convergence          0.2000000E-04 e    :
          :  Broyden damping             0.4000000          :
          ...................................................

 iter      E             dE          RMSdq      gap      omega  full diag
   1    -83.3753712 -0.833754E+02  0.849E+00    3.07       0.0  T
   2    -83.7108692 -0.335498E+00  0.509E+00    2.67       1.0  T
   3    -83.6799530  0.309162E-01  0.182E+00    2.99       1.0  T
   4    -83.7342974 -0.543443E-01  0.280E-01    2.81       1.0  T
   5    -83.7382517 -0.395434E-02  0.589E-02    2.83       1.0  T
   6    -83.7383558 -0.104113E-03  0.177E-02    2.83       1.0  T
   7    -83.7383610 -0.515520E-05  0.486E-03    2.83       3.2  T
   8    -83.7383612 -0.254175E-06  0.102E-03    2.83      15.1  T
   9    -83.7383612 -0.151215E-07  0.370E-04    2.83      41.7  T
  10    -83.7383612 -0.130494E-08  0.133E-04    2.83     115.9  T
  11    -83.7383612 -0.172150E-09  0.266E-05    2.83     581.1  T

   *** convergence criteria satisfied after 11 iterations ***

         #    Occupation            Energy/Eh            Energy/eV
      -------------------------------------------------------------
         1        2.0000           -0.8664522             -23.5774
       ...           ...                  ...                  ...
        61        2.0000           -0.4763173             -12.9613
        62        2.0000           -0.4653972             -12.6641
        63        2.0000           -0.4565292             -12.4228
        64        2.0000           -0.4473090             -12.1719
        65        2.0000           -0.4435605             -12.0699
        66        2.0000           -0.4321066             -11.7582
        67        2.0000           -0.4287261             -11.6662 (HOMO)
        68                         -0.3248681              -8.8401 (LUMO)
        69                         -0.3202891              -8.7155
        70                         -0.2989458              -8.1347
        71                         -0.2612968              -7.1102
        72                         -0.2569497              -6.9920
       ...                                ...                  ...
       134                          0.6939300              18.8828
      -------------------------------------------------------------
                  HL-Gap            0.1038580 Eh            2.8261 eV
             Fermi-level           -0.3767971 Eh          -10.2532 eV

 SCC (total)                   0 d,  0 h,  0 min,  0.171 sec
 SCC setup                      ...        0 min,  0.002 sec (  1.266%)
 Dispersion                     ...        0 min,  0.000 sec (  0.242%)
 classical contributions        ...        0 min,  0.000 sec (  0.077%)
 integral evaluation            ...        0 min,  0.043 sec ( 25.269%)
 iterations                     ...        0 min,  0.043 sec ( 24.854%)
 molecular gradient             ...        0 min,  0.082 sec ( 47.673%)
 printout                       ...        0 min,  0.001 sec (  0.585%)

         :::::::::::::::::::::::::::::::::::::::::::::::::::::
         ::                     SUMMARY                     ::
         :::::::::::::::::::::::::::::::::::::::::::::::::::::
         :: total energy             -82.979568569454 Eh    ::
         :: total w/o Gsasa/hb       -82.956056239771 Eh    ::
         :: gradient norm              0.111862331781 Eh/a0 ::
         :: HOMO-LUMO gap              2.826119845824 eV    ::
         ::.................................................::
         :: SCC energy               -83.738361243935 Eh    ::
         :: -> electrostatic           0.354634047281 Eh    ::
         :: -> Gsolv                  -0.059192117599 Eh    ::
         ::    -> Gelec               -0.035679787916 Eh    ::
         ::    -> Gsasa               -0.024036033205 Eh    ::
         ::    -> Ghb                 -0.007100575483 Eh    ::
         ::    -> Gshift               0.007624279005 Eh    ::
         :: repulsion energy           0.785440398615 Eh    ::
         :: dispersion energy         -0.026647724133 Eh    ::
         :: halogen bond corr.         0.000000000000 Eh    ::
         :: add. restraining           0.000000000000 Eh    ::
         :: total charge               0.000000000000 e     ::
         :::::::::::::::::::::::::::::::::::::::::::::::::::::

      ----------------------------------------------------------- 
     |                   =====================                   |
     |                        A N C O P T                        |
     |                   =====================                   |
     |               Approximate Normal Coordinate               |
     |                Rational Function Optimizer                |
      ----------------------------------------------------------- 

          ...................................................
          :                      SETUP                      :
          :.................................................:
          :   optimization level            normal          :
          :   max. optcycles                   200          :
          :   ANC micro-cycles                  20          :
          :   degrees of freedom               120          :
          :.................................................:
          :   RF solver                   davidson          :
          :   write xtbopt.log                true          :
          :   linear?                        false          :
          :   energy convergence         0.5000000E-05 Eh   :
          :   grad. convergence          0.1000000E-02 Eh/α :
          :   maximium RF displ.         1.0000000          :
          :   Hlow (freq-cutoff)         0.1000000E-01      :
          :   Hmax (freq-cutoff)         5.0000000          :
          :   S6 in model hess.         20.0000000          :
          ...................................................

generating ANC from model Hessian ...
Using Lindh-Hessian (1995)
 Shifting diagonal of input Hessian by   9.806455943715830E-003
 Lowest  eigenvalues of input Hessian
    0.000000    0.000000    0.000000    0.000000    0.000000    0.000000
    0.010000    0.010247    0.010694    0.010863    0.011680    0.012274
    0.013943    0.014212    0.014832    0.016504    0.016668    0.016839
 Highest eigenvalues
    2.005757    2.068723    2.143687    2.276865    2.339072    2.358433
 

........................................................................
.............................. CYCLE    1 ..............................
........................................................................
   1    -83.7383612 -0.837384E+02  0.122E-05    2.83       0.0  T
   2    -83.7383612 -0.136424E-11  0.566E-06    2.83    2728.5  T
   3    -83.7383612 -0.426326E-12  0.333E-06    2.83    4637.8  T
     SCC iter.                  ...        0 min,  0.011 sec
     gradient                   ...        0 min,  0.078 sec
 * total energy  :   -82.9795686 Eh     change       -0.1936939E-10 Eh
   gradient norm :     0.1118619 Eh/α   predicted     0.0000000E+00 (-100.00%)
   displ. norm   :     0.3246062 α      lambda       -0.1563547E-01
   maximum displ.:     0.1038334 α      in ANC's #20, #21, #29, ...

........................................................................
.............................. CYCLE    2 ..............................
........................................................................
   1    -83.7605054 -0.837605E+02  0.907E-02    2.94       0.0  T
   2    -83.7608017 -0.296292E-03  0.377E-02    2.94       1.0  T
   3    -83.7608328 -0.310748E-04  0.154E-02    2.94       1.0  T
   4    -83.7608330 -0.143755E-06  0.500E-03    2.94       3.1  T
   5    -83.7608330 -0.963846E-07  0.661E-04    2.94      23.4  T
   6    -83.7608331 -0.778340E-08  0.283E-04    2.94      54.6  T
   7    -83.7608331 -0.126491E-08  0.805E-05    2.94     191.7  T
   8    -83.7608331 -0.868425E-10  0.190E-05    2.94     812.7  T
     SCC iter.                  ...        0 min,  0.028 sec
     gradient                   ...        0 min,  0.078 sec
 * total energy  :   -82.9907175 Eh     change       -0.1114890E-01 Eh
   gradient norm :     0.0569194 Eh/α   predicted    -0.8655294E-02 ( -22.37%)
   displ. norm   :     0.3190243 α      lambda       -0.6532991E-02
   maximum displ.:     0.1111153 α      in ANC's #9, #17, #20, ...

........................................................................
.............................. CYCLE    3 ..............................
........................................................................
   1    -83.7738413 -0.837738E+02  0.833E-02    3.02       0.0  T
   2    -83.7740867 -0.245367E-03  0.323E-02    3.01       1.0  T
   3    -83.7741103 -0.236449E-04  0.125E-02    3.01       1.2  T
   4    -83.7741105 -0.157563E-06  0.508E-03    3.01       3.0  T
   5    -83.7741106 -0.109951E-06  0.666E-04    3.01      23.2  T
   6    -83.7741106 -0.681429E-08  0.250E-04    3.01      61.7  T
   7    -83.7741106 -0.948745E-09  0.669E-05    3.01     230.6  T
   8    -83.7741106 -0.476632E-10  0.175E-05    3.01     882.6  T
     SCC iter.                  ...        0 min,  0.028 sec
     gradient                   ...        0 min,  0.078 sec
 * total energy  :   -82.9945568 Eh     change       -0.3839359E-02 Eh
   gradient norm :     0.0186431 Eh/α   predicted    -0.3601328E-02 (  -6.20%)
   displ. norm   :     0.2209398 α      lambda       -0.1085736E-02
   maximum displ.:     0.1036262 α      in ANC's #9, #17, #3, ...

........................................................................
.............................. CYCLE    4 ..............................
........................................................................
   1    -83.7744487 -0.837744E+02  0.208E-02    3.01       0.0  T
   2    -83.7744650 -0.163054E-04  0.960E-03    3.01       1.6  T
   3    -83.7744664 -0.144409E-05  0.458E-03    3.01       3.4  T
   4    -83.7744664 -0.160700E-07  0.164E-03    3.01       9.4  T
   5    -83.7744665 -0.215534E-07  0.303E-04    3.01      51.0  T
   6    -83.7744665 -0.214128E-08  0.107E-04    3.01     143.8  T
   7    -83.7744665 -0.416250E-09  0.379E-05    3.01     407.2  T
     SCC iter.                  ...        0 min,  0.024 sec
     gradient                   ...        0 min,  0.078 sec
 * total energy  :   -82.9953333 Eh     change       -0.7765090E-03 Eh
   gradient norm :     0.0098598 Eh/α   predicted    -0.5693960E-03 ( -26.67%)
   displ. norm   :     0.2970812 α      lambda       -0.7948694E-03
   maximum displ.:     0.1424355 α      in ANC's #9, #3, #17, ...

........................................................................
.............................. CYCLE    5 ..............................
........................................................................
   1    -83.7738989 -0.837739E+02  0.194E-02    3.02       0.0  T
   2    -83.7739129 -0.140744E-04  0.939E-03    3.02       1.6  T
   3    -83.7739147 -0.172951E-05  0.446E-03    3.02       3.5  T
   4    -83.7739147 -0.221504E-07  0.171E-03    3.02       9.0  T
   5    -83.7739147 -0.291845E-07  0.433E-04    3.02      35.6  T
   6    -83.7739147 -0.675703E-08  0.849E-05    3.02     181.8  T
   7    -83.7739147 -0.117467E-09  0.370E-05    3.02     417.5  T
     SCC iter.                  ...        0 min,  0.024 sec
     gradient                   ...        0 min,  0.083 sec
 * total energy  :   -82.9958866 Eh     change       -0.5532491E-03 Eh
   gradient norm :     0.0083688 Eh/α   predicted    -0.4325167E-03 ( -21.82%)
   displ. norm   :     0.2960997 α      lambda       -0.4764495E-03
   maximum displ.:     0.1260042 α      in ANC's #9, #3, #11, ...

........................................................................
.............................. CYCLE    6 ..............................
........................................................................
   1    -83.7735469 -0.837735E+02  0.132E-02    3.02       0.0  T
   2    -83.7735533 -0.647634E-05  0.551E-03    3.02       2.8  T
   3    -83.7735541 -0.768468E-06  0.254E-03    3.02       6.1  T
   4    -83.7735541 -0.301824E-07  0.116E-03    3.02      13.3  T
   5    -83.7735541 -0.593589E-08  0.261E-04    3.02      59.1  T
   6    -83.7735542 -0.216770E-08  0.496E-05    3.02     311.0  T
   7    -83.7735542 -0.716085E-10  0.189E-05    3.02     818.0  T
     SCC iter.                  ...        0 min,  0.024 sec
     gradient                   ...        0 min,  0.083 sec
 * total energy  :   -82.9962398 Eh     change       -0.3532273E-03 Eh
   gradient norm :     0.0093446 Eh/α   predicted    -0.2591118E-03 ( -26.64%)
   displ. norm   :     0.3310463 α      lambda       -0.4319102E-03
   maximum displ.:     0.1503003 α      in ANC's #3, #11, #9, ...

........................................................................
.............................. CYCLE    7 ..............................
........................................................................
   1    -83.7740925 -0.837741E+02  0.925E-03    3.03       0.0  T
   2    -83.7740960 -0.354544E-05  0.358E-03    3.03       4.3  T
   3    -83.7740964 -0.352597E-06  0.162E-03    3.03       9.5  T
   4    -83.7740964 -0.203566E-07  0.787E-04    3.03      19.6  T
   5    -83.7740964 -0.271164E-08  0.177E-04    3.03      87.0  T
   6    -83.7740964 -0.661331E-09  0.398E-05    3.03     388.0  T
     SCC iter.                  ...        0 min,  0.021 sec
     gradient                   ...        0 min,  0.062 sec
 * total energy  :   -82.9965629 Eh     change       -0.3230844E-03 Eh
   gradient norm :     0.0089245 Eh/α   predicted    -0.2396226E-03 ( -25.83%)
   displ. norm   :     0.3190740 α      lambda       -0.3611385E-03
   maximum displ.:     0.1643332 α      in ANC's #3, #2, #11, ...

........................................................................
.............................. CYCLE    8 ..............................
........................................................................
   1    -83.7756682 -0.837757E+02  0.620E-03    3.03       0.0  T
   2    -83.7756697 -0.148438E-05  0.343E-03    3.03       4.5  T
   3    -83.7756698 -0.973118E-07  0.182E-03    3.03       8.5  T
   4    -83.7756698 -0.167360E-08  0.519E-04    3.03      29.7  T
   5    -83.7756698 -0.320384E-08  0.109E-04    3.03     141.2  T
   6    -83.7756698 -0.208303E-09  0.380E-05    3.03     406.3  T
     SCC iter.                  ...        0 min,  0.021 sec
     gradient                   ...        0 min,  0.084 sec
 * total energy  :   -82.9968297 Eh     change       -0.2668204E-03 Eh
   gradient norm :     0.0068841 Eh/α   predicted    -0.1989545E-03 ( -25.44%)
   displ. norm   :     0.2891845 α      lambda       -0.2519620E-03
   maximum displ.:     0.1638698 α      in ANC's #3, #2, #15, ...

........................................................................
.............................. CYCLE    9 ..............................
........................................................................
   1    -83.7770215 -0.837770E+02  0.614E-03    3.04       0.0  T
   2    -83.7770227 -0.120396E-05  0.344E-03    3.04       4.5  T
   3    -83.7770228 -0.114067E-06  0.187E-03    3.04       8.3  T
   4    -83.7770228 -0.209586E-08  0.461E-04    3.04      33.5  T
   5    -83.7770228 -0.340651E-08  0.130E-04    3.04     118.4  T
   6    -83.7770228 -0.511022E-09  0.375E-05    3.04     411.2  T
     SCC iter.                  ...        0 min,  0.022 sec
     gradient                   ...        0 min,  0.084 sec
 * total energy  :   -82.9970170 Eh     change       -0.1872663E-03 Eh
   gradient norm :     0.0047912 Eh/α   predicted    -0.1365170E-03 ( -27.10%)
   displ. norm   :     0.2616541 α      lambda       -0.1835080E-03
   maximum displ.:     0.1594346 α      in ANC's #3, #2, #15, ...

........................................................................
.............................. CYCLE   10 ..............................
........................................................................
   1    -83.7779615 -0.837780E+02  0.608E-03    3.04       0.0  T
   2    -83.7779629 -0.133966E-05  0.277E-03    3.04       5.6  T
   3    -83.7779630 -0.974543E-07  0.142E-03    3.04      10.8  T
   4    -83.7779630 -0.294156E-08  0.527E-04    3.04      29.3  T
   5    -83.7779630 -0.206722E-08  0.113E-04    3.04     136.9  T
   6    -83.7779630 -0.260528E-09  0.341E-05    3.04     452.3  T
     SCC iter.                  ...        0 min,  0.022 sec
     gradient                   ...        0 min,  0.084 sec
 * total energy  :   -82.9971612 Eh     change       -0.1442201E-03 Eh
   gradient norm :     0.0041531 Eh/α   predicted    -0.9804090E-04 ( -32.02%)
   displ. norm   :     0.2885069 α      lambda       -0.1766187E-03
   maximum displ.:     0.1783807 α      in ANC's #3, #2, #15, ...

........................................................................
.............................. CYCLE   11 ..............................
........................................................................
   1    -83.7778368 -0.837778E+02  0.579E-03    3.04       0.0  T
   2    -83.7778381 -0.130220E-05  0.228E-03    3.04       6.8  T
   3    -83.7778382 -0.700541E-07  0.103E-03    3.04      14.9  T
   4    -83.7778382 -0.278226E-08  0.443E-04    3.04      34.8  T
   5    -83.7778382 -0.123148E-08  0.963E-05    3.04     160.2  T
   6    -83.7778382 -0.721911E-10  0.245E-05    3.04     629.9  T
     SCC iter.                  ...        0 min,  0.022 sec
     gradient                   ...        0 min,  0.084 sec
 * total energy  :   -82.9973050 Eh     change       -0.1438199E-03 Eh
   gradient norm :     0.0047101 Eh/α   predicted    -0.9566073E-04 ( -33.49%)
   displ. norm   :     0.3189127 α      lambda       -0.1852683E-03
   maximum displ.:     0.1978348 α      in ANC's #3, #2, #1, ...

........................................................................
.............................. CYCLE   12 ..............................
........................................................................
   1    -83.7783928 -0.837784E+02  0.524E-03    3.04       0.0  T
   2    -83.7783938 -0.100658E-05  0.233E-03    3.04       6.6  T
   3    -83.7783939 -0.754303E-07  0.109E-03    3.04      14.2  T
   4    -83.7783939 -0.183807E-08  0.430E-04    3.04      35.8  T
   5    -83.7783939 -0.194542E-08  0.104E-04    3.04     148.9  T
   6    -83.7783939 -0.259959E-09  0.342E-05    3.04     451.6  T
     SCC iter.                  ...        0 min,  0.022 sec
     gradient                   ...        0 min,  0.084 sec
 * total energy  :   -82.9974456 Eh     change       -0.1405268E-03 Eh
   gradient norm :     0.0054816 Eh/α   predicted    -0.1020651E-03 ( -27.37%)
   displ. norm   :     0.3530592 α      lambda       -0.1571796E-03
   maximum displ.:     0.2178370 α      in ANC's #3, #2, #15, ...

........................................................................
.............................. CYCLE   13 ..............................
........................................................................
   1    -83.7759499 -0.837759E+02  0.781E-03    3.05       0.0  T
   2    -83.7759508 -0.916689E-06  0.383E-03    3.05       4.0  T
   3    -83.7759509 -0.857958E-07  0.197E-03    3.05       7.8  T
   4    -83.7759509 -0.372521E-07  0.513E-04    3.05      30.1  T
   5    -83.7759509 -0.290864E-08  0.156E-04    3.05      98.6  T
   6    -83.7759509 -0.652292E-09  0.374E-05    3.05     412.6  T
     SCC iter.                  ...        0 min,  0.022 sec
     gradient                   ...        0 min,  0.084 sec
 * total energy  :   -82.9975387 Eh     change       -0.9318451E-04 Eh
   gradient norm :     0.0058164 Eh/α   predicted    -0.8838641E-04 (  -5.15%)
   displ. norm   :     0.2494664 α      lambda       -0.1394812E-03
   maximum displ.:     0.1477312 α      in ANC's #3, #2, #6, ...

........................................................................
.............................. CYCLE   14 ..............................
........................................................................
   1    -83.7782185 -0.837782E+02  0.682E-03    3.05       0.0  T
   2    -83.7782191 -0.576383E-06  0.341E-03    3.05       4.5  T
   3    -83.7782191 -0.338964E-07  0.171E-03    3.05       9.0  T
   4    -83.7782192 -0.155059E-07  0.366E-04    3.05      42.2  T
   5    -83.7782192 -0.198268E-08  0.106E-04    3.05     145.5  T
   6    -83.7782192 -0.251006E-09  0.265E-05    3.05     581.6  T
     SCC iter.                  ...        0 min,  0.022 sec
     gradient                   ...        0 min,  0.084 sec
 * total energy  :   -82.9976163 Eh     change       -0.7753509E-04 Eh
   gradient norm :     0.0041575 Eh/α   predicted    -0.7408394E-04 (  -4.45%)
   displ. norm   :     0.1730916 α      lambda       -0.6689641E-04
   maximum displ.:     0.1069233 α      in ANC's #3, #2, #5, ...

........................................................................
.............................. CYCLE   15 ..............................
........................................................................
   1    -83.7786934 -0.837787E+02  0.437E-03    3.05       0.0  T
   2    -83.7786939 -0.493440E-06  0.207E-03    3.05       7.4  T
   3    -83.7786940 -0.375229E-07  0.111E-03    3.05      13.9  T
   4    -83.7786940 -0.215147E-08  0.312E-04    3.05      49.4  T
   5    -83.7786940 -0.113542E-08  0.613E-05    3.05     251.5  T
   6    -83.7786940 -0.925553E-10  0.250E-05    3.05     616.9  T
     SCC iter.                  ...        0 min,  0.022 sec
     gradient                   ...        0 min,  0.084 sec
 * total energy  :   -82.9976641 Eh     change       -0.4780588E-04 Eh
   gradient norm :     0.0034490 Eh/α   predicted    -0.3445237E-04 ( -27.93%)
   displ. norm   :     0.1960047 α      lambda       -0.7679040E-04
   maximum displ.:     0.1146543 α      in ANC's #3, #2, #5, ...

........................................................................
.............................. CYCLE   16 ..............................
........................................................................
   1    -83.7791282 -0.837791E+02  0.628E-03    3.05       0.0  T
   2    -83.7791295 -0.131666E-05  0.271E-03    3.05       5.7  T
   3    -83.7791296 -0.996804E-07  0.134E-03    3.05      11.5  T
   4    -83.7791296 -0.184983E-08  0.485E-04    3.05      31.8  T
   5    -83.7791296 -0.176223E-08  0.784E-05    3.05     196.8  T
   6    -83.7791296 -0.130484E-09  0.273E-05    3.05     564.2  T
     SCC iter.                  ...        0 min,  0.022 sec
     gradient                   ...        0 min,  0.085 sec
 * total energy  :   -82.9977082 Eh     change       -0.4410161E-04 Eh
   gradient norm :     0.0031530 Eh/α   predicted    -0.3987064E-04 (  -9.59%)
   displ. norm   :     0.0892118 α      lambda       -0.2716664E-04
   maximum displ.:     0.0482610 α      in ANC's #3, #2, #5, ...

........................................................................
.............................. CYCLE   17 ..............................
........................................................................
   1    -83.7792681 -0.837793E+02  0.256E-03    3.05       0.0  T
   2    -83.7792683 -0.207709E-06  0.125E-03    3.05      12.4  T
   3    -83.7792683 -0.132998E-07  0.637E-04    3.05      24.2  T
   4    -83.7792683 -0.425288E-09  0.205E-04    3.05      75.1  T
   5    -83.7792683 -0.674873E-09  0.416E-05    3.05     370.9  T
   6    -83.7792683 -0.390514E-10  0.139E-05    3.05    1109.9  T
     SCC iter.                  ...        0 min,  0.022 sec
     gradient                   ...        0 min,  0.085 sec
 * total energy  :   -82.9977279 Eh     change       -0.1970231E-04 Eh
   gradient norm :     0.0026760 Eh/α   predicted    -0.1369377E-04 ( -30.50%)
   displ. norm   :     0.0847830 α      lambda       -0.2700320E-04
   maximum displ.:     0.0400379 α      in ANC's #3, #5, #2, ...

........................................................................
.............................. CYCLE   18 ..............................
........................................................................
   1    -83.7791507 -0.837792E+02  0.300E-03    3.05       0.0  T
   2    -83.7791510 -0.288342E-06  0.127E-03    3.05      12.1  T
   3    -83.7791510 -0.131197E-07  0.653E-04    3.05      23.6  T
   4    -83.7791510 -0.819810E-09  0.191E-04    3.05      80.7  T
   5    -83.7791510 -0.363642E-09  0.531E-05    3.05     290.5  T
     SCC iter.                  ...        0 min,  0.018 sec
     gradient                   ...        0 min,  0.084 sec
 * total energy  :   -82.9977461 Eh     change       -0.1821919E-04 Eh
   gradient norm :     0.0017343 Eh/α   predicted    -0.1360026E-04 ( -25.35%)
   displ. norm   :     0.0921973 α      lambda       -0.1411466E-04
   maximum displ.:     0.0480528 α      in ANC's #3, #2, #5, ...

........................................................................
.............................. CYCLE   19 ..............................
........................................................................
   1    -83.7786908 -0.837787E+02  0.350E-03    3.05       0.0  T
   2    -83.7786913 -0.512637E-06  0.132E-03    3.05      11.7  T
   3    -83.7786914 -0.367051E-07  0.670E-04    3.05      23.0  T
   4    -83.7786914 -0.177290E-08  0.280E-04    3.05      55.1  T
   5    -83.7786914 -0.758263E-09  0.786E-05    3.05     196.4  T
   6    -83.7786914 -0.896279E-10  0.167E-05    3.05     924.8  T
     SCC iter.                  ...        0 min,  0.022 sec
     gradient                   ...        0 min,  0.084 sec
 * total energy  :   -82.9977582 Eh     change       -0.1205796E-04 Eh
   gradient norm :     0.0017090 Eh/α   predicted    -0.7086443E-05 ( -41.23%)
   displ. norm   :     0.0403794 α      lambda       -0.7600254E-05
   maximum displ.:     0.0157913 α      in ANC's #1, #16, #14, ...

........................................................................
.............................. CYCLE   20 ..............................
........................................................................
   1    -83.7790365 -0.837790E+02  0.173E-03    3.05       0.0  T
   2    -83.7790366 -0.142495E-06  0.106E-03    3.05      14.6  T
   3    -83.7790367 -0.351309E-07  0.429E-04    3.05      36.0  T
   4    -83.7790367  0.771223E-10  0.154E-04    3.05     100.1  T
   5    -83.7790367 -0.273346E-09  0.299E-05    3.05     516.8  T
     SCC iter.                  ...        0 min,  0.018 sec
     gradient                   ...        0 min,  0.084 sec
 * total energy  :   -82.9977667 Eh     change       -0.8551022E-05 Eh
   gradient norm :     0.0013122 Eh/α   predicted    -0.3806570E-05 ( -55.48%)
   displ. norm   :     0.0812778 α      lambda       -0.9409976E-05
   maximum displ.:     0.0454867 α      in ANC's #3, #2, #9, ...
 * RMSD in coord.:     0.5452045 α      energy gain  -0.1819814E-01 Eh

generating ANC from model Hessian ...
Using Lindh-Hessian (1995)
 Shifting diagonal of input Hessian by   9.810429875521779E-003
 Lowest  eigenvalues of input Hessian
    0.000000    0.000000    0.000000    0.000000    0.000000    0.000000
    0.010000    0.010229    0.010619    0.010765    0.011481    0.012296
    0.013751    0.014211    0.014410    0.016351    0.016592    0.016875
 Highest eigenvalues
    2.028863    2.113873    2.182737    2.374375    2.392151    2.403439
 

........................................................................
.............................. CYCLE   21 ..............................
........................................................................
   1    -83.7786978 -0.837787E+02  0.202E-03    3.05       0.0  T
   2    -83.7786979 -0.138102E-06  0.101E-03    3.05      15.3  T
   3    -83.7786979 -0.878995E-08  0.512E-04    3.05      30.2  T
   4    -83.7786979 -0.114852E-09  0.196E-04    3.05      78.8  T
   5    -83.7786979 -0.707260E-09  0.329E-05    3.05     469.1  T
     SCC iter.                  ...        0 min,  0.018 sec
     gradient                   ...        0 min,  0.085 sec
 * total energy  :   -82.9977746 Eh     change       -0.7878506E-05 Eh
   gradient norm :     0.0010976 Eh/α   predicted     0.0000000E+00 (-100.00%)
   displ. norm   :     0.0136083 α      lambda       -0.2694387E-05
   maximum displ.:     0.0068468 α      in ANC's #1, #3, #15, ...

........................................................................
.............................. CYCLE   22 ..............................
........................................................................
   1    -83.7790934 -0.837791E+02  0.107E-03    3.05       0.0  T
   2    -83.7790934 -0.292000E-07  0.537E-04    3.05      28.7  T
   3    -83.7790935 -0.298860E-08  0.267E-04    3.05      57.8  T
   4    -83.7790935 -0.947011E-10  0.640E-05    3.05     241.2  T
   5    -83.7790935 -0.338503E-10  0.150E-05    3.05    1027.5  T
     SCC iter.                  ...        0 min,  0.018 sec
     gradient                   ...        0 min,  0.085 sec
 * total energy  :   -82.9977774 Eh     change       -0.2844375E-05 Eh
   gradient norm :     0.0004701 Eh/α   predicted    -0.1492046E-05 ( -47.54%)
   displ. norm   :     0.0230806 α      lambda       -0.2287783E-05
   maximum displ.:     0.0127799 α      in ANC's #1, #3, #15, ...

   *** GEOMETRY OPTIMIZATION CONVERGED AFTER 22 ITERATIONS ***

------------------------------------------------------------------------
 total energy gain   :        -0.0182089 Eh      -11.4262 kcal/mol
 total RMSD          :         0.5452164 a0        0.2885 Å
 total power (kW/mol):        -2.1730623 (step)  -14.7954 (real)
------------------------------------------------------------------------

 ANCopt (total)                0 d,  0 h,  0 min,  3.231 sec
 optimizer setup                ...        0 min,  0.001 sec (  0.023%)
 model hessian                  ...        0 min,  0.082 sec (  2.532%)
 ANC generation                 ...        0 min,  0.005 sec (  0.150%)
 coordinate transformation      ...        0 min,  0.001 sec (  0.021%)
 single point calculation       ...        0 min,  3.132 sec ( 96.922%)
 optimization log               ...        0 min,  0.006 sec (  0.173%)
 hessian update                 ...        0 min,  0.001 sec (  0.017%)
 rational function              ...        0 min,  0.003 sec (  0.093%)

================
 final structure:
================
42
 xtb: 6.5.1 (579679a)
C           -4.46851486068138       -2.07461623049071        1.60885889944534
O           -3.60414421903015       -1.23230420986686        0.83247971882078
C           -3.33041930160524       -0.03243404773952        1.34137037393895
O           -3.77777017397310        0.36501770339021        2.38700866019876
C           -2.46196136007206        0.80300608075197        0.44328868127361
C           -2.78306660757140        2.10266774500156        0.20329516805773
O           -3.84531305219751        2.70941435529986        0.74796553554830
C           -1.99211304284119        2.91103870550608       -0.73288838676814
O           -2.29912752075842        4.07869444805955       -0.94726800311606
N           -0.93804803800599        2.27278017220640       -1.32591637253590
C           -0.63025548180344        1.03618745232824       -1.05297390583424
C            0.56887624051814        0.49486639016166       -1.83430724136308
C            0.10964042340575       -0.62250836040219       -2.78246436615355
C            1.20465144973993        1.62929865683709       -2.65150885999414
N            1.57011879672948        0.01682420376231       -0.87137358846481
C            2.70246075866737       -0.62758872965304       -1.23896190078725
O            2.97582426290163       -0.99701563086057       -2.36684006974669
C            3.60179430589473       -0.87894380005011       -0.08565600244209
N            4.77680004490579       -1.42755729653056       -0.09891288959273
N            5.21739366624154       -1.44790083898783        1.18882016881646
C            4.28360143183980       -0.91117244526107        1.91283170383500
C            4.27440014879189       -0.71184833617486        3.38010349283850
O            3.23501093782717       -0.52763432267005        1.16741275404872
N           -1.34000385344086        0.26895945055820       -0.18823857004372
C           -0.96282392564058       -1.09909181876030        0.17237902787537
H           -4.50776352350836       -3.03243971528460        1.09529056685810
H           -4.06253550116797       -2.19625225628428        2.61509153381025
H           -5.46483649209311       -1.63098381696803        1.66723457839561
H           -3.87127660675376        3.62535922484373        0.40676316170998
H           -0.79006664856479       -0.29759165887491       -3.30350642249845
H           -0.10791351912284       -1.54046809721792       -2.24385070127419
H            0.88408493864060       -0.83085306151557       -3.51834573516290
H            0.48634642010694        2.01502522497585       -3.37250226327269
H            1.51415060374707        2.43796340659297       -1.99190526918199
H            2.07436747156435        1.24633542723129       -3.18279474781635
H            1.54572674550458        0.41827865676204        0.05156652805464
H            3.38828429888702       -0.15394164463855        3.67143358058985
H            4.27197768835770       -1.67773352498898        3.88575163727108
H            5.16684927290906       -0.16884495357086        3.68966308763505
H            0.08579379657390       -1.26783069495819       -0.04408283123364
H           -1.57399101440753       -1.80628147984975       -0.38649727663546
H           -1.12621096051762       -1.23788133266926        1.23873254490529
 
 Bond Distances (Angstroems)
 ---------------------------
C1-O2=1.4351         C1-H26=1.0875        C1-H27=1.0918        C1-H28=1.0922        O2-C1=1.4351         O2-C3=1.3318         
C3-O2=1.3318         C3-O4=1.2048         C3-C5=1.5029         O4-C3=1.2048         C5-C3=1.5029         C5-C6=1.3601         
C5-N24=1.3939        C6-C5=1.3601         C6-O7=1.3391         C6-C8=1.4682         O7-C6=1.3391         O7-H29=0.9778        
C8-C6=1.4682         C8-O9=1.2262         C8-N10=1.3675        O9-C8=1.2262         N10-C8=1.3675        N10-C11=1.3032       
C11-N10=1.3032       C11-C12=1.5302       C11-N24=1.3565       C12-C11=1.5302       C12-C13=1.5357       C12-C14=1.5359       
C12-N15=1.4691       C13-C12=1.5357       C13-H30=1.0893       C13-H31=1.0863       C13-H32=1.0884       C14-C12=1.5359       
C14-H33=1.0884       C14-H34=1.0885       C14-H35=1.0887       N15-C12=1.4691       N15-C16=1.3537       N15-H36=1.0068       
C16-N15=1.3537       C16-O17=1.2179       C16-C18=1.4839       O17-C16=1.2179       C18-C16=1.4839       C18-N19=1.2968       
C18-O23=1.3521       N19-C18=1.2968       N19-N20=1.3612       N20-N19=1.3612       N20-C21=1.2978       C21-N20=1.2978       
C21-C22=1.4808       C21-O23=1.3425       C22-C21=1.4808       C22-H37=1.0869       C22-H38=1.0902       C22-H39=1.0896       
O23-C18=1.3521       O23-C21=1.3425       N24-C5=1.3939        N24-C11=1.3565       N24-C25=1.4642       C25-N24=1.4642       
C25-H40=1.0839       C25-H41=1.0890       C25-H42=1.0877       H26-C1=1.0875        H27-C1=1.0918        H28-C1=1.0922        
H29-O7=0.9778        H30-C13=1.0893       H31-C13=1.0863       H32-C13=1.0884       H33-C14=1.0884       H34-C14=1.0885       
H35-C14=1.0887       H36-N15=1.0068       H37-C22=1.0869       H38-C22=1.0902       H39-C22=1.0896       H40-C25=1.0839       
H41-C25=1.0890       H42-C25=1.0877       
 C  H  Rav=1.0886 sigma=0.0020  Rmin=1.0839  Rmax=1.0922    15
 C  C  Rav=1.4872 sigma=0.0541  Rmin=1.3601  Rmax=1.5359     8
 N  H  Rav=1.0068 sigma=0.0000  Rmin=1.0068  Rmax=1.0068     1
 N  C  Rav=1.3670 sigma=0.0621  Rmin=1.2968  Rmax=1.4691     9
 N  N  Rav=1.3612 sigma=0.0000  Rmin=1.3612  Rmax=1.3612     1
 O  H  Rav=0.9778 sigma=0.0000  Rmin=0.9778  Rmax=0.9778     1
 O  C  Rav=1.3062 sigma=0.0760  Rmin=1.2048  Rmax=1.4351     8
 
 selected bond angles (degree)
 --------------------
H26-C1-O2=106.45               H27-C1-O2=109.88               H27-C1-H26=110.52              H28-C1-O2=109.87               
H28-C1-H26=110.49              H28-C1-H27=109.58              C3-O2-C1=116.48                O4-C3-O2=123.54                
C5-C3-O2=113.03                C5-C3-O4=123.35                C6-C5-C3=120.01                N24-C5-C3=121.53               
N24-C5-C6=118.44               O7-C6-C5=123.26                C8-C6-C5=120.76                C8-C6-O7=115.93                
H29-O7-C6=107.67               O9-C8-C6=120.06                N10-C8-C6=115.77               N10-C8-O9=124.17               
C11-N10-C8=122.28              
 
 selected dihedral angles (degree)
 ---------------------------------
C3-O2-C1-H26=185.06           C3-O2-C1-H27=304.75           C3-O2-C1-H28= 65.40           O4-C3-O2-C1=359.19            
C5-C3-O2-C1=182.13            C6-C5-C3-O2=133.57            C6-C5-C3-O4=316.52            N24-C5-C3-O2=315.29           
N24-C5-C3-O4=138.23           O7-C6-C5-C3=  1.02            O7-C6-C5-N24=179.36           C8-C6-C5-C3=183.64            
C8-C6-C5-N24=  1.97           H29-O7-C6-C5=181.33           H29-O7-C6-C8=358.84           O9-C8-C6-C5=179.45            
O9-C8-C6-O7=  1.88            N10-C8-C6-C5=359.96           N10-C8-C6-O7=182.39           C11-N10-C8-C6=358.23          
C11-N10-C8-O9=178.76          
           -------------------------------------------------
          |                Final Singlepoint                |
           -------------------------------------------------

          ...................................................
          :                      SETUP                      :
          :.................................................:
          :  # basis functions                 134          :
          :  # atomic orbitals                 134          :
          :  # shells                           84          :
          :  # electrons                       134          :
          :  # halogen bonds                     0          :
          :  max. iterations                   250          :
          :  Hamiltonian                  GFN1-xTB          :
          :  restarted?                      false          :
          :  GBSA solvation                   true          :
          :  PC potential                    false          :
          :  electronic temp.          300.0000000     K    :
          :  accuracy                    1.0000000          :
          :  -> integral cutoff          0.2500000E+02      :
          :  -> integral neglect         0.1000000E-07      :
          :  -> SCF convergence          0.1000000E-05 Eh   :
          :  -> wf. convergence          0.2000000E-04 e    :
          :  Broyden damping             0.4000000          :
          ...................................................

 iter      E             dE          RMSdq      gap      omega  full diag
   1    -83.7790935 -0.837791E+02  0.374E-06    3.05       0.0  T
   2    -83.7790935 -0.298428E-12  0.191E-06    3.05    8072.9  T
   3    -83.7790935  0.298428E-12  0.851E-07    3.05   18131.8  T

   *** convergence criteria satisfied after 3 iterations ***

         #    Occupation            Energy/Eh            Energy/eV
      -------------------------------------------------------------
         1        2.0000           -0.8674842             -23.6054
       ...           ...                  ...                  ...
        61        2.0000           -0.4745735             -12.9138
        62        2.0000           -0.4673903             -12.7183
        63        2.0000           -0.4609609             -12.5434
        64        2.0000           -0.4532464             -12.3335
        65        2.0000           -0.4487901             -12.2122
        66        2.0000           -0.4265954             -11.6083
        67        2.0000           -0.4260529             -11.5935 (HOMO)
        68                         -0.3141157              -8.5475 (LUMO)
        69                         -0.3131273              -8.5206
        70                         -0.2938112              -7.9950
        71                         -0.2585316              -7.0350
        72                         -0.2501844              -6.8079
       ...                                ...                  ...
       134                          0.7300002              19.8643
      -------------------------------------------------------------
                  HL-Gap            0.1119372 Eh            3.0460 eV
             Fermi-level           -0.3700843 Eh          -10.0705 eV

 SCC (total)                   0 d,  0 h,  0 min,  0.134 sec
 SCC setup                      ...        0 min,  0.002 sec (  1.437%)
 Dispersion                     ...        0 min,  0.000 sec (  0.257%)
 classical contributions        ...        0 min,  0.000 sec (  0.085%)
 integral evaluation            ...        0 min,  0.035 sec ( 26.409%)
 iterations                     ...        0 min,  0.011 sec (  8.490%)
 molecular gradient             ...        0 min,  0.084 sec ( 62.643%)
 printout                       ...        0 min,  0.001 sec (  0.650%)

         :::::::::::::::::::::::::::::::::::::::::::::::::::::
         ::                     SUMMARY                     ::
         :::::::::::::::::::::::::::::::::::::::::::::::::::::
         :: total energy             -82.997777435511 Eh    ::
         :: total w/o Gsasa/hb       -82.974302704759 Eh    ::
         :: gradient norm              0.000472603814 Eh/a0 ::
         :: HOMO-LUMO gap              3.045966806090 eV    ::
         ::.................................................::
         :: SCC energy               -83.779093450443 Eh    ::
         :: -> electrostatic           0.357695740833 Eh    ::
         :: -> Gsolv                  -0.060782107643 Eh    ::
         ::    -> Gelec               -0.037307376891 Eh    ::
         ::    -> Gsasa               -0.024056382888 Eh    ::
         ::    -> Ghb                 -0.007042626868 Eh    ::
         ::    -> Gshift               0.007624279005 Eh    ::
         :: repulsion energy           0.808140174791 Eh    ::
         :: dispersion energy         -0.026824159859 Eh    ::
         :: halogen bond corr.         0.000000000000 Eh    ::
         :: add. restraining           0.000000000000 Eh    ::
         :: total charge              -0.000000000000 e     ::
         :::::::::::::::::::::::::::::::::::::::::::::::::::::

           -------------------------------------------------
          |                Property Printout                |
           -------------------------------------------------

    * Orbital Energies and Occupations

         #    Occupation            Energy/Eh            Energy/eV
      -------------------------------------------------------------
         1        2.0000           -0.8674842             -23.6054
       ...           ...                  ...                  ...
        55        2.0000           -0.5058303             -13.7643
        56        2.0000           -0.5032048             -13.6929
        57        2.0000           -0.4990241             -13.5791
        58        2.0000           -0.4890698             -13.3083
        59        2.0000           -0.4814919             -13.1021
        60        2.0000           -0.4757103             -12.9447
        61        2.0000           -0.4745735             -12.9138
        62        2.0000           -0.4673903             -12.7183
        63        2.0000           -0.4609609             -12.5434
        64        2.0000           -0.4532464             -12.3335
        65        2.0000           -0.4487901             -12.2122
        66        2.0000           -0.4265954             -11.6083
        67        2.0000           -0.4260529             -11.5935 (HOMO)
        68                         -0.3141157              -8.5475 (LUMO)
        69                         -0.3131273              -8.5206
        70                         -0.2938112              -7.9950
        71                         -0.2585316              -7.0350
        72                         -0.2501844              -6.8079
        73                         -0.2012325              -5.4758
        74                         -0.1656218              -4.5068
        75                         -0.1434939              -3.9047
        76                         -0.1429103              -3.8888
        77                         -0.1406873              -3.8283
        78                         -0.1261440              -3.4326
       ...                                ...                  ...
       134                          0.7300002              19.8643
      -------------------------------------------------------------
                  HL-Gap            0.1119372 Eh            3.0460 eV
             Fermi-level           -0.3700843 Eh          -10.0705 eV

  Mulliken/CM5 charges         n(s)   n(p)   n(d)
     1C     0.16163  0.04025   0.983  2.855  0.000
     2O    -0.41537 -0.50665   1.689  4.726  0.000
     3C     0.58429  0.64880   0.967  2.449  0.000
     4O    -0.54082 -0.58732   1.721  4.820  0.000
     5C     0.04690  0.11845   1.040  2.913  0.000
     6C     0.22668  0.26055   1.027  2.746  0.000
     7O    -0.51030 -0.70127   1.697  4.813  0.000
     8C     0.45333  0.56000   0.989  2.558  0.000
     9O    -0.58916 -0.63285   1.732  4.857  0.000
    10N    -0.41821 -0.60167   1.523  3.895  0.000
    11C     0.27927  0.43166   1.024  2.696  0.000
    12C     0.15343  0.19278   1.068  2.779  0.000
    13C    -0.10494 -0.24560   1.020  3.085  0.000
    14C    -0.09731 -0.23463   1.019  3.079  0.000
    15N    -0.34831 -0.71078   1.438  3.911  0.000
    16C     0.47215  0.57949   0.977  2.551  0.000
    17O    -0.56981 -0.61516   1.725  4.844  0.000
    18C     0.32891  0.45447   1.008  2.664  0.000
    19N    -0.21855 -0.32243   1.565  3.653  0.000
    20N    -0.26726 -0.37438   1.563  3.704  0.000
    21C     0.39265  0.50119   1.008  2.599  0.000
    22C    -0.11256 -0.25002   1.013  3.100  0.000
    23O    -0.35802 -0.41581   1.697  4.661  0.000
    24N    -0.17464 -0.42707   1.447  3.727  0.000
    25C     0.03418 -0.05454   0.997  2.968  0.000
    26H     0.05989  0.12024   0.940  0.000  0.000
    27H     0.05831  0.12057   0.942  0.000  0.000
    28H     0.05815  0.11937   0.942  0.000  0.000
    29H     0.40785  0.58704   0.592  0.000  0.000
    30H     0.04639  0.10170   0.954  0.000  0.000
    31H     0.04745  0.10632   0.953  0.000  0.000
    32H     0.06609  0.12599   0.934  0.000  0.000
    33H     0.04707  0.10538   0.953  0.000  0.000
    34H     0.04560  0.10559   0.954  0.000  0.000
    35H     0.05388  0.11355   0.946  0.000  0.000
    36H     0.26340  0.47166   0.737  0.000  0.000
    37H     0.07517  0.13120   0.925  0.000  0.000
    38H     0.07922  0.13351   0.921  0.000  0.000
    39H     0.07721  0.13173   0.923  0.000  0.000
    40H     0.06524  0.14236   0.935  0.000  0.000
    41H     0.07098  0.13795   0.929  0.000  0.000
    42H     0.06991  0.13837   0.930  0.000  0.000

Wiberg/Mayer (AO) data.
largest (>0.10) Wiberg bond orders for each atom

 ---------------------------------------------------------------------------
     #   Z sym  total        # sym  WBO       # sym  WBO       # sym  WBO
 ---------------------------------------------------------------------------
     1   6 C    3.860 --    26 H    0.985    27 H    0.980    28 H    0.979
                             2 O    0.885
     2   8 O    2.207 --     3 C    1.114     1 C    0.885     4 O    0.137
     3   6 C    3.852 --     4 O    1.687     2 O    1.114     5 C    0.974
     4   8 O    1.946 --     3 C    1.687     2 O    0.137
     5   6 C    3.928 --     6 C    1.542    24 N    1.093     3 C    0.974
     6   6 C    3.916 --     5 C    1.542     7 O    1.103     8 C    1.040
     7   8 O    2.074 --     6 C    1.103    29 H    0.805
     8   6 C    3.918 --     9 O    1.575    10 N    1.165     6 C    1.040
     9   8 O    1.893 --     8 C    1.575
    10   7 N    3.015 --    11 C    1.510     8 C    1.165
    11   6 C    3.930 --    10 N    1.510    24 N    1.251    12 C    0.972
    12   6 C    3.931 --    14 C    0.991    13 C    0.984    11 C    0.972
                            15 N    0.920
    13   6 C    3.987 --    30 H    0.985    12 C    0.984    31 H    0.981
                            32 H    0.977
    14   6 C    3.988 --    12 C    0.991    34 H    0.984    33 H    0.984
                            35 H    0.982
    15   7 N    3.343 --    16 C    1.237    12 C    0.920    36 H    0.895
                            17 O    0.171
    16   6 C    3.914 --    17 O    1.596    15 N    1.237    18 C    0.994
    17   8 O    1.911 --    16 C    1.596    15 N    0.171
    18   6 C    3.872 --    19 N    1.620    23 O    1.044    16 C    0.994
    19   7 N    3.001 --    18 C    1.620    20 N    1.203
    20   7 N    2.980 --    21 C    1.606    19 N    1.203
    21   6 C    3.867 --    20 N    1.606    23 O    1.075    22 C    1.030
    22   6 C    3.986 --    21 C    1.030    37 H    0.982    39 H    0.966
                            38 H    0.961
    23   8 O    2.317 --    21 C    1.075    18 C    1.044
    24   7 N    3.525 --    11 C    1.251     5 C    1.093    25 C    0.926
    25   6 C    3.921 --    42 H    0.979    41 H    0.974    40 H    0.972
                            24 N    0.926
    26   1 H    1.008 --     1 C    0.985
    27   1 H    1.006 --     1 C    0.980
    28   1 H    1.005 --     1 C    0.979
    29   1 H    0.851 --     7 O    0.805
    30   1 H    1.001 --    13 C    0.985
    31   1 H    1.001 --    13 C    0.981
    32   1 H    1.011 --    13 C    0.977
    33   1 H    1.011 --    14 C    0.984
    34   1 H    1.010 --    14 C    0.984
    35   1 H    1.006 --    14 C    0.982
    36   1 H    0.939 --    15 N    0.895
    37   1 H    0.997 --    22 C    0.982
    38   1 H    0.997 --    22 C    0.961
    39   1 H    0.997 --    22 C    0.966
    40   1 H    1.007 --    25 C    0.972
    41   1 H    1.008 --    25 C    0.974
    42   1 H    1.000 --    25 C    0.979
 ---------------------------------------------------------------------------

Topologies differ in total number of bonds
Writing topology from bond orders to xtbtopo.mol

 dipole moment from electron density (au)
     X       Y       Z   
  -1.0444  -2.3152   2.6429  total (Debye):    9.317

           -------------------------------------------------
          |                Geometry Summary                 |
           -------------------------------------------------

      molecular mass/u    :      351.3152409
   center of mass at/Å    :        0.0350649       0.2390985      -0.0129508
  moments of inertia/u·Å² :        0.1600267E+04   0.4012714E+04   0.4592040E+04
rotational constants/cm⁻¹ :        0.1053426E-01   0.4201055E-02   0.3671055E-02

 * 38 selected distances

     #   Z          #   Z                                           value/Å
     1   6 C        2   8 O                                       1.4350579
     2   8 O        3   6 C                                       1.3317596
     3   6 C        4   8 O                                       1.2047616
     5   6 C        6   6 C                                       1.3600832
     6   6 C        7   8 O                                       1.3390949
     8   6 C        9   8 O                                       1.2262287
     8   6 C       10   7 N                                       1.3675195
    10   7 N       11   6 C                                       1.3032251
    12   6 C       13   6 C                                       1.5357168
    12   6 C       14   6 C                                       1.5358924 (max)
    12   6 C       15   7 N                                       1.4690993
    15   7 N       16   6 C                                       1.3537311
    16   6 C       17   8 O                                       1.2179135
    18   6 C       19   7 N                                       1.2968390
    20   7 N       21   6 C                                       1.2977821
    21   6 C       22   6 C                                       1.4807774
    18   6 C       23   8 O                                       1.3520836
    21   6 C       23   8 O                                       1.3424952
     5   6 C       24   7 N                                       1.3938513
    11   6 C       24   7 N                                       1.3565210
    24   7 N       25   6 C                                       1.4641975
     1   6 C       26   1 H                                       1.0875288
     1   6 C       27   1 H                                       1.0918420
     1   6 C       28   1 H                                       1.0921879
     7   8 O       29   1 H                                       0.9777772 (min)
    13   6 C       30   1 H                                       1.0892790
    13   6 C       31   1 H                                       1.0863170
    13   6 C       32   1 H                                       1.0884362
    14   6 C       33   1 H                                       1.0883836
    14   6 C       34   1 H                                       1.0884877
    14   6 C       35   1 H                                       1.0887294
    15   7 N       36   1 H                                       1.0067668
    22   6 C       37   1 H                                       1.0868922
    22   6 C       38   1 H                                       1.0902387
    22   6 C       39   1 H                                       1.0895621
    25   6 C       40   1 H                                       1.0839409
    25   6 C       41   1 H                                       1.0890296
    25   6 C       42   1 H                                       1.0876892

 * 6 distinct bonds (by element types)

   Z      Z             #   av. dist./Å        max./Å        min./Å
   1 H    6 C          15     1.0885696     1.0921879     1.0839409
   6 C    6 C           4     1.4781175     1.5358924     1.3600832
   1 H    7 N           1     1.0067668     1.0067668     1.0067668
   6 C    7 N           9     1.3669740     1.4690993     1.2968390
   1 H    8 O           1     0.9777772     0.9777772     0.9777772
   6 C    8 O           8     1.3061744     1.4350579     1.2047616


optimized geometry written to: xtbopt.xyz


           -------------------------------------------------
          | TOTAL ENERGY              -82.997777435511 Eh   |
          | GRADIENT NORM               0.000472603814 Eh/α |
          | HOMO-LUMO GAP               3.045966806090 eV   |
           -------------------------------------------------

------------------------------------------------------------------------
 * finished run on 2023/06/20 at 18:12:21.680     
------------------------------------------------------------------------
 total:
 * wall-time:     0 d,  0 h,  0 min,  3.679 sec
 *  cpu-time:     0 d,  0 h,  0 min,  3.547 sec
 * ratio c/w:     0.964 speedup
 SCF:
 * wall-time:     0 d,  0 h,  0 min,  0.172 sec
 *  cpu-time:     0 d,  0 h,  0 min,  0.164 sec
 * ratio c/w:     0.955 speedup
 ANC optimizer:
 * wall-time:     0 d,  0 h,  0 min,  3.391 sec
 *  cpu-time:     0 d,  0 h,  0 min,  3.332 sec
 * ratio c/w:     0.983 speedup

