47
 energy: -79.541861179097 gnorm: 0.000166028880 xtb: 6.5.1 (579679a)
C           -2.84644602922225        1.14569067163309       -2.34938174022731
N           -2.77117893624492       -0.26501478145909       -1.89907028191607
C           -3.28960140313945       -0.55514917695964       -0.50981510717306
C           -4.67876136558235        0.06615766900952       -0.37922123393169
C           -3.34278412519263       -2.08466090955275       -0.41565019142668
C           -2.21003199339357       -0.01537581529620        0.42391810046416
N           -1.08078726458452        0.22535138673715       -0.15848540958887
C            0.01554692882910        0.68560383646389        0.51914377955821
C            1.18528283862336        0.94242160299037       -0.38613495480856
O            1.06181955195781        0.84492653789892       -1.60181525830894
N            2.33282565825049        1.29179616674277        0.21623369784032
C            3.53703290308079        1.56579615626727       -0.55897222219483
C            4.46769636813495        0.37240239783468       -0.58197796509120
C            5.82224800295302        0.53696658487676       -0.30439335515044
C            6.68872136326490       -0.54739396465373       -0.34205492349825
C            6.17007830164288       -1.79014804922980       -0.65624866891701
F            6.99935211733559       -2.84541100083370       -0.69006553535349
C            4.82978945201153       -1.98933672772310       -0.93636672410101
C            3.97990193329238       -0.89384025421818       -0.89971464123542
C           -0.08706898390613        0.88610459506836        1.86295003567083
O            0.90995770671978        1.34319663032995        2.63611237178335
C           -1.33496378740277        0.61314195472791        2.55946857900001
O           -1.45035512947206        0.78894694605513        3.76454247761725
N           -2.37956029606168        0.13883584199700        1.76964050111217
C           -3.62388179016005       -0.15116044948899        2.48522398261414
H           -3.88501808132348        1.42661986571672       -2.49097197527897
H           -2.30718584277106        1.21230488936807       -3.29163141682436
H           -2.37101996430737        1.77190553135083       -1.59919564368791
H           -1.77244331769304       -0.51549833180450       -1.88141608890773
H           -3.25362621711849       -0.85669270473157       -2.56799560490280
H           -5.23087671671199       -0.09222025320408       -1.30451086415481
H           -4.61811927363967        1.13386337294494       -0.17761612870867
H           -5.23558647169589       -0.41564849502028        0.42024765075979
H           -4.06546339292997       -2.47329306938801       -1.13120604791632
H           -2.36172393281150       -2.50696388960979       -0.62861969081824
H           -3.64536656319761       -2.39047960333643        0.58333190357338
H            2.40600266531448        1.31569709711216        1.21984430826564
H            3.22466058388711        1.81512423382327       -1.57942784901850
H            4.03815719309178        2.43347800164446       -0.12187211149658
H            6.20800070954757        1.51911869424502       -0.05715534378234
H            7.74316702430519       -0.43159927934822       -0.12707130626446
H            4.46157916817743       -2.97794242087078       -1.17750346108194
H            2.92778227324104       -1.02625847843006       -1.11972715941670
H            0.59330535926662        1.40702043975018        3.55813693439515
H           -3.38444183228544       -0.23448537661298        3.54529113860060
H           -4.04611333987536       -1.08772991540392        2.13626449347331
H           -4.33049905219564        0.66383284260561        2.33801795045658
