      -----------------------------------------------------------      
     |                   =====================                   |     
     |                           x T B                           |     
     |                   =====================                   |     
     |                         S. Grimme                         |     
     |          Mulliken Center for Theoretical Chemistry        |     
     |                    University of Bonn                     |     
      -----------------------------------------------------------      

   * xtb version 6.5.1 (579679a) compiled by 'ehlert@majestix' on 2022-07-11

   xtb is free software: you can redistribute it and/or modify it under
   the terms of the GNU Lesser General Public License as published by
   the Free Software Foundation, either version 3 of the License, or
   (at your option) any later version.
   
   xtb is distributed in the hope that it will be useful,
   but WITHOUT ANY WARRANTY; without even the implied warranty of
   MERCHANTABILITY or FITNESS FOR A PARTICULAR PURPOSE.  See the
   GNU Lesser General Public License for more details.
   
   Cite this work as:
   * C. Bannwarth, E. Caldeweyher, S. Ehlert, A. Hansen, P. Pracht,
     J. Seibert, S. Spicher, S. Grimme, WIREs Comput. Mol. Sci., 2020, 11,
     e01493. DOI: 10.1002/wcms.1493
   
   for GFN2-xTB:
   * C. Bannwarth, S. Ehlert and S. Grimme., J. Chem. Theory Comput., 2019,
     15, 1652-1671. DOI: 10.1021/acs.jctc.8b01176
   for GFN1-xTB:
   * S. Grimme, C. Bannwarth, P. Shushkov, J. Chem. Theory Comput., 2017,
     13, 1989-2009. DOI: 10.1021/acs.jctc.7b00118
   for GFN0-xTB:
   * P. Pracht, E. Caldeweyher, S. Ehlert, S. Grimme, ChemRxiv, 2019, preprint.
     DOI: 10.26434/chemrxiv.8326202.v1
   for GFN-FF:
   * S. Spicher and S. Grimme, Angew. Chem. Int. Ed., 2020, 59, 15665-15673.
     DOI: 10.1002/anie.202004239
   
   for ALPB and GBSA implicit solvation:
   * S. Ehlert, M. Stahn, S. Spicher, S. Grimme, J. Chem. Theory Comput.,
     2021, 17, 4250-4261. DOI: 10.1021/acs.jctc.1c00471
   
   for DFT-D4:
   * E. Caldeweyher, C. Bannwarth and S. Grimme, J. Chem. Phys., 2017,
     147, 034112. DOI: 10.1063/1.4993215
   * E. Caldeweyher, S. Ehlert, A. Hansen, H. Neugebauer, S. Spicher,
     C. Bannwarth and S. Grimme, J. Chem. Phys., 2019, 150, 154122.
     DOI: 10.1063/1.5090222
   * E. Caldeweyher, J.-M. Mewes, S. Ehlert and S. Grimme, Phys. Chem. Chem. Phys.
     2020, 22, 8499-8512. DOI: 10.1039/D0CP00502A
   
   for sTDA-xTB:
   * S. Grimme and C. Bannwarth, J. Chem. Phys., 2016, 145, 054103.
     DOI: 10.1063/1.4959605
   
   in the mass-spec context:
   * V. Asgeirsson, C. Bauer and S. Grimme, Chem. Sci., 2017, 8, 4879.
     DOI: 10.1039/c7sc00601b
   * J. Koopman and S. Grimme, ACS Omega 2019, 4, 12, 15120-15133.
     DOI: 10.1021/acsomega.9b02011
   
   for metadynamics refer to:
   * S. Grimme, J. Chem. Theory Comput., 2019, 155, 2847-2862
     DOI: 10.1021/acs.jctc.9b00143
   
   for SPH calculations refer to:
   * S. Spicher and S. Grimme, J. Chem. Theory Comput., 2021, 17, 1701-1714
     DOI: 10.1021/acs.jctc.0c01306
   
   with help from (in alphabetical order)
   P. Atkinson, C. Bannwarth, F. Bohle, G. Brandenburg, E. Caldeweyher
   M. Checinski, S. Dohm, S. Ehlert, S. Ehrlich, I. Gerasimov, C. Hölzer
   A. Katbashev, J. Koopman, C. Lavigne, S. Lehtola, F. März, M. Müller,
   F. Musil, H. Neugebauer, J. Pisarek, C. Plett, P. Pracht, F. Pultar,
   J. Seibert, P. Shushkov, S. Spicher, M. Stahn, M. Steiner, T. Strunk,
   J. Stückrath, T. Rose, and J. Unsleber
   
 * started run on 2023/06/20 at 14:55:31.031     

           -------------------------------------------------
          |                Calculation Setup                |
           -------------------------------------------------

          program call               : /lustre/hpc/kemi/ree/PhD/git/ReactivityQM/dep/xtb-6.5.1/bin/xtb --gfn 1 /lustre/hpc/kemi/ree/PhD/git/ReactivityQM/calculations/RaltegravirCLI/reac01prodN07/conf03/RaltegravirCLI_reac01prodN07_conf03_gfn1.xyz --opt --vfukui --chrg 1 --uhf 0 --alpb DMSO
          hostname                   : node308
          coordinate file            : /lustre/hpc/kemi/ree/PhD/git/ReactivityQM/calculations/RaltegravirCLI/reac01prodN07/conf03/RaltegravirCLI_reac01prodN07_conf03_gfn1.xyz
          omp threads                :                     1

   ID    Z sym.   atoms
    1    6 C      1, 3, 5, 8, 9
    2    8 O      2, 10
    3   17 Cl     4
    4    7 N      6, 7
    5    1 H      11-16

           -------------------------------------------------
          |                 G F N 1 - x T B                 |
           -------------------------------------------------

        Reference                      10.1021/acs.jctc.7b00118
      * Hamiltonian:
        H0-scaling (s, p, d)           1.850000    2.250000    2.000000
        zeta-weighting                 0.000000
      * Dispersion:
        s8                             2.400000
        a1                             0.630000
        a2                             5.000000
        s9                             0.000000
      * Repulsion:
        kExp                           1.500000
        rExp                           1.000000
      * Coulomb:
        alpha                          2.000000
        third order                    atomic
        anisotropic                    false
      * Halogen bond correction:
        rad-scale                      1.300000
        damping                        0.440000

      * Solvation model:               ALPB
        Solvent                        DMSO
        Parameter file                 internal GFN1-xTB/ALPB
        Dielectric constant                4.6680E+01
        Reference state                gsolv [1 M gas/solution]
        Free energy shift                  7.6243E-03 Eh       4.7843E+00 kcal/mol
        Temperature                        2.9815E+02 K
        Density                            1.1000E+00 kg/L
        Solvent mass                       7.8130E+01 g/mol
        Interaction kernel             P16
        Born radius scaling (c1)           1.7672E+00
        Born radii integrator          GBOBC
        Born offset                        0.0000E+00 a0       0.0000E+00 AA
        H-bond correction              true
        Ion screening                  false
        Surface tension                    1.0000E-05 Eh       1.5569E+01 dyn/cm
        Grid points                               230 per atom

          ...................................................
          :                      SETUP                      :
          :.................................................:
          :  # basis functions                  58          :
          :  # atomic orbitals                  57          :
          :  # shells                           33          :
          :  # electrons                        54          :
          :  # halogen bonds                     4          :
          :  max. iterations                   250          :
          :  Hamiltonian                  GFN1-xTB          :
          :  restarted?                      false          :
          :  GBSA solvation                   true          :
          :  PC potential                    false          :
          :  electronic temp.          300.0000000     K    :
          :  accuracy                    1.0000000          :
          :  -> integral cutoff          0.2500000E+02      :
          :  -> integral neglect         0.1000000E-07      :
          :  -> SCF convergence          0.1000000E-05 Eh   :
          :  -> wf. convergence          0.2000000E-04 e    :
          :  Broyden damping             0.4000000          :
          ...................................................

 iter      E             dE          RMSdq      gap      omega  full diag
   1    -33.5602949 -0.335603E+02  0.786E+00    2.78       0.0  T
   2    -33.6559538 -0.956589E-01  0.485E+00    1.80       1.0  T
   3    -33.6429010  0.130528E-01  0.190E+00    2.60       1.0  T
   4    -33.6693921 -0.264910E-01  0.256E-01    2.01       1.0  T
   5    -33.6705414 -0.114932E-02  0.980E-02    2.13       1.0  T
   6    -33.6706719 -0.130534E-03  0.237E-02    2.11       1.1  T
   7    -33.6706753 -0.334204E-05  0.638E-03    2.11       3.9  T
   8    -33.6706754 -0.136221E-06  0.129E-03    2.11      19.4  T
   9    -33.6706754 -0.151784E-07  0.384E-04    2.11      65.2  T
  10    -33.6706754 -0.409607E-09  0.169E-04    2.11     148.1  T
  11    -33.6706754 -0.132943E-10  0.347E-05    2.11     720.4  T

   *** convergence criteria satisfied after 11 iterations ***

         #    Occupation            Energy/Eh            Energy/eV
      -------------------------------------------------------------
         1        2.0000           -1.0206072             -27.7721
       ...           ...                  ...                  ...
        21        2.0000           -0.5608036             -15.2602
        22        2.0000           -0.5578952             -15.1811
        23        2.0000           -0.5461084             -14.8604
        24        2.0000           -0.5373932             -14.6232
        25        2.0000           -0.5305047             -14.4358
        26        2.0000           -0.5038822             -13.7113
        27        2.0000           -0.4974681             -13.5368 (HOMO)
        28                         -0.4199204             -11.4266 (LUMO)
        29                         -0.3116518              -8.4805
        30                         -0.2881352              -7.8406
        31                         -0.2771173              -7.5407
        32                         -0.1665296              -4.5315
       ...                                ...                  ...
        57                          0.4912718              13.3682
      -------------------------------------------------------------
                  HL-Gap            0.0775477 Eh            2.1102 eV
             Fermi-level           -0.4586943 Eh          -12.4817 eV

 SCC (total)                   0 d,  0 h,  0 min,  0.093 sec
 SCC setup                      ...        0 min,  0.001 sec (  0.828%)
 Dispersion                     ...        0 min,  0.000 sec (  0.117%)
 classical contributions        ...        0 min,  0.000 sec (  0.063%)
 integral evaluation            ...        0 min,  0.009 sec (  9.304%)
 iterations                     ...        0 min,  0.026 sec ( 28.043%)
 molecular gradient             ...        0 min,  0.057 sec ( 61.368%)
 printout                       ...        0 min,  0.000 sec (  0.234%)

         :::::::::::::::::::::::::::::::::::::::::::::::::::::
         ::                     SUMMARY                     ::
         :::::::::::::::::::::::::::::::::::::::::::::::::::::
         :: total energy             -33.408398136017 Eh    ::
         :: total w/o Gsasa/hb       -33.398422207130 Eh    ::
         :: gradient norm              0.082585013429 Eh/a0 ::
         :: HOMO-LUMO gap              2.110179904954 eV    ::
         ::.................................................::
         :: SCC energy               -33.670675438291 Eh    ::
         :: -> electrostatic           0.174331861714 Eh    ::
         :: -> Gsolv                  -0.079140524246 Eh    ::
         ::    -> Gelec               -0.069164595360 Eh    ::
         ::    -> Gsasa               -0.015616946557 Eh    ::
         ::    -> Ghb                 -0.001983261334 Eh    ::
         ::    -> Gshift               0.007624279005 Eh    ::
         :: repulsion energy           0.268993213408 Eh    ::
         :: dispersion energy         -0.006715911135 Eh    ::
         :: halogen bond corr.         0.000000000000 Eh    ::
         :: add. restraining           0.000000000000 Eh    ::
         :: total charge               1.000000000000 e     ::
         :::::::::::::::::::::::::::::::::::::::::::::::::::::

      ----------------------------------------------------------- 
     |                   =====================                   |
     |                        A N C O P T                        |
     |                   =====================                   |
     |               Approximate Normal Coordinate               |
     |                Rational Function Optimizer                |
      ----------------------------------------------------------- 

          ...................................................
          :                      SETUP                      :
          :.................................................:
          :   optimization level            normal          :
          :   max. optcycles                   200          :
          :   ANC micro-cycles                  20          :
          :   degrees of freedom                42          :
          :.................................................:
          :   RF solver                   davidson          :
          :   write xtbopt.log                true          :
          :   linear?                        false          :
          :   energy convergence         0.5000000E-05 Eh   :
          :   grad. convergence          0.1000000E-02 Eh/α :
          :   maximium RF displ.         1.0000000          :
          :   Hlow (freq-cutoff)         0.1000000E-01      :
          :   Hmax (freq-cutoff)         5.0000000          :
          :   S6 in model hess.         20.0000000          :
          ...................................................

generating ANC from model Hessian ...
Using Lindh-Hessian (1995)
 Shifting diagonal of input Hessian by   7.441174052488944E-003
 Lowest  eigenvalues of input Hessian
    0.000000    0.000000    0.000000    0.000000    0.000000    0.000000
    0.010000    0.012423    0.013153    0.014612    0.020430    0.028179
    0.034049    0.043381    0.047970    0.053903    0.083693    0.084592
 Highest eigenvalues
    1.583398    1.720764    1.862148    1.941054    2.064273    2.169134
 

........................................................................
.............................. CYCLE    1 ..............................
........................................................................
   1    -33.6706754 -0.336707E+02  0.380E-06    2.11       0.0  T
   2    -33.6706754 -0.994760E-13  0.174E-06    2.11   14403.9  T
   3    -33.6706754 -0.710543E-14  0.855E-07    2.11   29238.4  T
     SCC iter.                  ...        0 min,  0.002 sec
     gradient                   ...        0 min,  0.039 sec
 * total energy  :   -33.4083981 Eh     change       -0.1764278E-10 Eh
   gradient norm :     0.0825842 Eh/α   predicted     0.0000000E+00 (-100.00%)
   displ. norm   :     0.2928730 α      lambda       -0.9762933E-02
   maximum displ.:     0.1973980 α      in ANC's #3, #6, #10, ...

........................................................................
.............................. CYCLE    2 ..............................
........................................................................
   1    -33.6856017 -0.336856E+02  0.126E-01    2.34       0.0  T
   2    -33.6858327 -0.231040E-03  0.833E-02    2.24       1.0  T
   3    -33.6859094 -0.766478E-04  0.372E-02    2.27       1.0  T
   4    -33.6859085  0.880722E-06  0.110E-02    2.27       2.3  T
   5    -33.6859099 -0.138801E-05  0.146E-03    2.27      17.1  T
   6    -33.6859099 -0.187377E-07  0.683E-04    2.27      36.6  T
   7    -33.6859099 -0.175983E-08  0.258E-04    2.27      96.8  T
   8    -33.6859099 -0.234984E-09  0.458E-05    2.27     545.6  T
   9    -33.6859099 -0.970601E-11  0.136E-05    2.27    1836.2  T
     SCC iter.                  ...        0 min,  0.019 sec
     gradient                   ...        0 min,  0.033 sec
 * total energy  :   -33.4153386 Eh     change       -0.6940429E-02 Eh
   gradient norm :     0.0380546 Eh/α   predicted    -0.5300174E-02 ( -23.63%)
   displ. norm   :     0.3124621 α      lambda       -0.3601836E-02
   maximum displ.:     0.2812613 α      in ANC's #3, #6, #10, ...

........................................................................
.............................. CYCLE    3 ..............................
........................................................................
   1    -33.6943655 -0.336944E+02  0.109E-01    2.47       0.0  T
   2    -33.6945938 -0.228212E-03  0.703E-02    2.37       1.0  T
   3    -33.6946591 -0.653565E-04  0.293E-02    2.39       1.0  T
   4    -33.6946589  0.202250E-06  0.932E-03    2.39       2.7  T
   5    -33.6946595 -0.588287E-06  0.149E-03    2.39      16.8  T
   6    -33.6946595 -0.279688E-07  0.536E-04    2.39      46.6  T
   7    -33.6946595 -0.910440E-09  0.238E-04    2.39     105.0  T
   8    -33.6946595 -0.163205E-09  0.623E-05    2.39     401.1  T
   9    -33.6946595 -0.142251E-10  0.155E-05    2.39    1616.1  T
     SCC iter.                  ...        0 min,  0.009 sec
     gradient                   ...        0 min,  0.018 sec
 * total energy  :   -33.4173863 Eh     change       -0.2047760E-02 Eh
   gradient norm :     0.0124336 Eh/α   predicted    -0.1976739E-02 (  -3.47%)
   displ. norm   :     0.2115845 α      lambda       -0.6224819E-03
   maximum displ.:     0.2069646 α      in ANC's #3, #6, #2, ...

........................................................................
.............................. CYCLE    4 ..............................
........................................................................
   1    -33.6951131 -0.336951E+02  0.217E-02    2.42       0.0  T
   2    -33.6951212 -0.811688E-05  0.116E-02    2.40       2.2  T
   3    -33.6951234 -0.218409E-05  0.486E-03    2.41       5.1  T
   4    -33.6951235 -0.481795E-07  0.212E-03    2.40      11.8  T
   5    -33.6951235 -0.335100E-08  0.639E-04    2.40      39.1  T
   6    -33.6951235 -0.235861E-08  0.131E-04    2.40     191.4  T
   7    -33.6951235 -0.373888E-10  0.469E-05    2.40     533.1  T
     SCC iter.                  ...        0 min,  0.005 sec
     gradient                   ...        0 min,  0.017 sec
 * total energy  :   -33.4178897 Eh     change       -0.5033299E-03 Eh
   gradient norm :     0.0104238 Eh/α   predicted    -0.3251741E-03 ( -35.40%)
   displ. norm   :     0.2216001 α      lambda       -0.5502057E-03
   maximum displ.:     0.2170854 α      in ANC's #3, #2, #26, ...

........................................................................
.............................. CYCLE    5 ..............................
........................................................................
   1    -33.6954966 -0.336955E+02  0.233E-02    2.41       0.0  T
   2    -33.6955022 -0.563160E-05  0.825E-03    2.40       3.0  T
   3    -33.6955029 -0.697320E-06  0.493E-03    2.40       5.1  T
   4    -33.6955031 -0.139654E-06  0.188E-03    2.40      13.3  T
   5    -33.6955031 -0.178140E-09  0.725E-04    2.40      34.5  T
   6    -33.6955031 -0.408004E-08  0.941E-05    2.40     265.7  T
   7    -33.6955031 -0.390088E-10  0.470E-05    2.40     532.2  T
     SCC iter.                  ...        0 min,  0.005 sec
     gradient                   ...        0 min,  0.017 sec
 * total energy  :   -33.4183235 Eh     change       -0.4338691E-03 Eh
   gradient norm :     0.0055811 Eh/α   predicted    -0.2886081E-03 ( -33.48%)
   displ. norm   :     0.2181128 α      lambda       -0.3446474E-03
   maximum displ.:     0.2111567 α      in ANC's #3, #2, #6, ...

........................................................................
.............................. CYCLE    6 ..............................
........................................................................
   1    -33.6958968 -0.336959E+02  0.177E-02    2.41       0.0  T
   2    -33.6959017 -0.490644E-05  0.713E-03    2.40       3.5  T
   3    -33.6959024 -0.752255E-06  0.334E-03    2.40       7.5  T
   4    -33.6959025 -0.811991E-07  0.143E-03    2.40      17.5  T
   5    -33.6959025 -0.376090E-10  0.518E-04    2.40      48.3  T
   6    -33.6959025 -0.166094E-08  0.967E-05    2.40     258.6  T
   7    -33.6959025 -0.444729E-10  0.359E-05    2.40     696.1  T
     SCC iter.                  ...        0 min,  0.005 sec
     gradient                   ...        0 min,  0.017 sec
 * total energy  :   -33.4186042 Eh     change       -0.2806510E-03 Eh
   gradient norm :     0.0048221 Eh/α   predicted    -0.1805182E-03 ( -35.68%)
   displ. norm   :     0.1773515 α      lambda       -0.1984322E-03
   maximum displ.:     0.1692482 α      in ANC's #3, #2, #6, ...

........................................................................
.............................. CYCLE    7 ..............................
........................................................................
   1    -33.6964287 -0.336964E+02  0.984E-03    2.40       0.0  T
   2    -33.6964305 -0.173234E-05  0.429E-03    2.40       5.8  T
   3    -33.6964307 -0.208987E-06  0.195E-03    2.40      12.8  T
   4    -33.6964307 -0.239192E-07  0.964E-04    2.40      25.9  T
   5    -33.6964307 -0.596565E-09  0.284E-04    2.40      88.1  T
   6    -33.6964307 -0.475879E-09  0.617E-05    2.40     405.0  T
   7    -33.6964307 -0.349871E-10  0.204E-05    2.40    1222.9  T
     SCC iter.                  ...        0 min,  0.005 sec
     gradient                   ...        0 min,  0.017 sec
 * total energy  :   -33.4187625 Eh     change       -0.1582986E-03 Eh
   gradient norm :     0.0040744 Eh/α   predicted    -0.1023378E-03 ( -35.35%)
   displ. norm   :     0.1326509 α      lambda       -0.1001870E-03
   maximum displ.:     0.1251510 α      in ANC's #3, #2, #6, ...

........................................................................
.............................. CYCLE    8 ..............................
........................................................................
   1    -33.6968994 -0.336969E+02  0.545E-03    2.40       0.0  T
   2    -33.6968997 -0.298261E-06  0.237E-03    2.40      10.5  T
   3    -33.6968998 -0.155715E-07  0.126E-03    2.40      19.8  T
   4    -33.6968998 -0.198241E-08  0.412E-04    2.40      60.7  T
   5    -33.6968998 -0.277019E-09  0.861E-05    2.40     290.3  T
   6    -33.6968998 -0.343405E-10  0.254E-05    2.40     984.0  T
     SCC iter.                  ...        0 min,  0.004 sec
     gradient                   ...        0 min,  0.017 sec
 * total energy  :   -33.4188394 Eh     change       -0.7694120E-04 Eh
   gradient norm :     0.0029247 Eh/α   predicted    -0.5097586E-04 ( -33.75%)
   displ. norm   :     0.0887595 α      lambda       -0.4076170E-04
   maximum displ.:     0.0833366 α      in ANC's #3, #2, #6, ...

........................................................................
.............................. CYCLE    9 ..............................
........................................................................
   1    -33.6971363 -0.336971E+02  0.443E-03    2.39       0.0  T
   2    -33.6971366 -0.218641E-06  0.198E-03    2.40      12.6  T
   3    -33.6971366 -0.443193E-07  0.104E-03    2.40      24.0  T
   4    -33.6971366 -0.154493E-08  0.327E-04    2.40      76.3  T
   5    -33.6971366 -0.951196E-09  0.596E-05    2.40     419.7  T
   6    -33.6971366 -0.119442E-10  0.230E-05    2.40    1085.5  T
     SCC iter.                  ...        0 min,  0.004 sec
     gradient                   ...        0 min,  0.017 sec
 * total energy  :   -33.4188698 Eh     change       -0.3037196E-04 Eh
   gradient norm :     0.0017978 Eh/α   predicted    -0.2054291E-04 ( -32.36%)
   displ. norm   :     0.0806019 α      lambda       -0.1400728E-04
   maximum displ.:     0.0751911 α      in ANC's #3, #2, #6, ...

........................................................................
.............................. CYCLE   10 ..............................
........................................................................
   1    -33.6972528 -0.336973E+02  0.541E-03    2.39       0.0  T
   2    -33.6972533 -0.492626E-06  0.251E-03    2.40       9.9  T
   3    -33.6972534 -0.110965E-06  0.912E-04    2.40      27.4  T
   4    -33.6972534 -0.171490E-08  0.446E-04    2.40      56.0  T
   5    -33.6972534 -0.303061E-09  0.998E-05    2.40     250.5  T
   6    -33.6972534 -0.674518E-10  0.218E-05    2.40    1145.1  T
     SCC iter.                  ...        0 min,  0.004 sec
     gradient                   ...        0 min,  0.017 sec
 * total energy  :   -33.4188824 Eh     change       -0.1261674E-04 Eh
   gradient norm :     0.0007856 Eh/α   predicted    -0.7023386E-05 ( -44.33%)
   displ. norm   :     0.0241815 α      lambda       -0.1977100E-05
   maximum displ.:     0.0210673 α      in ANC's #3, #5, #4, ...

........................................................................
.............................. CYCLE   11 ..............................
........................................................................
   1    -33.6972269 -0.336972E+02  0.154E-03    2.39       0.0  T
   2    -33.6972270 -0.379248E-07  0.734E-04    2.40      34.1  T
   3    -33.6972270 -0.682272E-08  0.270E-04    2.40      92.6  T
   4    -33.6972270 -0.106546E-09  0.147E-04    2.40     170.4  T
   5    -33.6972270 -0.750617E-10  0.367E-05    2.40     680.6  T
     SCC iter.                  ...        0 min,  0.003 sec
     gradient                   ...        0 min,  0.017 sec
 * total energy  :   -33.4188843 Eh     change       -0.1932129E-05 Eh
   gradient norm :     0.0004307 Eh/α   predicted    -0.9888758E-06 ( -48.82%)
   displ. norm   :     0.0249610 α      lambda       -0.1467195E-05
   maximum displ.:     0.0185902 α      in ANC's #3, #4, #2, ...

   *** GEOMETRY OPTIMIZATION CONVERGED AFTER 11 ITERATIONS ***

------------------------------------------------------------------------
 total energy gain   :        -0.0104862 Eh       -6.5802 kcal/mol
 total RMSD          :         0.4095382 a0        0.2167 Å
 total power (kW/mol):        -2.5028648 (step)  -64.0858 (real)
------------------------------------------------------------------------

 ANCopt (total)                0 d,  0 h,  0 min,  0.430 sec
 optimizer setup                ...        0 min,  0.010 sec (  2.216%)
 model hessian                  ...        0 min,  0.002 sec (  0.424%)
 ANC generation                 ...        0 min,  0.000 sec (  0.096%)
 coordinate transformation      ...        0 min,  0.000 sec (  0.030%)
 single point calculation       ...        0 min,  0.402 sec ( 93.636%)
 optimization log               ...        0 min,  0.013 sec (  2.963%)
 hessian update                 ...        0 min,  0.000 sec (  0.031%)
 rational function              ...        0 min,  0.002 sec (  0.390%)

================
 final structure:
================
16
 xtb: 6.5.1 (579679a)
C            3.28877840933237       -0.13274584603945        0.70354129508745
O            1.87980565212489       -0.02707565690838        0.45425222197463
C            1.34153203335006       -0.22321235966407       -0.68771514705656
Cl           2.23253063880431       -0.62759259739382       -2.03153966908690
C           -0.06997892751863       -0.08291633235473       -0.78098045751738
N           -0.82474974851252       -0.24125079879717       -1.85166778366141
N           -2.07587673082800       -0.01779034735871       -1.48516928399723
C           -2.06053042518200        0.27321713405787       -0.19459534207844
C           -3.21314544771066        0.59138811054355        0.66282579455433
O           -0.82847199387287        0.24487459458302        0.28746640049255
H            3.42035289256593        0.11762926268990        1.75388749291256
H            3.61559641300311       -1.15260127040183        0.49726303238122
H            3.82426604711668        0.56640317592884        0.06051515642155
H           -3.82962471674677       -0.30064232038721        0.78947186481284
H           -3.82814705215958        1.35481371302504        0.18613151298031
H           -2.87233904376632        0.93506453847712        1.63631391178052
 
 Bond Distances (Angstroems)
 ---------------------------
C1-O2=1.4348         C1-H11=1.0878        C1-H12=1.0906        C1-H13=1.0904        O2-C1=1.4348         O2-C3=1.2776         
C3-O2=1.2776         C3-Cl4=1.6623        C3-C5=1.4215         Cl4-C3=1.6623        C5-C3=1.4215         C5-N6=1.3195         
C5-O10=1.3507        N6-C5=1.3195         N6-N7=1.3227         N7-N6=1.3227         N7-C8=1.3231         C8-N7=1.3231         
C8-C9=1.4714         C8-O10=1.3233        C9-C8=1.4714         C9-H14=1.0917        C9-H15=1.0901        C9-H16=1.0872        
O10-C5=1.3507        O10-C8=1.3233        H11-C1=1.0878        H12-C1=1.0906        H13-C1=1.0904        H14-C9=1.0917        
H15-C9=1.0901        H16-C9=1.0872        
 C  H  Rav=1.0896 sigma=0.0016  Rmin=1.0872  Rmax=1.0917     6
 C  C  Rav=1.4464 sigma=0.0249  Rmin=1.4215  Rmax=1.4714     2
 N  C  Rav=1.3213 sigma=0.0018  Rmin=1.3195  Rmax=1.3231     2
 N  N  Rav=1.3227 sigma=0.0000  Rmin=1.3227  Rmax=1.3227     1
 O  C  Rav=1.3466 sigma=0.0572  Rmin=1.2776  Rmax=1.4348     4
 Cl C  Rav=1.6623 sigma=0.0000  Rmin=1.6623  Rmax=1.6623     1
 
 selected bond angles (degree)
 --------------------
H11-C1-O2=105.64               H12-C1-O2=109.29               H12-C1-H11=111.20              H13-C1-O2=109.42               
H13-C1-H11=111.25              H13-C1-H12=109.93              C3-O2-C1=123.90                Cl4-C3-O2=122.28               
C5-C3-O2=117.51                C5-C3-Cl4=120.21               N6-C5-C3=127.54                O10-C5-C3=121.98               
O10-C5-N6=110.47               N7-N6-C5=107.21                C8-N7-N6=107.25                C9-C8-N7=127.37                
O10-C8-N7=111.19               O10-C8-C9=121.45               H14-C9-C8=109.47               H15-C9-C8=109.79               
H15-C9-H14=107.72              H16-C9-C8=110.16               H16-C9-H14=109.36              H16-C9-H15=110.31              
C8-O10-C5=103.88               
 
 selected dihedral angles (degree)
 ---------------------------------
C3-O2-C1-H11=178.51           C3-O2-C1-H12=298.23           C3-O2-C1-H13= 58.65           Cl4-C3-O2-C1=359.93           
C5-C3-O2-C1=179.96            N6-C5-C3-O2=180.16            N6-C5-C3-Cl4=  0.19           O10-C5-C3-O2=  0.00           
O10-C5-C3-Cl4=180.03          N7-N6-C5-C3=179.84            N7-N6-C5-O10=  0.00           C8-N7-N6-C5=  0.00            
C9-C8-N7-N6=180.27            O10-C8-N7-N6=  0.00           H14-C9-C8-N7= 68.44           H14-C9-C8-O10=248.70          
H15-C9-C8-N7=310.39           H15-C9-C8-O10=130.65          H16-C9-C8-N7=188.72           H16-C9-C8-O10=  8.98          
C8-O10-C5-C3=180.16           C8-O10-C5-N6=  0.03           C5-O10-C8-N7=359.97           C5-O10-C8-C9=179.74           
           -------------------------------------------------
          |                Final Singlepoint                |
           -------------------------------------------------

          ...................................................
          :                      SETUP                      :
          :.................................................:
          :  # basis functions                  58          :
          :  # atomic orbitals                  57          :
          :  # shells                           33          :
          :  # electrons                        54          :
          :  # halogen bonds                     4          :
          :  max. iterations                   250          :
          :  Hamiltonian                  GFN1-xTB          :
          :  restarted?                      false          :
          :  GBSA solvation                   true          :
          :  PC potential                    false          :
          :  electronic temp.          300.0000000     K    :
          :  accuracy                    1.0000000          :
          :  -> integral cutoff          0.2500000E+02      :
          :  -> integral neglect         0.1000000E-07      :
          :  -> SCF convergence          0.1000000E-05 Eh   :
          :  -> wf. convergence          0.2000000E-04 e    :
          :  Broyden damping             0.4000000          :
          ...................................................

 iter      E             dE          RMSdq      gap      omega  full diag
   1    -33.6972270 -0.336972E+02  0.867E-06    2.40       0.0  T
   2    -33.6972270 -0.156319E-12  0.475E-06    2.40    5268.2  T
   3    -33.6972270  0.000000E+00  0.151E-06    2.40   16577.1  T

   *** convergence criteria satisfied after 3 iterations ***

         #    Occupation            Energy/Eh            Energy/eV
      -------------------------------------------------------------
         1        2.0000           -1.0219139             -27.8077
       ...           ...                  ...                  ...
        21        2.0000           -0.5584741             -15.1969
        22        2.0000           -0.5573642             -15.1667
        23        2.0000           -0.5450945             -14.8328
        24        2.0000           -0.5336416             -14.5211
        25        2.0000           -0.5312280             -14.4555
        26        2.0000           -0.5019006             -13.6574
        27        2.0000           -0.4996138             -13.5952 (HOMO)
        28                         -0.4115777             -11.1996 (LUMO)
        29                         -0.3049560              -8.2983
        30                         -0.2839689              -7.7272
        31                         -0.2656566              -7.2289
        32                         -0.1736584              -4.7255
       ...                                ...                  ...
        57                          0.5205886              14.1659
      -------------------------------------------------------------
                  HL-Gap            0.0880361 Eh            2.3956 eV
             Fermi-level           -0.4555958 Eh          -12.3974 eV

 SCC (total)                   0 d,  0 h,  0 min,  0.028 sec
 SCC setup                      ...        0 min,  0.001 sec (  1.825%)
 Dispersion                     ...        0 min,  0.000 sec (  0.242%)
 classical contributions        ...        0 min,  0.000 sec (  0.091%)
 integral evaluation            ...        0 min,  0.008 sec ( 29.562%)
 iterations                     ...        0 min,  0.002 sec (  7.506%)
 molecular gradient             ...        0 min,  0.017 sec ( 60.030%)
 printout                       ...        0 min,  0.000 sec (  0.603%)

         :::::::::::::::::::::::::::::::::::::::::::::::::::::
         ::                     SUMMARY                     ::
         :::::::::::::::::::::::::::::::::::::::::::::::::::::
         :: total energy             -33.418884335537 Eh    ::
         :: total w/o Gsasa/hb       -33.408677988733 Eh    ::
         :: gradient norm              0.000433313246 Eh/a0 ::
         :: HOMO-LUMO gap              2.395583507643 eV    ::
         ::.................................................::
         :: SCC energy               -33.697226958467 Eh    ::
         :: -> electrostatic           0.176763757977 Eh    ::
         :: -> Gsolv                  -0.080413454654 Eh    ::
         ::    -> Gelec               -0.070207107849 Eh    ::
         ::    -> Gsasa               -0.015774251337 Eh    ::
         ::    -> Ghb                 -0.002056374472 Eh    ::
         ::    -> Gshift               0.007624279005 Eh    ::
         :: repulsion energy           0.285075220767 Eh    ::
         :: dispersion energy         -0.006732597837 Eh    ::
         :: halogen bond corr.         0.000000000000 Eh    ::
         :: add. restraining           0.000000000000 Eh    ::
         :: total charge               1.000000000000 e     ::
         :::::::::::::::::::::::::::::::::::::::::::::::::::::

           -------------------------------------------------
          |                Property Printout                |
           -------------------------------------------------

    * Orbital Energies and Occupations

         #    Occupation            Energy/Eh            Energy/eV
      -------------------------------------------------------------
         1        2.0000           -1.0219139             -27.8077
       ...           ...                  ...                  ...
        15        2.0000           -0.6305333             -17.1577
        16        2.0000           -0.6009514             -16.3527
        17        2.0000           -0.5854537             -15.9310
        18        2.0000           -0.5810563             -15.8113
        19        2.0000           -0.5729295             -15.5902
        20        2.0000           -0.5594962             -15.2247
        21        2.0000           -0.5584741             -15.1969
        22        2.0000           -0.5573642             -15.1667
        23        2.0000           -0.5450945             -14.8328
        24        2.0000           -0.5336416             -14.5211
        25        2.0000           -0.5312280             -14.4555
        26        2.0000           -0.5019006             -13.6574
        27        2.0000           -0.4996138             -13.5952 (HOMO)
        28                         -0.4115777             -11.1996 (LUMO)
        29                         -0.3049560              -8.2983
        30                         -0.2839689              -7.7272
        31                         -0.2656566              -7.2289
        32                         -0.1736584              -4.7255
        33                         -0.1620905              -4.4107
        34                         -0.1477950              -4.0217
        35                         -0.1462395              -3.9794
        36                         -0.1453865              -3.9562
        37                         -0.1084043              -2.9498
        38                         -0.1022865              -2.7834
       ...                                ...                  ...
        57                          0.5205886              14.1659
      -------------------------------------------------------------
                  HL-Gap            0.0880361 Eh            2.3956 eV
             Fermi-level           -0.4555958 Eh          -12.3974 eV

  Mulliken/CM5 charges         n(s)   n(p)   n(d)
     1C     0.14278  0.02028   1.002  2.855  0.000
     2O    -0.30848 -0.39967   1.658  4.651  0.000
     3C     0.40764  0.44319   1.040  2.553  0.000
     4Cl    0.17905  0.18308   1.933  4.902 -0.014
     5C     0.33946  0.45684   0.973  2.688  0.000
     6N    -0.15583 -0.25697   1.561  3.595  0.000
     7N    -0.20181 -0.30414   1.553  3.649  0.000
     8C     0.42514  0.52980   1.027  2.548  0.000
     9C    -0.11139 -0.24861   1.017  3.094  0.000
    10O    -0.30585 -0.35914   1.683  4.623  0.000
    11H     0.10446  0.16496   0.896  0.000  0.000
    12H     0.09017  0.15044   0.910  0.000  0.000
    13H     0.08861  0.14900   0.911  0.000  0.000
    14H     0.10797  0.16221   0.892  0.000  0.000
    15H     0.10248  0.15719   0.898  0.000  0.000
    16H     0.09560  0.15155   0.904  0.000  0.000

Wiberg/Mayer (AO) data.
largest (>0.10) Wiberg bond orders for each atom

 ---------------------------------------------------------------------------
     #   Z sym  total        # sym  WBO       # sym  WBO       # sym  WBO
 ---------------------------------------------------------------------------
     1   6 C    3.807 --    11 H    0.977    13 H    0.966    12 H    0.964
                             2 O    0.847
     2   8 O    2.367 --     3 C    1.310     1 C    0.847     4 Cl   0.106
     3   6 C    3.879 --     2 O    1.310     4 Cl   1.220     5 C    1.176
     4  17 Cl   1.462 --     3 C    1.220     2 O    0.106
     5   6 C    3.889 --     6 N    1.455     3 C    1.176    10 O    1.041
     6   7 N    3.021 --     5 C    1.455     7 N    1.348
     7   7 N    2.993 --     8 C    1.449     6 N    1.348
     8   6 C    3.841 --     7 N    1.449    10 O    1.139     9 C    1.048
     9   6 C    3.973 --     8 C    1.048    16 H    0.977    15 H    0.953
                            14 H    0.940
    10   8 O    2.365 --     8 C    1.139     5 C    1.041
    11   1 H    0.997 --     1 C    0.977
    12   1 H    0.995 --     1 C    0.964
    13   1 H    0.995 --     1 C    0.966
    14   1 H    0.983 --     9 C    0.940
    15   1 H    0.986 --     9 C    0.953
    16   1 H    0.991 --     9 C    0.977
 ---------------------------------------------------------------------------

Topologies differ in total number of bonds
Writing topology from bond orders to xtbtopo.mol

 dipole moment from electron density (au)
     X       Y       Z   
   2.2150  -0.0580   0.2795  total (Debye):    5.677

           -------------------------------------------------
          |                Geometry Summary                 |
           -------------------------------------------------

      molecular mass/u    :      161.5664778
   center of mass at/Å    :        0.2915655      -0.0974681      -0.6529738
  moments of inertia/u·Å² :        0.1966267E+03   0.7281592E+03   0.9184438E+03
rotational constants/cm⁻¹ :        0.8573421E-01   0.2315103E-01   0.1835456E-01

 * 15 selected distances

     #   Z          #   Z                                           value/Å
     1   6 C        2   8 O                                       1.4347529
     2   8 O        3   6 C                                       1.2776141
     3   6 C        4  17 Cl                                      1.6623077 (max)
     3   6 C        5   6 C                                       1.4215291
     5   6 C        6   7 N                                       1.3195152
     7   7 N        8   6 C                                       1.3230655
     8   6 C        9   6 C                                       1.4713686
     5   6 C       10   8 O                                       1.3506804
     8   6 C       10   8 O                                       1.3233122
     1   6 C       11   1 H                                       1.0877623
     1   6 C       12   1 H                                       1.0906264
     1   6 C       13   1 H                                       1.0904307
     9   6 C       14   1 H                                       1.0916980
     9   6 C       15   1 H                                       1.0900841
     9   6 C       16   1 H                                       1.0871715 (min)

 * 5 distinct bonds (by element types)

   Z      Z             #   av. dist./Å        max./Å        min./Å
   1 H    6 C           6     1.0896288     1.0916980     1.0871715
   6 C    6 C           2     1.4464488     1.4713686     1.4215291
   6 C    7 N           2     1.3212904     1.3230655     1.3195152
   6 C    8 O           4     1.3465899     1.4347529     1.2776141
   6 C   17 Cl          1     1.6623077     1.6623077     1.6623077


optimized geometry written to: xtbopt.xyz


           -------------------------------------------------
          | TOTAL ENERGY              -33.418884335537 Eh   |
          | GRADIENT NORM               0.000433313246 Eh/α |
          | HOMO-LUMO GAP               2.395583507643 eV   |
           -------------------------------------------------

------------------------------------------------------------------------
 * finished run on 2023/06/20 at 14:55:31.682     
------------------------------------------------------------------------
 total:
 * wall-time:     0 d,  0 h,  0 min,  0.651 sec
 *  cpu-time:     0 d,  0 h,  0 min,  0.429 sec
 * ratio c/w:     0.658 speedup
 SCF:
 * wall-time:     0 d,  0 h,  0 min,  0.093 sec
 *  cpu-time:     0 d,  0 h,  0 min,  0.036 sec
 * ratio c/w:     0.389 speedup
 ANC optimizer:
 * wall-time:     0 d,  0 h,  0 min,  0.471 sec
 *  cpu-time:     0 d,  0 h,  0 min,  0.373 sec
 * ratio c/w:     0.791 speedup

