47
 energy: -79.523911973490 gnorm: 0.000336519036 xtb: 6.5.1 (579679a)
C           -3.66107154712256       -2.14892181387183       -1.12094343303753
N           -2.50967830342332       -1.23754105474777       -1.03872667441008
C           -2.34314749238712       -0.29539148487291       -0.08474525660493
C           -3.53759854354743        0.23901669965601        0.72095887836658
C           -3.77776652940800       -0.58987888078818        1.99098957783608
C           -4.82253724530858        0.30982540001998       -0.13253869592382
N           -3.22432178905883        1.60891959193834        1.11166708763365
N           -1.12431662861065        0.23400646676467        0.06320602078922
C           -0.72295882681330        0.91638108413502        1.30848393330082
C           -0.10768809546459        0.06992711764859       -0.87320950977634
C            1.12846955061567        0.94334840292216       -0.77325088783956
O            1.06751636929779        2.09237914540176       -0.36400328815863
N            2.24514130165159        0.35950088454087       -1.21389689900585
C            3.51826641419715        1.07767670015006       -1.24414889586080
C            4.40390452107505        0.65657886644017       -0.09229187506982
C            3.95670864360656        0.80005466827206        1.22008473242126
C            4.76178728506213        0.42364107087173        2.28474750114575
C            6.01600474390764       -0.09193343077108        2.00859855073274
F            6.80094949037883       -0.45772530664998        3.03248048792620
C            6.49081053989044       -0.24735374987742        0.71918116477964
C            5.67005458906490        0.13130266955337       -0.33477411793857
C           -0.33064913590209       -0.75307652463171       -1.93037429271424
O            0.56029257014768       -0.94087619880641       -2.90717311670468
C           -1.55605403175491       -1.52146803958782       -2.02455764246714
O           -1.74915318668855       -2.35367463025316       -2.88752306321697
H           -3.27134713211918       -3.12512569621255       -1.41030714280079
H           -4.14782042764034       -2.23104701757513       -0.15832841796487
H           -4.35269210509543       -1.80348680165789       -1.88701218564754
H           -2.94486229947852       -0.48735986256985        2.68400194319204
H           -3.90452470944448       -1.64401253824344        1.75516747649535
H           -4.68228929763334       -0.22944537513094        2.47805459602851
H           -4.59065502767935        0.55231390269615       -1.16740131238588
H           -5.40417643957709       -0.60661289536730       -0.09149247482711
H           -5.44434378985972        1.10598277874316        0.27490642668941
H           -3.88164974410183        1.90000892346267        1.82180659073892
H           -3.33581464908898        2.22069184838773        0.31336206676656
H           -0.79299516091275        1.99443101596295        1.18382921691652
H            0.30526117063420        0.63122468455337        1.52217441757133
H           -1.35885065404714        0.59165322057834        2.12183030499723
H            2.24305797984070       -0.59834197328448       -1.51807997236206
H            3.29471962016332        2.14765422097658       -1.18260716377263
H            4.00233710533270        0.86745640147785       -2.20094178114433
H            2.96924226427348        1.20324948491709        1.41068704514255
H            4.42493839284167        0.52577456508049        3.30795625250109
H            7.47696594141573       -0.65755338173494        0.54390889473250
H            6.02078696708200        0.01518948632661       -1.35339856247523
H            0.22175233171514       -1.59736264484640       -3.54436950460155
