42
 energy: -82.982790875221 gnorm: 0.000986739841 xtb: 6.5.1 (579679a)
C           -6.70270027285091        0.26570750542926        0.34548146491227
O           -5.37921562833624        0.46393928847748       -0.16897397162212
C           -4.40142678130868       -0.19217918513287        0.42696773807447
O           -4.54187637060596       -0.94286027275454        1.35847293967737
C           -3.05272694824524        0.08756183946591       -0.20858580580051
C           -2.79402824470968        1.35673698103968       -0.94903300187487
O           -3.41252185866639        2.37552925836369       -0.77841464115418
C           -1.63303602355636        1.25118384781357       -1.93983208499113
O           -1.53569299297457        1.95568028400805       -2.92378542012678
N           -0.73473013043414        0.29448680209323       -1.62573884794148
C           -0.83316904712623       -0.67324947135423       -0.54653556414377
C           -0.43944377118578       -2.04350613328887       -1.11213714572083
C            0.07554136364968       -0.23639231064838        0.65993155196051
C           -0.00875290521238       -1.27378389141328        1.78298635128912
C           -0.33727321875909        1.14727697064914        1.16926114616553
N            1.44326393101225       -0.16159633938508        0.14261366326840
C            2.51324113874483        0.12585193279716        0.92084212680707
O            2.49568994371312        0.26657002919761        2.12919640027281
C            3.74377551065017        0.23648608390261        0.09853897552842
N            3.81518302871249        0.13342229847558       -1.19495406118818
N            5.12408699808169        0.30138216338248       -1.53020179672112
C            5.76869198495248        0.49796355800492       -0.41917589686564
C            7.21883319849355        0.73323699061605       -0.24498201031850
O            4.95114874759621        0.46986485838851        0.64326965360204
N           -2.15551525175594       -0.80046236793597       -0.03038625891859
H           -6.76052011784327        0.63707920901241        1.37052906505989
H           -7.37283661859026        0.82621391202839       -0.30235390377882
H           -6.95231029830286       -0.79701821728503        0.32851517710768
H            0.01645313977778        0.16470311018753       -2.28428395729414
H           -1.01593961818560       -2.23265020703021       -2.01550864540965
H            0.62026777779248       -2.06879563151667       -1.35263269509823
H           -0.66477442543591       -2.81983755084402       -0.38491216721773
H            0.49078511518570       -0.89665637521183        2.67371692491377
H           -1.05347628008739       -1.46917591400105        2.01962456071229
H            0.47182779324566       -2.20311929760842        1.48471288717283
H            0.32628013678262        1.44109696437936        1.98085109889302
H           -1.35757458917910        1.12297305109237        1.54775302016069
H           -0.26350140678823        1.88482354686372        0.37179758469510
H            1.58611514401553       -0.14283256295125       -0.85474048339135
H            7.39242915708209        1.75587949899102        0.09295514120457
H            7.61740419601379        0.05569712458290        0.50994888062809
H            7.73202549464246        0.57415461911737       -1.19079899252730
