      -----------------------------------------------------------      
     |                   =====================                   |     
     |                           x T B                           |     
     |                   =====================                   |     
     |                         S. Grimme                         |     
     |          Mulliken Center for Theoretical Chemistry        |     
     |                    University of Bonn                     |     
      -----------------------------------------------------------      

   * xtb version 6.5.1 (579679a) compiled by 'ehlert@majestix' on 2022-07-11

   xtb is free software: you can redistribute it and/or modify it under
   the terms of the GNU Lesser General Public License as published by
   the Free Software Foundation, either version 3 of the License, or
   (at your option) any later version.
   
   xtb is distributed in the hope that it will be useful,
   but WITHOUT ANY WARRANTY; without even the implied warranty of
   MERCHANTABILITY or FITNESS FOR A PARTICULAR PURPOSE.  See the
   GNU Lesser General Public License for more details.
   
   Cite this work as:
   * C. Bannwarth, E. Caldeweyher, S. Ehlert, A. Hansen, P. Pracht,
     J. Seibert, S. Spicher, S. Grimme, WIREs Comput. Mol. Sci., 2020, 11,
     e01493. DOI: 10.1002/wcms.1493
   
   for GFN2-xTB:
   * C. Bannwarth, S. Ehlert and S. Grimme., J. Chem. Theory Comput., 2019,
     15, 1652-1671. DOI: 10.1021/acs.jctc.8b01176
   for GFN1-xTB:
   * S. Grimme, C. Bannwarth, P. Shushkov, J. Chem. Theory Comput., 2017,
     13, 1989-2009. DOI: 10.1021/acs.jctc.7b00118
   for GFN0-xTB:
   * P. Pracht, E. Caldeweyher, S. Ehlert, S. Grimme, ChemRxiv, 2019, preprint.
     DOI: 10.26434/chemrxiv.8326202.v1
   for GFN-FF:
   * S. Spicher and S. Grimme, Angew. Chem. Int. Ed., 2020, 59, 15665-15673.
     DOI: 10.1002/anie.202004239
   
   for ALPB and GBSA implicit solvation:
   * S. Ehlert, M. Stahn, S. Spicher, S. Grimme, J. Chem. Theory Comput.,
     2021, 17, 4250-4261. DOI: 10.1021/acs.jctc.1c00471
   
   for DFT-D4:
   * E. Caldeweyher, C. Bannwarth and S. Grimme, J. Chem. Phys., 2017,
     147, 034112. DOI: 10.1063/1.4993215
   * E. Caldeweyher, S. Ehlert, A. Hansen, H. Neugebauer, S. Spicher,
     C. Bannwarth and S. Grimme, J. Chem. Phys., 2019, 150, 154122.
     DOI: 10.1063/1.5090222
   * E. Caldeweyher, J.-M. Mewes, S. Ehlert and S. Grimme, Phys. Chem. Chem. Phys.
     2020, 22, 8499-8512. DOI: 10.1039/D0CP00502A
   
   for sTDA-xTB:
   * S. Grimme and C. Bannwarth, J. Chem. Phys., 2016, 145, 054103.
     DOI: 10.1063/1.4959605
   
   in the mass-spec context:
   * V. Asgeirsson, C. Bauer and S. Grimme, Chem. Sci., 2017, 8, 4879.
     DOI: 10.1039/c7sc00601b
   * J. Koopman and S. Grimme, ACS Omega 2019, 4, 12, 15120-15133.
     DOI: 10.1021/acsomega.9b02011
   
   for metadynamics refer to:
   * S. Grimme, J. Chem. Theory Comput., 2019, 155, 2847-2862
     DOI: 10.1021/acs.jctc.9b00143
   
   for SPH calculations refer to:
   * S. Spicher and S. Grimme, J. Chem. Theory Comput., 2021, 17, 1701-1714
     DOI: 10.1021/acs.jctc.0c01306
   
   with help from (in alphabetical order)
   P. Atkinson, C. Bannwarth, F. Bohle, G. Brandenburg, E. Caldeweyher
   M. Checinski, S. Dohm, S. Ehlert, S. Ehrlich, I. Gerasimov, C. Hölzer
   A. Katbashev, J. Koopman, C. Lavigne, S. Lehtola, F. März, M. Müller,
   F. Musil, H. Neugebauer, J. Pisarek, C. Plett, P. Pracht, F. Pultar,
   J. Seibert, P. Shushkov, S. Spicher, M. Stahn, M. Steiner, T. Strunk,
   J. Stückrath, T. Rose, and J. Unsleber
   
 * started run on 2023/06/20 at 14:53:17.131     

           -------------------------------------------------
          |                Calculation Setup                |
           -------------------------------------------------

          program call               : /lustre/hpc/kemi/ree/PhD/git/ReactivityQM/dep/xtb-6.5.1/bin/xtb --gfn 1 /lustre/hpc/kemi/ree/PhD/git/ReactivityQM/calculations/R01/reac01prodE03/conf06/R01_reac01prodE03_conf06_gfn1.xyz --opt --vfukui --chrg -1 --uhf 0 --alpb DMSO
          hostname                   : node312
          coordinate file            : /lustre/hpc/kemi/ree/PhD/git/ReactivityQM/calculations/R01/reac01prodE03/conf06/R01_reac01prodE03_conf06_gfn1.xyz
          omp threads                :                     1

   ID    Z sym.   atoms
    1    6 C      1, 3, 5, 6, 9, 10
    2    8 O      2, 4, 11
    3    7 N      7, 8
    4    1 H      12-20

           -------------------------------------------------
          |                 G F N 1 - x T B                 |
           -------------------------------------------------

        Reference                      10.1021/acs.jctc.7b00118
      * Hamiltonian:
        H0-scaling (s, p, d)           1.850000    2.250000    2.000000
        zeta-weighting                 0.000000
      * Dispersion:
        s8                             2.400000
        a1                             0.630000
        a2                             5.000000
        s9                             0.000000
      * Repulsion:
        kExp                           1.500000
        rExp                           1.000000
      * Coulomb:
        alpha                          2.000000
        third order                    atomic
        anisotropic                    false
      * Halogen bond correction:
        rad-scale                      1.300000
        damping                        0.440000

      * Solvation model:               ALPB
        Solvent                        DMSO
        Parameter file                 internal GFN1-xTB/ALPB
        Dielectric constant                4.6680E+01
        Reference state                gsolv [1 M gas/solution]
        Free energy shift                  7.6243E-03 Eh       4.7843E+00 kcal/mol
        Temperature                        2.9815E+02 K
        Density                            1.1000E+00 kg/L
        Solvent mass                       7.8130E+01 g/mol
        Interaction kernel             P16
        Born radius scaling (c1)           1.7672E+00
        Born radii integrator          GBOBC
        Born offset                        0.0000E+00 a0       0.0000E+00 AA
        H-bond correction              true
        Ion screening                  false
        Surface tension                    1.0000E-05 Eh       1.5569E+01 dyn/cm
        Grid points                               230 per atom

          ...................................................
          :                      SETUP                      :
          :.................................................:
          :  # basis functions                  62          :
          :  # atomic orbitals                  62          :
          :  # shells                           40          :
          :  # electrons                        62          :
          :  # halogen bonds                     0          :
          :  max. iterations                   250          :
          :  Hamiltonian                  GFN1-xTB          :
          :  restarted?                      false          :
          :  GBSA solvation                   true          :
          :  PC potential                    false          :
          :  electronic temp.          300.0000000     K    :
          :  accuracy                    1.0000000          :
          :  -> integral cutoff          0.2500000E+02      :
          :  -> integral neglect         0.1000000E-07      :
          :  -> SCF convergence          0.1000000E-05 Eh   :
          :  -> wf. convergence          0.2000000E-04 e    :
          :  Broyden damping             0.4000000          :
          ...................................................

 iter      E             dE          RMSdq      gap      omega  full diag
   1    -38.4494945 -0.384495E+02  0.831E+00    2.95       0.0  T
   2    -38.5957896 -0.146295E+00  0.504E+00    0.94       1.0  T
   3    -38.5689838  0.268058E-01  0.234E+00    1.01       1.0  T
   4    -38.6169264 -0.479426E-01  0.459E-01    0.77       1.0  T
   5    -38.6200599 -0.313346E-02  0.926E-02    0.79       1.0  T
   6    -38.6202302 -0.170344E-03  0.282E-02    0.86       1.0  T
   7    -38.6202477 -0.174270E-04  0.738E-03    0.83       3.0  T
   8    -38.6202484 -0.704307E-06  0.241E-03    0.84       9.3  T
   9    -38.6202484 -0.218723E-07  0.538E-04    0.84      41.6  T
  10    -38.6202484 -0.838916E-09  0.169E-04    0.84     132.4  T
  11    -38.6202484 -0.910418E-10  0.415E-05    0.84     538.5  T

   *** convergence criteria satisfied after 11 iterations ***

         #    Occupation            Energy/Eh            Energy/eV
      -------------------------------------------------------------
         1        2.0000           -0.8080134             -21.9872
       ...           ...                  ...                  ...
        25        2.0000           -0.4645982             -12.6424
        26        2.0000           -0.4534559             -12.3392
        27        2.0000           -0.4315916             -11.7442
        28        2.0000           -0.4059203             -11.0457
        29        2.0000           -0.3833893             -10.4326
        30        2.0000           -0.3446082              -9.3773
        31        2.0000           -0.2701952              -7.3524 (HOMO)
        32        0.0000           -0.2393911              -6.5142 (LUMO)
        33                         -0.1608379              -4.3766
        34                         -0.1231966              -3.3523
        35                         -0.1076848              -2.9303
        36                         -0.0933131              -2.5392
       ...                                ...                  ...
        62                          0.6948596              18.9081
      -------------------------------------------------------------
                  HL-Gap            0.0308041 Eh            0.8382 eV
             Fermi-level           -0.2547932 Eh           -6.9333 eV

 SCC (total)                   0 d,  0 h,  0 min,  0.076 sec
 SCC setup                      ...        0 min,  0.001 sec (  1.226%)
 Dispersion                     ...        0 min,  0.000 sec (  0.187%)
 classical contributions        ...        0 min,  0.000 sec (  0.070%)
 integral evaluation            ...        0 min,  0.024 sec ( 31.325%)
 iterations                     ...        0 min,  0.023 sec ( 30.811%)
 molecular gradient             ...        0 min,  0.027 sec ( 35.839%)
 printout                       ...        0 min,  0.000 sec (  0.483%)

         :::::::::::::::::::::::::::::::::::::::::::::::::::::
         ::                     SUMMARY                     ::
         :::::::::::::::::::::::::::::::::::::::::::::::::::::
         :: total energy             -38.311005324577 Eh    ::
         :: total w/o Gsasa/hb       -38.303327556514 Eh    ::
         :: gradient norm              0.135917092064 Eh/a0 ::
         :: HOMO-LUMO gap              0.838222182358 eV    ::
         ::.................................................::
         :: SCC energy               -38.620248387598 Eh    ::
         :: -> electrostatic           0.278198506453 Eh    ::
         :: -> Gsolv                  -0.101715880412 Eh    ::
         ::    -> Gelec               -0.094038112349 Eh    ::
         ::    -> Gsasa               -0.014430528639 Eh    ::
         ::    -> Ghb                 -0.000871518430 Eh    ::
         ::    -> Gshift               0.007624279005 Eh    ::
         :: repulsion energy           0.317967437006 Eh    ::
         :: dispersion energy         -0.008724373985 Eh    ::
         :: halogen bond corr.         0.000000000000 Eh    ::
         :: add. restraining           0.000000000000 Eh    ::
         :: total charge              -1.000000000000 e     ::
         :::::::::::::::::::::::::::::::::::::::::::::::::::::

      ----------------------------------------------------------- 
     |                   =====================                   |
     |                        A N C O P T                        |
     |                   =====================                   |
     |               Approximate Normal Coordinate               |
     |                Rational Function Optimizer                |
      ----------------------------------------------------------- 

          ...................................................
          :                      SETUP                      :
          :.................................................:
          :   optimization level            normal          :
          :   max. optcycles                   200          :
          :   ANC micro-cycles                  20          :
          :   degrees of freedom                54          :
          :.................................................:
          :   RF solver                   davidson          :
          :   write xtbopt.log                true          :
          :   linear?                        false          :
          :   energy convergence         0.5000000E-05 Eh   :
          :   grad. convergence          0.1000000E-02 Eh/α :
          :   maximium RF displ.         1.0000000          :
          :   Hlow (freq-cutoff)         0.1000000E-01      :
          :   Hmax (freq-cutoff)         5.0000000          :
          :   S6 in model hess.         20.0000000          :
          ...................................................

generating ANC from model Hessian ...
Using Lindh-Hessian (1995)
 Shifting diagonal of input Hessian by   8.416653319295333E-003
 Lowest  eigenvalues of input Hessian
    0.000000    0.000000    0.000000    0.000000    0.000000    0.000000
    0.010000    0.011043    0.012941    0.014974    0.016960    0.019199
    0.026143    0.027172    0.030259    0.034857    0.045864    0.047575
 Highest eigenvalues
    1.378660    1.575476    1.678867    1.820190    1.976726    2.245888
 

........................................................................
.............................. CYCLE    1 ..............................
........................................................................
   1    -38.6202484 -0.386202E+02  0.923E-06    0.84       0.0  T
   2    -38.6202484 -0.124345E-11  0.670E-06    0.84    3337.9  T
   3    -38.6202484 -0.504485E-12  0.312E-06    0.84    7173.1  T
     SCC iter.                  ...        0 min,  0.003 sec
     gradient                   ...        0 min,  0.023 sec
 * total energy  :   -38.3110053 Eh     change       -0.2596323E-10 Eh
   gradient norm :     0.1359177 Eh/α   predicted     0.0000000E+00 (-100.00%)
   displ. norm   :     0.2522537 α      lambda       -0.1582002E-01
   maximum displ.:     0.1386858 α      in ANC's #10, #13, #8, ...

........................................................................
.............................. CYCLE    2 ..............................
........................................................................
   1    -38.6258581 -0.386259E+02  0.202E-01    1.10       0.0  T
   2    -38.6264519 -0.593764E-03  0.138E-01    1.18       1.0  T
   3    -38.6267847 -0.332785E-03  0.390E-02    1.17       1.0  T
   4    -38.6267855 -0.773637E-06  0.138E-02    1.17       1.6  T
   5    -38.6267856 -0.195369E-06  0.185E-03    1.17      12.1  T
   6    -38.6267857 -0.696792E-07  0.782E-04    1.17      28.6  T
   7    -38.6267857 -0.581929E-08  0.337E-04    1.17      66.4  T
   8    -38.6267857 -0.687187E-09  0.977E-05    1.17     228.9  T
   9    -38.6267857 -0.306031E-10  0.137E-05    1.17    1631.0  T
     SCC iter.                  ...        0 min,  0.008 sec
     gradient                   ...        0 min,  0.023 sec
 * total energy  :   -38.3220473 Eh     change       -0.1104202E-01 Eh
   gradient norm :     0.0650070 Eh/α   predicted    -0.8416428E-02 ( -23.78%)
   displ. norm   :     0.2400541 α      lambda       -0.6473649E-02
   maximum displ.:     0.1261072 α      in ANC's #10, #13, #8, ...

........................................................................
.............................. CYCLE    3 ..............................
........................................................................
   1    -38.6312143 -0.386312E+02  0.175E-01    1.40       0.0  T
   2    -38.6317050 -0.490712E-03  0.114E-01    1.39       1.0  T
   3    -38.6319224 -0.217356E-03  0.340E-02    1.40       1.0  T
   4    -38.6319227 -0.278008E-06  0.104E-02    1.41       2.1  T
   5    -38.6319229 -0.181533E-06  0.155E-03    1.41      14.4  T
   6    -38.6319229 -0.320830E-07  0.533E-04    1.41      42.0  T
   7    -38.6319229 -0.216897E-08  0.218E-04    1.41     102.7  T
   8    -38.6319229 -0.239574E-09  0.478E-05    1.41     468.1  T
   9    -38.6319229 -0.715517E-11  0.105E-05    1.41    2130.4  T
     SCC iter.                  ...        0 min,  0.008 sec
     gradient                   ...        0 min,  0.023 sec
 * total energy  :   -38.3256889 Eh     change       -0.3641583E-02 Eh
   gradient norm :     0.0113404 Eh/α   predicted    -0.3423366E-02 (  -5.99%)
   displ. norm   :     0.1633393 α      lambda       -0.7525180E-03
   maximum displ.:     0.0666465 α      in ANC's #8, #4, #9, ...

........................................................................
.............................. CYCLE    4 ..............................
........................................................................
   1    -38.6315100 -0.386315E+02  0.442E-02    1.43       0.0  T
   2    -38.6315393 -0.293582E-04  0.210E-02    1.47       1.1  T
   3    -38.6315435 -0.416181E-05  0.104E-02    1.47       2.1  T
   4    -38.6315439 -0.423287E-06  0.423E-03    1.47       5.3  T
   5    -38.6315439 -0.246741E-07  0.896E-04    1.47      25.0  T
   6    -38.6315440 -0.156606E-07  0.237E-04    1.47      94.3  T
   7    -38.6315440 -0.854129E-09  0.726E-05    1.47     307.9  T
   8    -38.6315440 -0.252740E-10  0.282E-05    1.47     793.7  T
     SCC iter.                  ...        0 min,  0.007 sec
     gradient                   ...        0 min,  0.022 sec
 * total energy  :   -38.3262560 Eh     change       -0.5670794E-03 Eh
   gradient norm :     0.0101384 Eh/α   predicted    -0.3863556E-03 ( -31.87%)
   displ. norm   :     0.2712209 α      lambda       -0.7898528E-03
   maximum displ.:     0.1196142 α      in ANC's #3, #4, #8, ...

........................................................................
.............................. CYCLE    5 ..............................
........................................................................
   1    -38.6306421 -0.386306E+02  0.560E-02    1.50       0.0  T
   2    -38.6306915 -0.494885E-04  0.219E-02    1.56       1.0  T
   3    -38.6306970 -0.550492E-05  0.119E-02    1.55       1.9  T
   4    -38.6306976 -0.562004E-06  0.501E-03    1.55       4.5  T
   5    -38.6306976 -0.676323E-08  0.120E-03    1.55      18.6  T
   6    -38.6306976 -0.241980E-07  0.350E-04    1.55      63.9  T
   7    -38.6306976 -0.190035E-08  0.791E-05    1.55     282.8  T
   8    -38.6306976 -0.255298E-10  0.373E-05    1.55     599.6  T
     SCC iter.                  ...        0 min,  0.007 sec
     gradient                   ...        0 min,  0.023 sec
 * total energy  :   -38.3267825 Eh     change       -0.5265122E-03 Eh
   gradient norm :     0.0137996 Eh/α   predicted    -0.4240000E-03 ( -19.47%)
   displ. norm   :     0.2122701 α      lambda       -0.4051467E-03
   maximum displ.:     0.0969956 α      in ANC's #3, #4, #9, ...

........................................................................
.............................. CYCLE    6 ..............................
........................................................................
   1    -38.6310031 -0.386310E+02  0.397E-02    1.57       0.0  T
   2    -38.6310369 -0.338653E-04  0.135E-02    1.62       1.7  T
   3    -38.6310407 -0.379372E-05  0.540E-03    1.61       4.1  T
   4    -38.6310409 -0.135450E-06  0.267E-03    1.62       8.4  T
   5    -38.6310409 -0.368622E-09  0.720E-04    1.62      31.1  T
   6    -38.6310409 -0.375391E-08  0.808E-05    1.62     276.6  T
   7    -38.6310409 -0.501359E-10  0.442E-05    1.62     506.1  T
     SCC iter.                  ...        0 min,  0.006 sec
     gradient                   ...        0 min,  0.023 sec
 * total energy  :   -38.3270940 Eh     change       -0.3115101E-03 Eh
   gradient norm :     0.0145363 Eh/α   predicted    -0.2117051E-03 ( -32.04%)
   displ. norm   :     0.2754868 α      lambda       -0.5552865E-03
   maximum displ.:     0.1306611 α      in ANC's #1, #3, #8, ...

........................................................................
.............................. CYCLE    7 ..............................
........................................................................
   1    -38.6327706 -0.386328E+02  0.478E-02    1.65       0.0  T
   2    -38.6328222 -0.516076E-04  0.183E-02    1.72       1.2  T
   3    -38.6328283 -0.610113E-05  0.648E-03    1.70       3.5  T
   4    -38.6328285 -0.139000E-06  0.355E-03    1.71       6.3  T
   5    -38.6328285 -0.105325E-07  0.772E-04    1.71      28.9  T
   6    -38.6328285 -0.480366E-08  0.275E-04    1.71      81.3  T
   7    -38.6328285 -0.108417E-08  0.752E-05    1.71     297.3  T
   8    -38.6328285 -0.222045E-10  0.264E-05    1.71     848.1  T
     SCC iter.                  ...        0 min,  0.007 sec
     gradient                   ...        0 min,  0.023 sec
 * total energy  :   -38.3275057 Eh     change       -0.4116276E-03 Eh
   gradient norm :     0.0103817 Eh/α   predicted    -0.2987169E-03 ( -27.43%)
   displ. norm   :     0.2928629 α      lambda       -0.4897485E-03
   maximum displ.:     0.1570656 α      in ANC's #1, #3, #8, ...

........................................................................
.............................. CYCLE    8 ..............................
........................................................................
   1    -38.6331322 -0.386331E+02  0.651E-02    1.72       0.0  T
   2    -38.6332443 -0.112180E-03  0.294E-02    1.81       1.0  T
   3    -38.6332622 -0.178301E-04  0.600E-03    1.79       3.7  T
   4    -38.6332623 -0.960951E-07  0.380E-03    1.80       5.9  T
   5    -38.6332623 -0.324955E-07  0.938E-04    1.80      23.8  T
   6    -38.6332623 -0.351496E-08  0.340E-04    1.80      65.7  T
   7    -38.6332623 -0.157867E-08  0.786E-05    1.80     284.6  T
   8    -38.6332623 -0.246203E-10  0.331E-05    1.80     674.6  T
     SCC iter.                  ...        0 min,  0.007 sec
     gradient                   ...        0 min,  0.023 sec
 * total energy  :   -38.3278648 Eh     change       -0.3591247E-03 Eh
   gradient norm :     0.0107271 Eh/α   predicted    -0.2658819E-03 ( -25.96%)
   displ. norm   :     0.2927466 α      lambda       -0.5797542E-03
   maximum displ.:     0.1925991 α      in ANC's #1, #8, #3, ...

........................................................................
.............................. CYCLE    9 ..............................
........................................................................
   1    -38.6373610 -0.386374E+02  0.324E-02    1.93       0.0  T
   2    -38.6373723 -0.112886E-04  0.160E-02    1.93       1.4  T
   3    -38.6373727 -0.416109E-06  0.873E-03    1.94       2.6  T
   4    -38.6373728 -0.644361E-07  0.398E-03    1.94       5.6  T
   5    -38.6373729 -0.140845E-06  0.392E-04    1.94      57.0  T
   6    -38.6373729 -0.139586E-08  0.192E-04    1.94     116.5  T
   7    -38.6373729 -0.314195E-09  0.677E-05    1.94     330.4  T
     SCC iter.                  ...        0 min,  0.006 sec
     gradient                   ...        0 min,  0.023 sec
 * total energy  :   -38.3281147 Eh     change       -0.2499467E-03 Eh
   gradient norm :     0.0135071 Eh/α   predicted    -0.3147231E-03 (  25.92%)
   displ. norm   :     0.4297132 α      lambda       -0.5820821E-03
   maximum displ.:     0.2481015 α      in ANC's #1, #3, #8, ...

........................................................................
.............................. CYCLE   10 ..............................
........................................................................
   1    -38.6296042 -0.386296E+02  0.146E-01    1.87       0.0  T
   2    -38.6301605 -0.556249E-03  0.763E-02    2.07       1.0  T
   3    -38.6302932 -0.132673E-03  0.139E-02    2.01       1.6  T
   4    -38.6302936 -0.440876E-06  0.826E-03    2.01       2.7  T
   5    -38.6302937 -0.899730E-07  0.190E-03    2.01      11.8  T
   6    -38.6302937 -0.320755E-07  0.294E-04    2.01      76.1  T
   7    -38.6302937 -0.118074E-08  0.136E-04    2.01     164.8  T
   8    -38.6302937 -0.122675E-09  0.683E-05    2.01     327.6  T
     SCC iter.                  ...        0 min,  0.007 sec
     gradient                   ...        0 min,  0.023 sec
 * total energy  :   -38.3282083 Eh     change       -0.9353467E-04 Eh
   gradient norm :     0.0171695 Eh/α   predicted    -0.3447863E-03 ( 268.62%)
   displ. norm   :     0.1780147 α      lambda       -0.4616613E-03
   maximum displ.:     0.0944459 α      in ANC's #3, #8, #4, ...

........................................................................
.............................. CYCLE   11 ..............................
........................................................................
   1    -38.6348660 -0.386349E+02  0.705E-02    2.07       0.0  T
   2    -38.6350083 -0.142335E-03  0.334E-02    1.97       1.0  T
   3    -38.6350302 -0.218401E-04  0.758E-03    1.99       2.9  T
   4    -38.6350302 -0.935207E-07  0.495E-03    1.99       4.5  T
   5    -38.6350303 -0.424334E-07  0.113E-03    1.99      19.7  T
   6    -38.6350303 -0.560699E-08  0.349E-04    1.99      64.1  T
   7    -38.6350303 -0.222722E-08  0.709E-05    1.99     315.2  T
   8    -38.6350303 -0.221334E-10  0.367E-05    1.99     609.3  T
     SCC iter.                  ...        0 min,  0.007 sec
     gradient                   ...        0 min,  0.023 sec
 * total energy  :   -38.3284300 Eh     change       -0.2217103E-03 Eh
   gradient norm :     0.0037962 Eh/α   predicted    -0.2381513E-03 (   7.42%)
   displ. norm   :     0.1144793 α      lambda       -0.9573490E-04
   maximum displ.:     0.0856988 α      in ANC's #1, #5, #3, ...

........................................................................
.............................. CYCLE   12 ..............................
........................................................................
   1    -38.6349464 -0.386349E+02  0.839E-03    2.01       0.0  T
   2    -38.6349478 -0.132557E-05  0.562E-03    2.01       4.0  T
   3    -38.6349481 -0.379391E-06  0.213E-03    2.01      10.5  T
   4    -38.6349481  0.115281E-08  0.906E-04    2.01      24.7  T
   5    -38.6349481 -0.287034E-08  0.823E-05    2.01     271.8  T
   6    -38.6349481 -0.443237E-10  0.211E-05    2.01    1057.4  T
     SCC iter.                  ...        0 min,  0.005 sec
     gradient                   ...        0 min,  0.023 sec
 * total energy  :   -38.3285075 Eh     change       -0.7747507E-04 Eh
   gradient norm :     0.0032652 Eh/α   predicted    -0.4849550E-04 ( -37.41%)
   displ. norm   :     0.2025892 α      lambda       -0.1260623E-03
   maximum displ.:     0.1494580 α      in ANC's #1, #5, #4, ...

........................................................................
.............................. CYCLE   13 ..............................
........................................................................
   1    -38.6344677 -0.386345E+02  0.183E-02    2.01       0.0  T
   2    -38.6344747 -0.701114E-05  0.994E-03    2.03       2.3  T
   3    -38.6344764 -0.172445E-05  0.267E-03    2.03       8.4  T
   4    -38.6344764 -0.894511E-08  0.146E-03    2.03      15.4  T
   5    -38.6344764 -0.263925E-08  0.294E-04    2.03      76.2  T
   6    -38.6344764 -0.164064E-08  0.121E-04    2.03     185.3  T
   7    -38.6344764 -0.169209E-09  0.310E-05    2.03     720.4  T
     SCC iter.                  ...        0 min,  0.006 sec
     gradient                   ...        0 min,  0.023 sec
 * total energy  :   -38.3285878 Eh     change       -0.8036301E-04 Eh
   gradient norm :     0.0029811 Eh/α   predicted    -0.6562031E-04 ( -18.35%)
   displ. norm   :     0.1421814 α      lambda       -0.6175596E-04
   maximum displ.:     0.1045441 α      in ANC's #1, #5, #3, ...

........................................................................
.............................. CYCLE   14 ..............................
........................................................................
   1    -38.6338525 -0.386339E+02  0.749E-03    2.04       0.0  T
   2    -38.6338534 -0.931313E-06  0.477E-03    2.04       4.7  T
   3    -38.6338537 -0.302765E-06  0.183E-03    2.04      12.2  T
   4    -38.6338537 -0.803880E-09  0.665E-04    2.04      33.6  T
   5    -38.6338537 -0.716717E-09  0.117E-04    2.04     191.9  T
   6    -38.6338537 -0.268699E-09  0.357E-05    2.04     626.9  T
     SCC iter.                  ...        0 min,  0.005 sec
     gradient                   ...        0 min,  0.023 sec
 * total energy  :   -38.3286307 Eh     change       -0.4283784E-04 Eh
   gradient norm :     0.0043014 Eh/α   predicted    -0.3150629E-04 ( -26.45%)
   displ. norm   :     0.1410438 α      lambda       -0.6393356E-04
   maximum displ.:     0.1062804 α      in ANC's #1, #5, #6, ...

........................................................................
.............................. CYCLE   15 ..............................
........................................................................
   1    -38.6341874 -0.386342E+02  0.570E-03    2.04       0.0  T
   2    -38.6341881 -0.731302E-06  0.346E-03    2.04       6.5  T
   3    -38.6341883 -0.213342E-06  0.881E-04    2.04      25.4  T
   4    -38.6341883 -0.382592E-09  0.450E-04    2.04      49.6  T
   5    -38.6341883 -0.223956E-09  0.883E-05    2.04     253.3  T
   6    -38.6341883 -0.128864E-09  0.261E-05    2.04     858.2  T
     SCC iter.                  ...        0 min,  0.005 sec
     gradient                   ...        0 min,  0.023 sec
 * total energy  :   -38.3286854 Eh     change       -0.5473949E-04 Eh
   gradient norm :     0.0040859 Eh/α   predicted    -0.3260888E-04 ( -40.43%)
   displ. norm   :     0.3066861 α      lambda       -0.1370734E-03
   maximum displ.:     0.2237711 α      in ANC's #1, #5, #6, ...

........................................................................
.............................. CYCLE   16 ..............................
........................................................................
   1    -38.6342165 -0.386342E+02  0.945E-03    2.05       0.0  T
   2    -38.6342188 -0.236247E-05  0.396E-03    2.06       5.6  T
   3    -38.6342190 -0.190721E-06  0.180E-03    2.06      12.4  T
   4    -38.6342190 -0.741650E-08  0.927E-04    2.06      24.1  T
   5    -38.6342190 -0.147116E-08  0.201E-04    2.06     111.3  T
   6    -38.6342190 -0.346894E-09  0.486E-05    2.06     459.9  T
   7    -38.6342190 -0.359890E-10  0.143E-05    2.06    1561.0  T
     SCC iter.                  ...        0 min,  0.006 sec
     gradient                   ...        0 min,  0.023 sec
 * total energy  :   -38.3287809 Eh     change       -0.9548737E-04 Eh
   gradient norm :     0.0038914 Eh/α   predicted    -0.7498912E-04 ( -21.47%)
   displ. norm   :     0.2016973 α      lambda       -0.7416008E-04
   maximum displ.:     0.1431665 α      in ANC's #1, #5, #6, ...

........................................................................
.............................. CYCLE   17 ..............................
........................................................................
   1    -38.6349645 -0.386350E+02  0.507E-03    2.05       0.0  T
   2    -38.6349650 -0.495310E-06  0.248E-03    2.06       9.0  T
   3    -38.6349651 -0.310291E-07  0.138E-03    2.06      16.2  T
   4    -38.6349651 -0.303549E-08  0.498E-04    2.06      44.9  T
   5    -38.6349651 -0.112744E-08  0.780E-05    2.06     286.7  T
   6    -38.6349651 -0.383409E-10  0.275E-05    2.06     812.3  T
     SCC iter.                  ...        0 min,  0.005 sec
     gradient                   ...        0 min,  0.023 sec
 * total energy  :   -38.3288332 Eh     change       -0.5228542E-04 Eh
   gradient norm :     0.0028849 Eh/α   predicted    -0.3859095E-04 ( -26.19%)
   displ. norm   :     0.2038055 α      lambda       -0.4655507E-04
   maximum displ.:     0.1344520 α      in ANC's #1, #5, #6, ...

........................................................................
.............................. CYCLE   18 ..............................
........................................................................
   1    -38.6344171 -0.386344E+02  0.692E-03    2.06       0.0  T
   2    -38.6344182 -0.106236E-05  0.290E-03    2.07       7.7  T
   3    -38.6344183 -0.123302E-06  0.113E-03    2.06      19.8  T
   4    -38.6344183 -0.499909E-08  0.562E-04    2.06      39.8  T
   5    -38.6344183 -0.518000E-09  0.120E-04    2.06     185.6  T
   6    -38.6344183 -0.123272E-09  0.554E-05    2.06     403.9  T
     SCC iter.                  ...        0 min,  0.005 sec
     gradient                   ...        0 min,  0.023 sec
 * total energy  :   -38.3288644 Eh     change       -0.3122961E-04 Eh
   gradient norm :     0.0031378 Eh/α   predicted    -0.2424622E-04 ( -22.36%)
   displ. norm   :     0.1327055 α      lambda       -0.5790288E-04
   maximum displ.:     0.0799076 α      in ANC's #5, #1, #7, ...

........................................................................
.............................. CYCLE   19 ..............................
........................................................................
   1    -38.6361607 -0.386362E+02  0.769E-03    2.06       0.0  T
   2    -38.6361613 -0.608727E-06  0.475E-03    2.07       4.7  T
   3    -38.6361615 -0.122377E-06  0.244E-03    2.07       9.2  T
   4    -38.6361615 -0.125896E-07  0.585E-04    2.07      38.2  T
   5    -38.6361615 -0.110511E-08  0.115E-04    2.07     194.7  T
   6    -38.6361615 -0.797797E-10  0.502E-05    2.07     445.7  T
     SCC iter.                  ...        0 min,  0.005 sec
     gradient                   ...        0 min,  0.023 sec
 * total energy  :   -38.3288897 Eh     change       -0.2526121E-04 Eh
   gradient norm :     0.0031307 Eh/α   predicted    -0.2946288E-04 (  16.63%)
   displ. norm   :     0.1326745 α      lambda       -0.3789614E-04
   maximum displ.:     0.0943852 α      in ANC's #5, #1, #3, ...

........................................................................
.............................. CYCLE   20 ..............................
........................................................................
   1    -38.6350913 -0.386351E+02  0.859E-03    2.07       0.0  T
   2    -38.6350923 -0.989062E-06  0.400E-03    2.08       5.6  T
   3    -38.6350924 -0.147537E-06  0.206E-03    2.07      10.8  T
   4    -38.6350925 -0.156756E-07  0.609E-04    2.07      36.7  T
   5    -38.6350925 -0.272209E-09  0.145E-04    2.07     154.6  T
   6    -38.6350925 -0.894076E-10  0.483E-05    2.07     463.4  T
     SCC iter.                  ...        0 min,  0.005 sec
     gradient                   ...        0 min,  0.017 sec
 * total energy  :   -38.3289114 Eh     change       -0.2172776E-04 Eh
   gradient norm :     0.0028569 Eh/α   predicted    -0.1928409E-04 ( -11.25%)
   displ. norm   :     0.0612067 α      lambda       -0.3648847E-04
   maximum displ.:     0.0390360 α      in ANC's #5, #3, #1, ...
 * RMSD in coord.:     0.6749142 α      energy gain  -0.1790606E-01 Eh

generating ANC from model Hessian ...
Using Lindh-Hessian (1995)
 Shifting diagonal of input Hessian by   8.476763247205551E-003
 Lowest  eigenvalues of input Hessian
    0.000000    0.000000    0.000000    0.000000    0.000000    0.000000
    0.010000    0.011356    0.012866    0.015533    0.017388    0.019062
    0.024978    0.026424    0.032736    0.034582    0.045837    0.049203
 Highest eigenvalues
    1.398471    1.439457    1.702198    1.726528    2.050928    2.203473
 

........................................................................
.............................. CYCLE   21 ..............................
........................................................................
   1    -38.6346848 -0.386347E+02  0.897E-03    2.08       0.0  T
   2    -38.6346864 -0.156877E-05  0.323E-03    2.09       6.9  T
   3    -38.6346866 -0.231623E-06  0.121E-03    2.09      18.4  T
   4    -38.6346866 -0.903292E-08  0.601E-04    2.09      37.2  T
   5    -38.6346866 -0.658318E-10  0.162E-04    2.09     138.3  T
   6    -38.6346866 -0.169656E-09  0.456E-05    2.09     490.2  T
     SCC iter.                  ...        0 min,  0.003 sec
     gradient                   ...        0 min,  0.016 sec
 * total energy  :   -38.3289416 Eh     change       -0.3023781E-04 Eh
   gradient norm :     0.0027953 Eh/α   predicted     0.0000000E+00 (-100.00%)
   displ. norm   :     0.0321037 α      lambda       -0.7716622E-05
   maximum displ.:     0.0247361 α      in ANC's #1, #5, #6, ...

........................................................................
.............................. CYCLE   22 ..............................
........................................................................
   1    -38.6353391 -0.386353E+02  0.469E-03    2.09       0.0  T
   2    -38.6353394 -0.346509E-06  0.261E-03    2.09       8.6  T
   3    -38.6353395 -0.899319E-07  0.109E-03    2.09      20.6  T
   4    -38.6353395 -0.116798E-08  0.345E-04    2.09      64.8  T
   5    -38.6353395 -0.307111E-09  0.793E-05    2.09     281.8  T
   6    -38.6353395 -0.678710E-10  0.268E-05    2.09     833.3  T
     SCC iter.                  ...        0 min,  0.004 sec
     gradient                   ...        0 min,  0.012 sec
 * total energy  :   -38.3289632 Eh     change       -0.2160442E-04 Eh
   gradient norm :     0.0013777 Eh/α   predicted    -0.1354062E-04 ( -37.32%)
   displ. norm   :     0.1131450 α      lambda       -0.3699502E-04
   maximum displ.:     0.0818725 α      in ANC's #1, #5, #3, ...

........................................................................
.............................. CYCLE   23 ..............................
........................................................................
   1    -38.6361850 -0.386362E+02  0.139E-02    2.10       0.0  T
   2    -38.6361892 -0.424400E-05  0.778E-03    2.11       2.9  T
   3    -38.6361903 -0.104959E-05  0.212E-03    2.11      10.5  T
   4    -38.6361903 -0.409383E-08  0.107E-03    2.11      20.9  T
   5    -38.6361903 -0.155642E-08  0.245E-04    2.11      91.1  T
   6    -38.6361903 -0.744564E-09  0.753E-05    2.11     296.8  T
   7    -38.6361903 -0.675939E-10  0.250E-05    2.11     894.5  T
     SCC iter.                  ...        0 min,  0.005 sec
     gradient                   ...        0 min,  0.012 sec
 * total energy  :   -38.3289989 Eh     change       -0.3571600E-04 Eh
   gradient norm :     0.0022008 Eh/α   predicted    -0.1860337E-04 ( -47.91%)
   displ. norm   :     0.0719690 α      lambda       -0.2424580E-04
   maximum displ.:     0.0492199 α      in ANC's #1, #5, #3, ...

........................................................................
.............................. CYCLE   24 ..............................
........................................................................
   1    -38.6359804 -0.386360E+02  0.588E-03    2.11       0.0  T
   2    -38.6359812 -0.783121E-06  0.307E-03    2.12       7.3  T
   3    -38.6359814 -0.172589E-06  0.698E-04    2.12      32.0  T
   4    -38.6359814 -0.120398E-08  0.390E-04    2.12      57.3  T
   5    -38.6359814 -0.227175E-09  0.104E-04    2.12     214.4  T
   6    -38.6359814 -0.106752E-09  0.390E-05    2.12     572.9  T
     SCC iter.                  ...        0 min,  0.003 sec
     gradient                   ...        0 min,  0.012 sec
 * total energy  :   -38.3290207 Eh     change       -0.2177598E-04 Eh
   gradient norm :     0.0021065 Eh/α   predicted    -0.1218778E-04 ( -44.03%)
   displ. norm   :     0.2025417 α      lambda       -0.6107149E-04
   maximum displ.:     0.1302853 α      in ANC's #1, #5, #3, ...

........................................................................
.............................. CYCLE   25 ..............................
........................................................................
   1    -38.6348735 -0.386349E+02  0.130E-02    2.12       0.0  T
   2    -38.6348767 -0.328665E-05  0.615E-03    2.14       3.6  T
   3    -38.6348773 -0.595446E-06  0.211E-03    2.13      10.6  T
   4    -38.6348774 -0.138525E-07  0.982E-04    2.13      22.8  T
   5    -38.6348774 -0.101507E-08  0.259E-04    2.13      86.3  T
   6    -38.6348774 -0.656257E-09  0.991E-05    2.13     225.6  T
   7    -38.6348774 -0.104677E-09  0.227E-05    2.13     983.8  T
     SCC iter.                  ...        0 min,  0.006 sec
     gradient                   ...        0 min,  0.023 sec
 * total energy  :   -38.3290590 Eh     change       -0.3828052E-04 Eh
   gradient norm :     0.0023959 Eh/α   predicted    -0.3179131E-04 ( -16.95%)
   displ. norm   :     0.0659168 α      lambda       -0.1272696E-04
   maximum displ.:     0.0403973 α      in ANC's #1, #4, #5, ...

........................................................................
.............................. CYCLE   26 ..............................
........................................................................
   1    -38.6348244 -0.386348E+02  0.202E-03    2.14       0.0  T
   2    -38.6348244 -0.645046E-07  0.979E-04    2.14      22.8  T
   3    -38.6348244 -0.125241E-07  0.428E-04    2.14      52.2  T
   4    -38.6348244 -0.629527E-09  0.173E-04    2.14     129.6  T
   5    -38.6348244 -0.488996E-10  0.319E-05    2.14     700.7  T
     SCC iter.                  ...        0 min,  0.003 sec
     gradient                   ...        0 min,  0.013 sec
 * total energy  :   -38.3290690 Eh     change       -0.1000403E-04 Eh
   gradient norm :     0.0021940 Eh/α   predicted    -0.6399441E-05 ( -36.03%)
   displ. norm   :     0.0958037 α      lambda       -0.2533994E-04
   maximum displ.:     0.0506138 α      in ANC's #1, #4, #5, ...

........................................................................
.............................. CYCLE   27 ..............................
........................................................................
   1    -38.6352600 -0.386353E+02  0.839E-03    2.13       0.0  T
   2    -38.6352617 -0.169766E-05  0.524E-03    2.13       4.3  T
   3    -38.6352622 -0.480008E-06  0.124E-03    2.13      18.0  T
   4    -38.6352622 -0.116013E-08  0.663E-04    2.13      33.7  T
   5    -38.6352622 -0.791623E-09  0.144E-04    2.13     155.2  T
   6    -38.6352622 -0.258360E-09  0.403E-05    2.13     555.1  T
     SCC iter.                  ...        0 min,  0.004 sec
     gradient                   ...        0 min,  0.014 sec
 * total energy  :   -38.3290867 Eh     change       -0.1766928E-04 Eh
   gradient norm :     0.0016087 Eh/α   predicted    -0.1278672E-04 ( -27.63%)
   displ. norm   :     0.1441061 α      lambda       -0.1745842E-04
   maximum displ.:     0.0782859 α      in ANC's #4, #5, #1, ...

........................................................................
.............................. CYCLE   28 ..............................
........................................................................
   1    -38.6352667 -0.386353E+02  0.141E-02    2.12       0.0  T
   2    -38.6352712 -0.449078E-05  0.798E-03    2.11       2.8  T
   3    -38.6352725 -0.122363E-05  0.147E-03    2.12      15.2  T
   4    -38.6352725 -0.363777E-08  0.847E-04    2.12      26.4  T
   5    -38.6352725 -0.120800E-08  0.216E-04    2.12     103.7  T
   6    -38.6352725 -0.485642E-09  0.728E-05    2.12     307.1  T
   7    -38.6352725 -0.583924E-10  0.219E-05    2.12    1019.4  T
     SCC iter.                  ...        0 min,  0.006 sec
     gradient                   ...        0 min,  0.023 sec
 * total energy  :   -38.3291032 Eh     change       -0.1657493E-04 Eh
   gradient norm :     0.0027069 Eh/α   predicted    -0.8810303E-05 ( -46.85%)
   displ. norm   :     0.0604838 α      lambda       -0.1947014E-04
   maximum displ.:     0.0449366 α      in ANC's #2, #4, #5, ...

........................................................................
.............................. CYCLE   29 ..............................
........................................................................
   1    -38.6358957 -0.386359E+02  0.116E-02    2.11       0.0  T
   2    -38.6358985 -0.289444E-05  0.582E-03    2.10       3.8  T
   3    -38.6358992 -0.636273E-06  0.128E-03    2.10      17.4  T
   4    -38.6358992 -0.563697E-08  0.708E-04    2.10      31.6  T
   5    -38.6358992 -0.657629E-09  0.207E-04    2.10     107.9  T
   6    -38.6358992 -0.350873E-09  0.737E-05    2.10     303.5  T
   7    -38.6358992 -0.674234E-10  0.122E-05    2.10    1827.7  T
     SCC iter.                  ...        0 min,  0.006 sec
     gradient                   ...        0 min,  0.013 sec
 * total energy  :   -38.3291167 Eh     change       -0.1349414E-04 Eh
   gradient norm :     0.0023826 Eh/α   predicted    -0.9795900E-05 ( -27.41%)
   displ. norm   :     0.1247498 α      lambda       -0.2237368E-04
   maximum displ.:     0.0647021 α      in ANC's #5, #2, #4, ...

........................................................................
.............................. CYCLE   30 ..............................
........................................................................
   1    -38.6353524 -0.386354E+02  0.110E-02    2.09       0.0  T
   2    -38.6353547 -0.238635E-05  0.436E-03    2.08       5.1  T
   3    -38.6353551 -0.385743E-06  0.153E-03    2.08      14.6  T
   4    -38.6353551 -0.129433E-07  0.759E-04    2.08      29.4  T
   5    -38.6353551 -0.105899E-09  0.214E-04    2.08     104.5  T
   6    -38.6353551 -0.501792E-09  0.667E-05    2.08     335.1  T
   7    -38.6353551 -0.649862E-10  0.181E-05    2.08    1234.5  T
     SCC iter.                  ...        0 min,  0.005 sec
     gradient                   ...        0 min,  0.023 sec
 * total energy  :   -38.3291296 Eh     change       -0.1284584E-04 Eh
   gradient norm :     0.0022752 Eh/α   predicted    -0.1136145E-04 ( -11.56%)
   displ. norm   :     0.0340606 α      lambda       -0.1121465E-04
   maximum displ.:     0.0305092 α      in ANC's #2, #5, #1, ...

........................................................................
.............................. CYCLE   31 ..............................
........................................................................
   1    -38.6356416 -0.386356E+02  0.529E-03    2.07       0.0  T
   2    -38.6356421 -0.484886E-06  0.232E-03    2.07       9.6  T
   3    -38.6356422 -0.871262E-07  0.870E-04    2.07      25.7  T
   4    -38.6356422 -0.345354E-08  0.421E-04    2.07      53.1  T
   5    -38.6356422 -0.184997E-09  0.779E-05    2.07     287.1  T
   6    -38.6356422 -0.382627E-10  0.376E-05    2.07     594.8  T
     SCC iter.                  ...        0 min,  0.004 sec
     gradient                   ...        0 min,  0.020 sec
 * total energy  :   -38.3291378 Eh     change       -0.8246860E-05 Eh
   gradient norm :     0.0013067 Eh/α   predicted    -0.5614244E-05 ( -31.92%)
   displ. norm   :     0.0872850 α      lambda       -0.9666672E-05
   maximum displ.:     0.0668645 α      in ANC's #2, #5, #4, ...

........................................................................
.............................. CYCLE   32 ..............................
........................................................................
   1    -38.6356870 -0.386357E+02  0.105E-02    2.07       0.0  T
   2    -38.6356890 -0.205368E-05  0.529E-03    2.06       4.2  T
   3    -38.6356896 -0.534643E-06  0.107E-03    2.06      21.0  T
   4    -38.6356896 -0.409321E-08  0.687E-04    2.06      32.5  T
   5    -38.6356896 -0.585786E-09  0.113E-04    2.06     197.9  T
   6    -38.6356896 -0.128736E-09  0.570E-05    2.06     392.6  T
     SCC iter.                  ...        0 min,  0.005 sec
     gradient                   ...        0 min,  0.022 sec
 * total energy  :   -38.3291465 Eh     change       -0.8630959E-05 Eh
   gradient norm :     0.0012700 Eh/α   predicted    -0.4850257E-05 ( -43.80%)
   displ. norm   :     0.0462863 α      lambda       -0.3401677E-05
   maximum displ.:     0.0300887 α      in ANC's #2, #5, #1, ...

........................................................................
.............................. CYCLE   33 ..............................
........................................................................
   1    -38.6356818 -0.386357E+02  0.360E-03    2.06       0.0  T
   2    -38.6356820 -0.234914E-06  0.158E-03    2.05      14.2  T
   3    -38.6356821 -0.500593E-07  0.433E-04    2.06      51.6  T
   4    -38.6356821 -0.835911E-09  0.241E-04    2.06      92.9  T
   5    -38.6356821 -0.509672E-10  0.509E-05    2.06     439.1  T
   6    -38.6356821 -0.217284E-10  0.196E-05    2.06    1140.0  T
     SCC iter.                  ...        0 min,  0.005 sec
     gradient                   ...        0 min,  0.022 sec
 * total energy  :   -38.3291501 Eh     change       -0.3614090E-05 Eh
   gradient norm :     0.0008128 Eh/α   predicted    -0.1704119E-05 ( -52.85%)
   displ. norm   :     0.0329581 α      lambda       -0.2077232E-05
   maximum displ.:     0.0230148 α      in ANC's #2, #5, #4, ...

   *** GEOMETRY OPTIMIZATION CONVERGED AFTER 33 ITERATIONS ***

------------------------------------------------------------------------
 total energy gain   :        -0.0181448 Eh      -11.3860 kcal/mol
 total RMSD          :         0.7075237 a0        0.3744 Å
 total power (kW/mol):        -1.4436076 (step)  -38.8630 (real)
------------------------------------------------------------------------

 ANCopt (total)                0 d,  0 h,  0 min,  1.226 sec
 optimizer setup                ...        0 min,  0.001 sec (  0.065%)
 model hessian                  ...        0 min,  0.009 sec (  0.718%)
 ANC generation                 ...        0 min,  0.001 sec (  0.090%)
 coordinate transformation      ...        0 min,  0.000 sec (  0.037%)
 single point calculation       ...        0 min,  1.203 sec ( 98.114%)
 optimization log               ...        0 min,  0.005 sec (  0.394%)
 hessian update                 ...        0 min,  0.000 sec (  0.039%)
 rational function              ...        0 min,  0.004 sec (  0.316%)

================
 final structure:
================
20
 xtb: 6.5.1 (579679a)
C           -2.79178661795548       -1.10554920649651       -0.39689340948829
O           -1.46213060515681       -0.61025913607022       -0.47494767593128
C           -1.26283315375829        0.63830837354333        0.02422707773278
O           -2.19266362411396        1.30599925965494        0.47126869037849
C            0.21003951886315        0.99036623153848        0.21292464112669
C            0.47238122197656        2.49544995251073        0.12759420563602
N            0.32508593628340        0.44017183387672        1.56342008158040
N            1.14437966714481       -0.65239580717820        1.43318907083342
C            1.56160856830966       -0.75272769632463        0.22892968438871
C            2.49697403192615       -1.76577088062984       -0.33134588725894
O            1.07753782949945        0.24895773364751       -0.62516576903272
H           -3.47942738975489       -0.45294725426507       -0.94459575088503
H           -2.79202695400204       -2.09726580601582       -0.84761803279805
H           -3.12401740936746       -1.17192897173333        0.64452993124248
H           -0.26629142537077        3.02255609406637        0.72886131981516
H            1.46831242126682        2.70970554851105        0.50971313893415
H            0.40534467642583        2.83110875211446       -0.90588692075783
H            2.04044462394266       -2.30053321424553       -1.16698064811276
H            3.41070285124005       -1.29203060107937       -0.69794512536700
H            2.75836483260107       -2.48121520542534        0.44672037796418
 
 Bond Distances (Angstroems)
 ---------------------------
C1-O2=1.4211         C1-H12=1.0949        C1-H13=1.0893        C1-H14=1.0951        O2-C1=1.4211         O2-C3=1.3593         
C3-O2=1.3593         C3-O4=1.2289         C3-C5=1.5261         O4-C3=1.2289         C5-C3=1.5261         C5-C6=1.5302         
C5-N7=1.4628         C5-O11=1.4159        C6-C5=1.5302         C6-H15=1.0886        C6-H16=1.0880        C6-H17=1.0887        
N7-C5=1.4628         N7-N8=1.3718         N8-N7=1.3718         N8-C9=1.2784         C9-N8=1.2784         C9-C10=1.4883        
C9-O11=1.4026        C10-C9=1.4883        C10-H18=1.0921       C10-H19=1.0926       C10-H20=1.0888       O11-C5=1.4159        
O11-C9=1.4026        H12-C1=1.0949        H13-C1=1.0893        H14-C1=1.0951        H15-C6=1.0886        H16-C6=1.0880        
H17-C6=1.0887        H18-C10=1.0921       H19-C10=1.0926       H20-C10=1.0888       
 C  H  Rav=1.0909 sigma=0.0026  Rmin=1.0880  Rmax=1.0951     9
 C  C  Rav=1.5148 sigma=0.0188  Rmin=1.4883  Rmax=1.5302     3
 N  C  Rav=1.3706 sigma=0.0922  Rmin=1.2784  Rmax=1.4628     2
 N  N  Rav=1.3718 sigma=0.0000  Rmin=1.3718  Rmax=1.3718     1
 O  C  Rav=1.3655 sigma=0.0717  Rmin=1.2289  Rmax=1.4211     5
 
 selected bond angles (degree)
 --------------------
H12-C1-O2=110.64               H13-C1-O2=107.14               H13-C1-H12=109.60              H14-C1-O2=110.93               
H14-C1-H12=108.74              H14-C1-H13=109.77              C3-O2-C1=115.92                O4-C3-O2=121.45                
C5-C3-O2=113.50                C5-C3-O4=124.05                C6-C5-C3=112.67                N7-C5-C3= 95.93                
N7-C5-C6=114.08                O11-C5-C3=113.41               O11-C5-C6=112.15               O11-C5-N7=107.54               
H15-C6-C5=109.22               H16-C6-C5=109.33               H16-C6-H15=109.38              H17-C6-C5=110.22               
H17-C6-H15=109.47              H17-C6-H16=109.21              N8-N7-C5=105.00                C9-N8-N7=110.29                
C10-C9-N8=127.82               O11-C9-N8=113.89               O11-C9-C10=118.28              H18-C10-C9=111.02              
H19-C10-C9=110.90              H19-C10-H18=107.77             H20-C10-C9=109.22              H20-C10-H18=108.99             
H20-C10-H19=108.90             
 
 selected dihedral angles (degree)
 ---------------------------------
C3-O2-C1-H12= 59.61           C3-O2-C1-H13=179.04           C3-O2-C1-H14=298.84           O4-C3-O2-C1=357.61            
C5-C3-O2-C1=166.61            C6-C5-C3-O2=153.07            C6-C5-C3-O4=321.73            N7-C5-C3-O2=272.27            
N7-C5-C3-O4= 80.94            O11-C5-C3-O2= 24.30           O11-C5-C3-O4=192.97           H15-C6-C5-C3= 46.32           
H15-C6-C5-N7=298.30           H15-C6-C5-O11=175.74          H16-C6-C5-C3=165.96           H16-C6-C5-N7= 57.95           
H16-C6-C5-O11=295.38          H17-C6-C5-C3=286.02           H17-C6-C5-N7=178.00           H17-C6-C5-O11= 55.44          
N8-N7-C5-C3=111.63            N8-N7-C5-C6=229.73            N8-N7-C5-O11=354.78           C9-N8-N7-C5=  3.49            
C10-C9-N8-N7=178.08           O11-C9-N8-N7=359.57           H18-C10-C9-N8=123.12          H18-C10-C9-O11=301.57         
H19-C10-C9-N8=242.90          H19-C10-C9-O11= 61.35         H20-C10-C9-N8=  2.92          H20-C10-C9-O11=181.37         
           -------------------------------------------------
          |                Final Singlepoint                |
           -------------------------------------------------

          ...................................................
          :                      SETUP                      :
          :.................................................:
          :  # basis functions                  62          :
          :  # atomic orbitals                  62          :
          :  # shells                           40          :
          :  # electrons                        62          :
          :  # halogen bonds                     0          :
          :  max. iterations                   250          :
          :  Hamiltonian                  GFN1-xTB          :
          :  restarted?                      false          :
          :  GBSA solvation                   true          :
          :  PC potential                    false          :
          :  electronic temp.          300.0000000     K    :
          :  accuracy                    1.0000000          :
          :  -> integral cutoff          0.2500000E+02      :
          :  -> integral neglect         0.1000000E-07      :
          :  -> SCF convergence          0.1000000E-05 Eh   :
          :  -> wf. convergence          0.2000000E-04 e    :
          :  Broyden damping             0.4000000          :
          ...................................................

 iter      E             dE          RMSdq      gap      omega  full diag
   1    -38.6356821 -0.386357E+02  0.457E-06    2.06       0.0  T
   2    -38.6356821 -0.710543E-13  0.233E-06    2.06    9577.0  T
   3    -38.6356821  0.213163E-13  0.868E-07    2.06   25749.6  T

   *** convergence criteria satisfied after 3 iterations ***

         #    Occupation            Energy/Eh            Energy/eV
      -------------------------------------------------------------
         1        2.0000           -0.7923064             -21.5598
       ...           ...                  ...                  ...
        25        2.0000           -0.4609595             -12.5433
        26        2.0000           -0.4578080             -12.4576
        27        2.0000           -0.4195906             -11.4176
        28        2.0000           -0.4134290             -11.2500
        29        2.0000           -0.3890490             -10.5866
        30        2.0000           -0.3625605              -9.8658
        31        2.0000           -0.2893787              -7.8744 (HOMO)
        32                         -0.2138497              -5.8191 (LUMO)
        33                         -0.1707834              -4.6473
        34                         -0.1207301              -3.2852
        35                         -0.1131611              -3.0793
        36                         -0.0980217              -2.6673
       ...                                ...                  ...
        62                          0.6695767              18.2201
      -------------------------------------------------------------
                  HL-Gap            0.0755290 Eh            2.0552 eV
             Fermi-level           -0.2516142 Eh           -6.8468 eV

 SCC (total)                   0 d,  0 h,  0 min,  0.037 sec
 SCC setup                      ...        0 min,  0.001 sec (  2.567%)
 Dispersion                     ...        0 min,  0.000 sec (  0.245%)
 classical contributions        ...        0 min,  0.000 sec (  0.084%)
 integral evaluation            ...        0 min,  0.010 sec ( 28.020%)
 iterations                     ...        0 min,  0.003 sec (  7.047%)
 molecular gradient             ...        0 min,  0.023 sec ( 61.077%)
 printout                       ...        0 min,  0.000 sec (  0.860%)

         :::::::::::::::::::::::::::::::::::::::::::::::::::::
         ::                     SUMMARY                     ::
         :::::::::::::::::::::::::::::::::::::::::::::::::::::
         :: total energy             -38.329150080163 Eh    ::
         :: total w/o Gsasa/hb       -38.321415419541 Eh    ::
         :: gradient norm              0.000813441637 Eh/a0 ::
         :: HOMO-LUMO gap              2.055249008759 eV    ::
         ::.................................................::
         :: SCC energy               -38.635682074522 Eh    ::
         :: -> electrostatic           0.287979225895 Eh    ::
         :: -> Gsolv                  -0.104181484468 Eh    ::
         ::    -> Gelec               -0.096446823845 Eh    ::
         ::    -> Gsasa               -0.014441157269 Eh    ::
         ::    -> Ghb                 -0.000917782358 Eh    ::
         ::    -> Gshift               0.007624279005 Eh    ::
         :: repulsion energy           0.315410764377 Eh    ::
         :: dispersion energy         -0.008878770018 Eh    ::
         :: halogen bond corr.         0.000000000000 Eh    ::
         :: add. restraining           0.000000000000 Eh    ::
         :: total charge              -1.000000000000 e     ::
         :::::::::::::::::::::::::::::::::::::::::::::::::::::

           -------------------------------------------------
          |                Property Printout                |
           -------------------------------------------------

    * Orbital Energies and Occupations

         #    Occupation            Energy/Eh            Energy/eV
      -------------------------------------------------------------
         1        2.0000           -0.7923064             -21.5598
       ...           ...                  ...                  ...
        19        2.0000           -0.5035265             -13.7017
        20        2.0000           -0.4984135             -13.5625
        21        2.0000           -0.4935510             -13.4302
        22        2.0000           -0.4884817             -13.2923
        23        2.0000           -0.4756442             -12.9429
        24        2.0000           -0.4681971             -12.7403
        25        2.0000           -0.4609595             -12.5433
        26        2.0000           -0.4578080             -12.4576
        27        2.0000           -0.4195906             -11.4176
        28        2.0000           -0.4134290             -11.2500
        29        2.0000           -0.3890490             -10.5866
        30        2.0000           -0.3625605              -9.8658
        31        2.0000           -0.2893787              -7.8744 (HOMO)
        32                         -0.2138497              -5.8191 (LUMO)
        33                         -0.1707834              -4.6473
        34                         -0.1207301              -3.2852
        35                         -0.1131611              -3.0793
        36                         -0.0980217              -2.6673
        37                         -0.0584519              -1.5906
        38                         -0.0573049              -1.5593
        39                         -0.0469562              -1.2777
        40                         -0.0454723              -1.2374
        41                         -0.0393167              -1.0699
        42                         -0.0343007              -0.9334
       ...                                ...                  ...
        62                          0.6695767              18.2201
      -------------------------------------------------------------
                  HL-Gap            0.0755290 Eh            2.0552 eV
             Fermi-level           -0.2516142 Eh           -6.8468 eV

  Mulliken/CM5 charges         n(s)   n(p)   n(d)
     1C     0.17383  0.05452   0.970  2.856  0.000
     2O    -0.43749 -0.51880   1.690  4.747  0.000
     3C     0.52057  0.58802   0.999  2.480  0.000
     4O    -0.63499 -0.68155   1.739  4.896  0.000
     5C     0.33333  0.41154   1.023  2.644  0.000
     6C    -0.10786 -0.24495   1.014  3.094  0.000
     7N    -0.50369 -0.59166   1.617  3.887  0.000
     8N    -0.32270 -0.43330   1.566  3.757  0.000
     9C     0.30600  0.41448   0.982  2.712  0.000
    10C    -0.10586 -0.24254   1.006  3.100  0.000
    11O    -0.48888 -0.54057   1.719  4.769  0.000
    12H     0.03068  0.09239   0.969  0.000  0.000
    13H     0.03012  0.09032   0.970  0.000  0.000
    14H     0.03168  0.09303   0.968  0.000  0.000
    15H     0.02955  0.08782   0.970  0.000  0.000
    16H     0.02572  0.08252   0.974  0.000  0.000
    17H     0.02187  0.07721   0.978  0.000  0.000
    18H     0.03423  0.08820   0.966  0.000  0.000
    19H     0.03386  0.08767   0.966  0.000  0.000
    20H     0.03004  0.08566   0.970  0.000  0.000

Wiberg/Mayer (AO) data.
largest (>0.10) Wiberg bond orders for each atom

 ---------------------------------------------------------------------------
     #   Z sym  total        # sym  WBO       # sym  WBO       # sym  WBO
 ---------------------------------------------------------------------------
     1   6 C    3.903 --    13 H    0.987    12 H    0.981    14 H    0.981
                             2 O    0.926
     2   8 O    2.152 --     3 C    1.044     1 C    0.926     4 O    0.104
     3   6 C    3.815 --     4 O    1.571     2 O    1.044     5 C    0.921
                             7 N    0.177
     4   8 O    1.855 --     3 C    1.571     2 O    0.104
     5   6 C    3.901 --     6 C    0.980     7 N    0.967    11 O    0.929
                             3 C    0.921
     6   6 C    3.996 --    17 H    0.987    16 H    0.986    15 H    0.986
                             5 C    0.980
     7   7 N    2.659 --     8 N    1.162     5 C    0.967     3 C    0.177
                             9 C    0.163
     8   7 N    3.014 --     9 C    1.687     7 N    1.162
     9   6 C    3.879 --     8 N    1.687    10 C    1.018    11 O    0.938
                             7 N    0.163
    10   6 C    3.996 --     9 C    1.018    20 H    0.987    18 H    0.977
                            19 H    0.975
    11   8 O    2.066 --     9 C    0.938     5 C    0.929
    12   1 H    1.015 --     1 C    0.981
    13   1 H    1.016 --     1 C    0.987
    14   1 H    1.013 --     1 C    0.981
    15   1 H    1.017 --     6 C    0.986
    16   1 H    1.018 --     6 C    0.986
    17   1 H    1.009 --     6 C    0.987
    18   1 H    1.008 --    10 C    0.977
    19   1 H    1.008 --    10 C    0.975
    20   1 H    1.009 --    10 C    0.987
 ---------------------------------------------------------------------------

Topologies differ in total number of bonds
Writing topology from bond orders to xtbtopo.mol

 dipole moment from electron density (au)
     X       Y       Z   
   0.3109  -1.3123  -2.5877  total (Debye):    7.417

           -------------------------------------------------
          |                Geometry Summary                 |
           -------------------------------------------------

      molecular mass/u    :      157.1475033
   center of mass at/Å    :       -0.0762562       0.1075804       0.1784587
  moments of inertia/u·Å² :        0.3000480E+03   0.5152887E+03   0.6683244E+03
rotational constants/cm⁻¹ :        0.5618313E-01   0.3271492E-01   0.2522373E-01

 * 17 selected distances

     #   Z          #   Z                                           value/Å
     1   6 C        2   8 O                                       1.4210525
     2   8 O        3   6 C                                       1.3593440
     3   6 C        4   8 O                                       1.2289192
     5   6 C        6   6 C                                       1.5301575 (max)
     8   7 N        9   6 C                                       1.2784316
     9   6 C       10   6 C                                       1.4883125
     5   6 C       11   8 O                                       1.4158516
     9   6 C       11   8 O                                       1.4025611
     1   6 C       12   1 H                                       1.0948595
     1   6 C       13   1 H                                       1.0893369
     1   6 C       14   1 H                                       1.0951467
     6   6 C       15   1 H                                       1.0885773
     6   6 C       16   1 H                                       1.0880255 (min)
     6   6 C       17   1 H                                       1.0886892
    10   6 C       18   1 H                                       1.0920968
    10   6 C       19   1 H                                       1.0925774
    10   6 C       20   1 H                                       1.0888402

 * 4 distinct bonds (by element types)

   Z      Z             #   av. dist./Å        max./Å        min./Å
   1 H    6 C           9     1.0909055     1.0951467     1.0880255
   6 C    6 C           2     1.5092350     1.5301575     1.4883125
   6 C    7 N           1     1.2784316     1.2784316     1.2784316
   6 C    8 O           5     1.3655457     1.4210525     1.2289192


optimized geometry written to: xtbopt.xyz


           -------------------------------------------------
          | TOTAL ENERGY              -38.329150080163 Eh   |
          | GRADIENT NORM               0.000813441637 Eh/α |
          | HOMO-LUMO GAP               2.055249008759 eV   |
           -------------------------------------------------

------------------------------------------------------------------------
 * finished run on 2023/06/20 at 14:53:18.560     
------------------------------------------------------------------------
 total:
 * wall-time:     0 d,  0 h,  0 min,  1.429 sec
 *  cpu-time:     0 d,  0 h,  0 min,  1.330 sec
 * ratio c/w:     0.930 speedup
 SCF:
 * wall-time:     0 d,  0 h,  0 min,  0.076 sec
 *  cpu-time:     0 d,  0 h,  0 min,  0.046 sec
 * ratio c/w:     0.602 speedup
 ANC optimizer:
 * wall-time:     0 d,  0 h,  0 min,  1.268 sec
 *  cpu-time:     0 d,  0 h,  0 min,  1.258 sec
 * ratio c/w:     0.992 speedup

