16
 energy: -34.296763818457 gnorm: 0.000604504350 xtb: 6.5.1 (579679a)
C            3.18308682372297        1.02702605590281       -0.23357623758665
O            1.79515117979207        0.67317847253054       -0.19272861713546
C            1.49319336723087       -0.49038578338910        0.36506606406020
O            2.29833909768616       -1.26051002761139        0.83005670321497
C            0.03369280378047       -0.74988149543940        0.35483098776017
N           -0.57171720076897       -1.79416405744265        0.83673507536921
N           -1.89852587438718       -1.61540196838402        0.61392843856619
C           -2.02578462678896       -0.47194408040925        0.00809286213949
C           -3.27513586417342        0.17350616640349       -0.44811468520876
O           -0.84198266851050        0.12288486394750       -0.18400107079670
H            3.24404668989949        1.96947148978993       -0.77263141110929
H            3.75093032369748        0.25138966809324       -0.75163591707144
H            3.56656500589557        1.14216452137525        0.78225654132054
H           -3.20859728494294        0.39984115918681       -1.51171153621635
H           -3.42534973813654        1.11138749507517        0.08670466120155
H           -4.11791103399654       -0.48856247962896       -0.26489585850769
