      -----------------------------------------------------------      
     |                   =====================                   |     
     |                           x T B                           |     
     |                   =====================                   |     
     |                         S. Grimme                         |     
     |          Mulliken Center for Theoretical Chemistry        |     
     |                    University of Bonn                     |     
      -----------------------------------------------------------      

   * xtb version 6.5.1 (579679a) compiled by 'ehlert@majestix' on 2022-07-11

   xtb is free software: you can redistribute it and/or modify it under
   the terms of the GNU Lesser General Public License as published by
   the Free Software Foundation, either version 3 of the License, or
   (at your option) any later version.
   
   xtb is distributed in the hope that it will be useful,
   but WITHOUT ANY WARRANTY; without even the implied warranty of
   MERCHANTABILITY or FITNESS FOR A PARTICULAR PURPOSE.  See the
   GNU Lesser General Public License for more details.
   
   Cite this work as:
   * C. Bannwarth, E. Caldeweyher, S. Ehlert, A. Hansen, P. Pracht,
     J. Seibert, S. Spicher, S. Grimme, WIREs Comput. Mol. Sci., 2020, 11,
     e01493. DOI: 10.1002/wcms.1493
   
   for GFN2-xTB:
   * C. Bannwarth, S. Ehlert and S. Grimme., J. Chem. Theory Comput., 2019,
     15, 1652-1671. DOI: 10.1021/acs.jctc.8b01176
   for GFN1-xTB:
   * S. Grimme, C. Bannwarth, P. Shushkov, J. Chem. Theory Comput., 2017,
     13, 1989-2009. DOI: 10.1021/acs.jctc.7b00118
   for GFN0-xTB:
   * P. Pracht, E. Caldeweyher, S. Ehlert, S. Grimme, ChemRxiv, 2019, preprint.
     DOI: 10.26434/chemrxiv.8326202.v1
   for GFN-FF:
   * S. Spicher and S. Grimme, Angew. Chem. Int. Ed., 2020, 59, 15665-15673.
     DOI: 10.1002/anie.202004239
   
   for ALPB and GBSA implicit solvation:
   * S. Ehlert, M. Stahn, S. Spicher, S. Grimme, J. Chem. Theory Comput.,
     2021, 17, 4250-4261. DOI: 10.1021/acs.jctc.1c00471
   
   for DFT-D4:
   * E. Caldeweyher, C. Bannwarth and S. Grimme, J. Chem. Phys., 2017,
     147, 034112. DOI: 10.1063/1.4993215
   * E. Caldeweyher, S. Ehlert, A. Hansen, H. Neugebauer, S. Spicher,
     C. Bannwarth and S. Grimme, J. Chem. Phys., 2019, 150, 154122.
     DOI: 10.1063/1.5090222
   * E. Caldeweyher, J.-M. Mewes, S. Ehlert and S. Grimme, Phys. Chem. Chem. Phys.
     2020, 22, 8499-8512. DOI: 10.1039/D0CP00502A
   
   for sTDA-xTB:
   * S. Grimme and C. Bannwarth, J. Chem. Phys., 2016, 145, 054103.
     DOI: 10.1063/1.4959605
   
   in the mass-spec context:
   * V. Asgeirsson, C. Bauer and S. Grimme, Chem. Sci., 2017, 8, 4879.
     DOI: 10.1039/c7sc00601b
   * J. Koopman and S. Grimme, ACS Omega 2019, 4, 12, 15120-15133.
     DOI: 10.1021/acsomega.9b02011
   
   for metadynamics refer to:
   * S. Grimme, J. Chem. Theory Comput., 2019, 155, 2847-2862
     DOI: 10.1021/acs.jctc.9b00143
   
   for SPH calculations refer to:
   * S. Spicher and S. Grimme, J. Chem. Theory Comput., 2021, 17, 1701-1714
     DOI: 10.1021/acs.jctc.0c01306
   
   with help from (in alphabetical order)
   P. Atkinson, C. Bannwarth, F. Bohle, G. Brandenburg, E. Caldeweyher
   M. Checinski, S. Dohm, S. Ehlert, S. Ehrlich, I. Gerasimov, C. Hölzer
   A. Katbashev, J. Koopman, C. Lavigne, S. Lehtola, F. März, M. Müller,
   F. Musil, H. Neugebauer, J. Pisarek, C. Plett, P. Pracht, F. Pultar,
   J. Seibert, P. Shushkov, S. Spicher, M. Stahn, M. Steiner, T. Strunk,
   J. Stückrath, T. Rose, and J. Unsleber
   
 * started run on 2023/06/20 at 15:13:29.070     

           -------------------------------------------------
          |                Calculation Setup                |
           -------------------------------------------------

          program call               : /lustre/hpc/kemi/ree/PhD/git/ReactivityQM/dep/xtb-6.5.1/bin/xtb --gfn 1 /lustre/hpc/kemi/ree/PhD/git/ReactivityQM/calculations/RaltegravirCLI/reac02prodE11/conf05/RaltegravirCLI_reac02prodE11_conf05_gfn1.xyz --opt --vfukui --chrg -1 --uhf 0 --alpb DMSO
          hostname                   : node308
          coordinate file            : /lustre/hpc/kemi/ree/PhD/git/ReactivityQM/calculations/RaltegravirCLI/reac02prodE11/conf05/RaltegravirCLI_reac02prodE11_conf05_gfn1.xyz
          omp threads                :                     1

   ID    Z sym.   atoms
    1    6 C      1, 3-6, 9, 10, 13-17, 19-21, 23, 24
    2    7 N      2, 7, 8, 12
    3    8 O      11, 22, 25
    4    9 F      18
    5    1 H      26-47

           -------------------------------------------------
          |                 G F N 1 - x T B                 |
           -------------------------------------------------

        Reference                      10.1021/acs.jctc.7b00118
      * Hamiltonian:
        H0-scaling (s, p, d)           1.850000    2.250000    2.000000
        zeta-weighting                 0.000000
      * Dispersion:
        s8                             2.400000
        a1                             0.630000
        a2                             5.000000
        s9                             0.000000
      * Repulsion:
        kExp                           1.500000
        rExp                           1.000000
      * Coulomb:
        alpha                          2.000000
        third order                    atomic
        anisotropic                    false
      * Halogen bond correction:
        rad-scale                      1.300000
        damping                        0.440000

      * Solvation model:               ALPB
        Solvent                        DMSO
        Parameter file                 internal GFN1-xTB/ALPB
        Dielectric constant                4.6680E+01
        Reference state                gsolv [1 M gas/solution]
        Free energy shift                  7.6243E-03 Eh       4.7843E+00 kcal/mol
        Temperature                        2.9815E+02 K
        Density                            1.1000E+00 kg/L
        Solvent mass                       7.8130E+01 g/mol
        Interaction kernel             P16
        Born radius scaling (c1)           1.7672E+00
        Born radii integrator          GBOBC
        Born offset                        0.0000E+00 a0       0.0000E+00 AA
        H-bond correction              true
        Ion screening                  false
        Surface tension                    1.0000E-05 Eh       1.5569E+01 dyn/cm
        Grid points                               230 per atom

          ...................................................
          :                      SETUP                      :
          :.................................................:
          :  # basis functions                 144          :
          :  # atomic orbitals                 144          :
          :  # shells                           94          :
          :  # electrons                       136          :
          :  # halogen bonds                     0          :
          :  max. iterations                   250          :
          :  Hamiltonian                  GFN1-xTB          :
          :  restarted?                      false          :
          :  GBSA solvation                   true          :
          :  PC potential                    false          :
          :  electronic temp.          300.0000000     K    :
          :  accuracy                    1.0000000          :
          :  -> integral cutoff          0.2500000E+02      :
          :  -> integral neglect         0.1000000E-07      :
          :  -> SCF convergence          0.1000000E-05 Eh   :
          :  -> wf. convergence          0.2000000E-04 e    :
          :  Broyden damping             0.4000000          :
          ...................................................

 iter      E             dE          RMSdq      gap      omega  full diag
   1    -80.8586735 -0.808587E+02  0.872E+00    2.70       0.0  T
   2    -81.0390366 -0.180363E+00  0.521E+00    2.32       1.0  T
   3    -81.0245552  0.144814E-01  0.110E+00    1.21       1.0  T
   4    -81.0498809 -0.253257E-01  0.213E-01    1.59       1.0  T
   5    -81.0515109 -0.163006E-02  0.574E-02    1.78       1.0  T
   6    -81.0516566 -0.145661E-03  0.130E-02    1.84       1.1  T
   7    -81.0516638 -0.721087E-05  0.396E-03    1.85       3.7  T
   8    -81.0516641 -0.307420E-06  0.145E-03    1.85      10.1  T
   9    -81.0516642 -0.235239E-07  0.599E-04    1.85      24.3  T
  10    -81.0516642 -0.220807E-08  0.120E-04    1.85     121.2  T
  11    -81.0516642 -0.156362E-09  0.362E-05    1.85     403.1  T

   *** convergence criteria satisfied after 11 iterations ***

         #    Occupation            Energy/Eh            Energy/eV
      -------------------------------------------------------------
         1        2.0000           -0.8539797             -23.2380
       ...           ...                  ...                  ...
        62        2.0000           -0.4084107             -11.1134
        63        2.0000           -0.3956846             -10.7671
        64        2.0000           -0.3936034             -10.7105
        65        2.0000           -0.3830624             -10.4237
        66        2.0000           -0.3503352              -9.5331
        67        2.0000           -0.3433013              -9.3417
        68        2.0000           -0.3317884              -9.0284 (HOMO)
        69                         -0.2638333              -7.1793 (LUMO)
        70                         -0.2606258              -7.0920
        71                         -0.2529104              -6.8820
        72                         -0.2151931              -5.8557
        73                         -0.1369180              -3.7257
       ...                                ...                  ...
       144                          0.7116040              19.3637
      -------------------------------------------------------------
                  HL-Gap            0.0679551 Eh            1.8492 eV
             Fermi-level           -0.2978108 Eh           -8.1038 eV

 SCC (total)                   0 d,  0 h,  0 min,  0.280 sec
 SCC setup                      ...        0 min,  0.003 sec (  0.894%)
 Dispersion                     ...        0 min,  0.000 sec (  0.167%)
 classical contributions        ...        0 min,  0.000 sec (  0.053%)
 integral evaluation            ...        0 min,  0.068 sec ( 24.422%)
 iterations                     ...        0 min,  0.046 sec ( 16.291%)
 molecular gradient             ...        0 min,  0.162 sec ( 57.792%)
 printout                       ...        0 min,  0.001 sec (  0.363%)

         :::::::::::::::::::::::::::::::::::::::::::::::::::::
         ::                     SUMMARY                     ::
         :::::::::::::::::::::::::::::::::::::::::::::::::::::
         :: total energy             -80.193619047190 Eh    ::
         :: total w/o Gsasa/hb       -80.168385612446 Eh    ::
         :: gradient norm              0.098448175190 Eh/a0 ::
         :: HOMO-LUMO gap              1.849153081217 eV    ::
         ::.................................................::
         :: SCC energy               -81.051664152924 Eh    ::
         :: -> electrostatic           0.386803419672 Eh    ::
         :: -> Gsolv                  -0.108251269810 Eh    ::
         ::    -> Gelec               -0.083017835067 Eh    ::
         ::    -> Gsasa               -0.024830636263 Eh    ::
         ::    -> Ghb                 -0.008027077485 Eh    ::
         ::    -> Gshift               0.007624279005 Eh    ::
         :: repulsion energy           0.888791559901 Eh    ::
         :: dispersion energy         -0.030746454166 Eh    ::
         :: halogen bond corr.         0.000000000000 Eh    ::
         :: add. restraining           0.000000000000 Eh    ::
         :: total charge              -1.000000000000 e     ::
         :::::::::::::::::::::::::::::::::::::::::::::::::::::

      ----------------------------------------------------------- 
     |                   =====================                   |
     |                        A N C O P T                        |
     |                   =====================                   |
     |               Approximate Normal Coordinate               |
     |                Rational Function Optimizer                |
      ----------------------------------------------------------- 

          ...................................................
          :                      SETUP                      :
          :.................................................:
          :   optimization level            normal          :
          :   max. optcycles                   200          :
          :   ANC micro-cycles                  20          :
          :   degrees of freedom               135          :
          :.................................................:
          :   RF solver                   davidson          :
          :   write xtbopt.log                true          :
          :   linear?                        false          :
          :   energy convergence         0.5000000E-05 Eh   :
          :   grad. convergence          0.1000000E-02 Eh/α :
          :   maximium RF displ.         1.0000000          :
          :   Hlow (freq-cutoff)         0.1000000E-01      :
          :   Hmax (freq-cutoff)         5.0000000          :
          :   S6 in model hess.         20.0000000          :
          ...................................................

generating ANC from model Hessian ...
Using Lindh-Hessian (1995)
 Shifting diagonal of input Hessian by   9.800025976912366E-003
 Lowest  eigenvalues of input Hessian
    0.000000    0.000000    0.000000    0.000000    0.000000    0.000000
    0.010000    0.010064    0.010679    0.010753    0.010944    0.011771
    0.012365    0.013817    0.014739    0.015583    0.016834    0.017281
 Highest eigenvalues
    1.920747    1.946890    2.022461    2.088929    2.126733    2.263750
 

........................................................................
.............................. CYCLE    1 ..............................
........................................................................
   1    -81.0516642 -0.810517E+02  0.116E-05    1.85       0.0  T
   2    -81.0516642 -0.129319E-11  0.501E-06    1.85    2911.9  T
   3    -81.0516642 -0.270006E-12  0.320E-06    1.85    4552.2  T
     SCC iter.                  ...        0 min,  0.013 sec
     gradient                   ...        0 min,  0.103 sec
 * total energy  :   -80.1936190 Eh     change       -0.1421085E-10 Eh
   gradient norm :     0.0984482 Eh/α   predicted     0.0000000E+00 (-100.00%)
   displ. norm   :     0.2718754 α      lambda       -0.1341300E-01
   maximum displ.:     0.0950763 α      in ANC's #30, #55, #75, ...

........................................................................
.............................. CYCLE    2 ..............................
........................................................................
   1    -81.0540152 -0.810540E+02  0.769E-02    1.84       0.0  T
   2    -81.0542696 -0.254302E-03  0.287E-02    1.88       1.0  T
   3    -81.0542960 -0.264656E-04  0.118E-02    1.88       1.2  T
   4    -81.0542972 -0.113917E-05  0.532E-03    1.88       2.7  T
   5    -81.0542972 -0.940702E-07  0.128E-03    1.88      11.4  T
   6    -81.0542973 -0.357880E-07  0.257E-04    1.88      56.8  T
   7    -81.0542973 -0.221225E-08  0.839E-05    1.88     173.9  T
   8    -81.0542973 -0.118959E-09  0.287E-05    1.88     507.4  T
     SCC iter.                  ...        0 min,  0.036 sec
     gradient                   ...        0 min,  0.102 sec
 * total energy  :   -80.2028707 Eh     change       -0.9251654E-02 Eh
   gradient norm :     0.0475176 Eh/α   predicted    -0.7207119E-02 ( -22.10%)
   displ. norm   :     0.2938396 α      lambda       -0.5029022E-02
   maximum displ.:     0.1198679 α      in ANC's #7, #30, #32, ...

........................................................................
.............................. CYCLE    3 ..............................
........................................................................
   1    -81.0584220 -0.810584E+02  0.656E-02    1.86       0.0  T
   2    -81.0586691 -0.247076E-03  0.256E-02    1.87       1.0  T
   3    -81.0586924 -0.232654E-04  0.871E-03    1.87       1.7  T
   4    -81.0586931 -0.731967E-06  0.499E-03    1.87       2.9  T
   5    -81.0586931 -0.543613E-07  0.772E-04    1.87      18.9  T
   6    -81.0586932 -0.150465E-07  0.175E-04    1.87      83.2  T
   7    -81.0586932 -0.653358E-09  0.595E-05    1.87     245.2  T
     SCC iter.                  ...        0 min,  0.033 sec
     gradient                   ...        0 min,  0.103 sec
 * total energy  :   -80.2059042 Eh     change       -0.3033490E-02 Eh
   gradient norm :     0.0144404 Eh/α   predicted    -0.2734683E-02 (  -9.85%)
   displ. norm   :     0.2396866 α      lambda       -0.1202763E-02
   maximum displ.:     0.1192901 α      in ANC's #7, #8, #9, ...

........................................................................
.............................. CYCLE    4 ..............................
........................................................................
   1    -81.0600867 -0.810601E+02  0.258E-02    1.87       0.0  T
   2    -81.0601357 -0.490224E-04  0.106E-02    1.87       1.4  T
   3    -81.0601389 -0.315746E-05  0.419E-03    1.87       3.5  T
   4    -81.0601391 -0.240343E-06  0.259E-03    1.87       5.6  T
   5    -81.0601391 -0.181652E-07  0.468E-04    1.87      31.1  T
   6    -81.0601391 -0.406072E-08  0.120E-04    1.87     121.4  T
   7    -81.0601391 -0.520586E-09  0.388E-05    1.87     376.1  T
     SCC iter.                  ...        0 min,  0.032 sec
     gradient                   ...        0 min,  0.104 sec
 * total energy  :   -80.2068679 Eh     change       -0.9637531E-03 Eh
   gradient norm :     0.0127696 Eh/α   predicted    -0.6359837E-03 ( -34.01%)
   displ. norm   :     0.4505585 α      lambda       -0.1807090E-02
   maximum displ.:     0.1991834 α      in ANC's #7, #34, #9, ...

........................................................................
.............................. CYCLE    5 ..............................
........................................................................
   1    -81.0604008 -0.810604E+02  0.501E-02    1.90       0.0  T
   2    -81.0605665 -0.165773E-03  0.184E-02    1.89       1.0  T
   3    -81.0605756 -0.912034E-05  0.828E-03    1.89       1.8  T
   4    -81.0605770 -0.136293E-05  0.468E-03    1.89       3.1  T
   5    -81.0605771 -0.617197E-07  0.682E-04    1.90      21.4  T
   6    -81.0605771 -0.551064E-08  0.183E-04    1.90      79.5  T
   7    -81.0605771 -0.950664E-09  0.593E-05    1.90     246.0  T
     SCC iter.                  ...        0 min,  0.033 sec
     gradient                   ...        0 min,  0.106 sec
 * total energy  :   -80.2082898 Eh     change       -0.1421859E-02 Eh
   gradient norm :     0.0253738 Eh/α   predicted    -0.1086986E-02 ( -23.55%)
   displ. norm   :     0.5725362 α      lambda       -0.2239010E-02
   maximum displ.:     0.2190155 α      in ANC's #34, #7, #30, ...

........................................................................
.............................. CYCLE    6 ..............................
........................................................................
   1    -81.0580509 -0.810581E+02  0.117E-01    1.95       0.0  T
   2    -81.0588250 -0.774116E-03  0.313E-02    1.93       1.0  T
   3    -81.0588532 -0.282250E-04  0.133E-02    1.94       1.1  T
   4    -81.0588581 -0.490750E-05  0.703E-03    1.94       2.1  T
   5    -81.0588584 -0.257045E-06  0.163E-03    1.94       9.0  T
   6    -81.0588584 -0.140358E-07  0.326E-04    1.94      44.7  T
   7    -81.0588584 -0.274950E-08  0.113E-04    1.94     129.1  T
   8    -81.0588584 -0.120153E-09  0.515E-05    1.94     283.2  T
     SCC iter.                  ...        0 min,  0.038 sec
     gradient                   ...        0 min,  0.105 sec
 * total energy  :   -80.2103374 Eh     change       -0.2047582E-02 Eh
   gradient norm :     0.0531360 Eh/α   predicted    -0.1486598E-02 ( -27.40%)
   displ. norm   :     0.6876885 α      lambda       -0.4106778E-02
   maximum displ.:     0.3080683 α      in ANC's #34, #30, #7, ...

........................................................................
.............................. CYCLE    7 ..............................
........................................................................
   1    -81.0518193 -0.810518E+02  0.254E-01    2.01       0.0  T
   2    -81.0550686 -0.324936E-02  0.560E-02    1.96       1.0  T
   3    -81.0551896 -0.121018E-03  0.223E-02    1.95       1.0  T
   4    -81.0552012 -0.115310E-04  0.110E-02    1.95       1.3  T
   5    -81.0552022 -0.104041E-05  0.366E-03    1.96       4.0  T
   6    -81.0552023 -0.563827E-07  0.670E-04    1.96      21.8  T
   7    -81.0552023 -0.102482E-07  0.240E-04    1.96      60.7  T
   8    -81.0552023 -0.604288E-09  0.946E-05    1.96     154.2  T
   9    -81.0552023 -0.851372E-10  0.301E-05    1.96     485.2  T
     SCC iter.                  ...        0 min,  0.042 sec
     gradient                   ...        0 min,  0.104 sec
 * total energy  :   -80.2087952 Eh     change        0.1542230E-02 Eh
   gradient norm :     0.1092443 Eh/α   predicted    -0.3024453E-02 (-296.11%)
   displ. norm   :     0.2874895 α      lambda       -0.1435748E-01
   maximum displ.:     0.1405069 α      in ANC's #34, #30, #32, ...

........................................................................
.............................. CYCLE    8 ..............................
........................................................................
   1    -81.0600967 -0.810601E+02  0.155E-01    1.94       0.0  T
   2    -81.0616756 -0.157884E-02  0.493E-02    1.98       1.0  T
   3    -81.0617693 -0.937479E-04  0.153E-02    1.99       1.0  T
   4    -81.0617787 -0.942361E-05  0.724E-03    1.99       2.0  T
   5    -81.0617790 -0.292736E-06  0.257E-03    1.99       5.7  T
   6    -81.0617790 -0.146455E-07  0.566E-04    1.99      25.8  T
   7    -81.0617790 -0.871050E-08  0.240E-04    1.99      60.8  T
   8    -81.0617790 -0.719808E-09  0.756E-05    1.99     193.0  T
   9    -81.0617790 -0.422347E-10  0.221E-05    1.99     658.9  T
     SCC iter.                  ...        0 min,  0.045 sec
     gradient                   ...        0 min,  0.106 sec
 * total energy  :   -80.2143293 Eh     change       -0.5534133E-02 Eh
   gradient norm :     0.0513353 Eh/α   predicted    -0.7772149E-02 (  40.44%)
   displ. norm   :     0.1781263 α      lambda       -0.3688709E-02
   maximum displ.:     0.0987374 α      in ANC's #7, #44, #11, ...

........................................................................
.............................. CYCLE    9 ..............................
........................................................................
   1    -81.0648646 -0.810649E+02  0.415E-02    1.97       0.0  T
   2    -81.0649316 -0.670063E-04  0.172E-02    1.98       1.0  T
   3    -81.0649436 -0.119780E-04  0.672E-03    1.98       2.2  T
   4    -81.0649437 -0.176487E-06  0.258E-03    1.98       5.6  T
   5    -81.0649438 -0.288682E-07  0.396E-04    1.98      36.8  T
   6    -81.0649438 -0.390328E-08  0.919E-05    1.98     158.8  T
   7    -81.0649438 -0.194888E-09  0.429E-05    1.98     340.2  T
     SCC iter.                  ...        0 min,  0.039 sec
     gradient                   ...        0 min,  0.107 sec
 * total energy  :   -80.2169978 Eh     change       -0.2668467E-02 Eh
   gradient norm :     0.0418065 Eh/α   predicted    -0.1902873E-02 ( -28.69%)
   displ. norm   :     0.3891917 α      lambda       -0.7045542E-02
   maximum displ.:     0.1182799 α      in ANC's #30, #23, #29, ...

........................................................................
.............................. CYCLE   10 ..............................
........................................................................
   1    -81.0718852 -0.810719E+02  0.172E-01    1.94       0.0  T
   2    -81.0729799 -0.109465E-02  0.472E-02    1.95       1.0  T
   3    -81.0730689 -0.889850E-04  0.190E-02    1.94       1.0  T
   4    -81.0730779 -0.907263E-05  0.800E-03    1.94       1.8  T
   5    -81.0730782 -0.251879E-06  0.214E-03    1.95       6.8  T
   6    -81.0730783 -0.772304E-07  0.429E-04    1.95      34.0  T
   7    -81.0730783 -0.350350E-08  0.197E-04    1.95      74.1  T
   8    -81.0730783 -0.554479E-09  0.791E-05    1.95     184.4  T
     SCC iter.                  ...        0 min,  0.044 sec
     gradient                   ...        0 min,  0.105 sec
 * total energy  :   -80.2212859 Eh     change       -0.4288127E-02 Eh
   gradient norm :     0.0491599 Eh/α   predicted    -0.4056405E-02 (  -5.40%)
   displ. norm   :     0.1927687 α      lambda       -0.3402246E-02
   maximum displ.:     0.0561259 α      in ANC's #7, #10, #13, ...

........................................................................
.............................. CYCLE   11 ..............................
........................................................................
   1    -81.0708938 -0.810709E+02  0.396E-02    1.93       0.0  T
   2    -81.0709386 -0.448110E-04  0.155E-02    1.94       1.0  T
   3    -81.0709430 -0.434385E-05  0.707E-03    1.94       2.1  T
   4    -81.0709437 -0.752879E-06  0.203E-03    1.94       7.2  T
   5    -81.0709437 -0.279646E-07  0.587E-04    1.94      24.8  T
   6    -81.0709438 -0.402736E-08  0.147E-04    1.94      99.0  T
   7    -81.0709438 -0.263270E-09  0.503E-05    1.94     289.7  T
     SCC iter.                  ...        0 min,  0.034 sec
     gradient                   ...        0 min,  0.105 sec
 * total energy  :   -80.2235868 Eh     change       -0.2300884E-02 Eh
   gradient norm :     0.0384643 Eh/α   predicted    -0.1764339E-02 ( -23.32%)
   displ. norm   :     0.2529864 α      lambda       -0.3699076E-02
   maximum displ.:     0.0756115 α      in ANC's #24, #7, #30, ...

........................................................................
.............................. CYCLE   12 ..............................
........................................................................
   1    -81.0758379 -0.810758E+02  0.880E-02    1.94       0.0  T
   2    -81.0761026 -0.264687E-03  0.251E-02    1.93       1.0  T
   3    -81.0761297 -0.271211E-04  0.961E-03    1.94       1.5  T
   4    -81.0761317 -0.198482E-05  0.348E-03    1.94       4.2  T
   5    -81.0761317 -0.359254E-07  0.107E-03    1.94      13.7  T
   6    -81.0761317 -0.121314E-07  0.175E-04    1.94      83.5  T
   7    -81.0761317 -0.597595E-09  0.774E-05    1.94     188.5  T
     SCC iter.                  ...        0 min,  0.033 sec
     gradient                   ...        0 min,  0.105 sec
 * total energy  :   -80.2260439 Eh     change       -0.2457171E-02 Eh
   gradient norm :     0.0374065 Eh/α   predicted    -0.1967925E-02 ( -19.91%)
   displ. norm   :     0.2188097 α      lambda       -0.3721199E-02
   maximum displ.:     0.0736035 α      in ANC's #3, #116, #117, ...

........................................................................
.............................. CYCLE   13 ..............................
........................................................................
   1    -81.0759925 -0.810760E+02  0.620E-02    1.96       0.0  T
   2    -81.0761018 -0.109308E-03  0.194E-02    1.95       1.0  T
   3    -81.0761086 -0.675305E-05  0.100E-02    1.95       1.5  T
   4    -81.0761096 -0.103804E-05  0.376E-03    1.95       3.9  T
   5    -81.0761097 -0.747808E-07  0.105E-03    1.95      13.9  T
   6    -81.0761097 -0.105322E-07  0.156E-04    1.95      93.3  T
   7    -81.0761097 -0.649422E-09  0.643E-05    1.95     226.8  T
     SCC iter.                  ...        0 min,  0.024 sec
     gradient                   ...        0 min,  0.087 sec
 * total energy  :   -80.2285342 Eh     change       -0.2490289E-02 Eh
   gradient norm :     0.0321637 Eh/α   predicted    -0.1949681E-02 ( -21.71%)
   displ. norm   :     0.2981410 α      lambda       -0.3505829E-02
   maximum displ.:     0.1048711 α      in ANC's #116, #3, #117, ...

........................................................................
.............................. CYCLE   14 ..............................
........................................................................
   1    -81.0813890 -0.810814E+02  0.662E-02    1.96       0.0  T
   2    -81.0815690 -0.179973E-03  0.194E-02    1.95       1.0  T
   3    -81.0815818 -0.128450E-04  0.102E-02    1.95       1.4  T
   4    -81.0815832 -0.134987E-05  0.542E-03    1.95       2.7  T
   5    -81.0815832 -0.701160E-07  0.108E-03    1.95      13.6  T
   6    -81.0815833 -0.180656E-07  0.254E-04    1.95      57.5  T
   7    -81.0815833 -0.108024E-08  0.117E-04    1.95     124.9  T
   8    -81.0815833 -0.192401E-09  0.348E-05    1.95     419.6  T
     SCC iter.                  ...        0 min,  0.039 sec
     gradient                   ...        0 min,  0.100 sec
 * total energy  :   -80.2305939 Eh     change       -0.2059660E-02 Eh
   gradient norm :     0.0317949 Eh/α   predicted    -0.1908728E-02 (  -7.33%)
   displ. norm   :     0.2859657 α      lambda       -0.3315435E-02
   maximum displ.:     0.0970272 α      in ANC's #116, #3, #8, ...

........................................................................
.............................. CYCLE   15 ..............................
........................................................................
   1    -81.0833897 -0.810834E+02  0.483E-02    1.94       0.0  T
   2    -81.0835140 -0.124274E-03  0.151E-02    1.94       1.0  T
   3    -81.0835214 -0.739376E-05  0.601E-03    1.94       2.4  T
   4    -81.0835220 -0.600985E-06  0.248E-03    1.94       5.9  T
   5    -81.0835220 -0.282873E-07  0.109E-03    1.94      13.4  T
   6    -81.0835220 -0.733753E-08  0.144E-04    1.94     101.1  T
   7    -81.0835220 -0.557307E-09  0.518E-05    1.94     281.4  T
     SCC iter.                  ...        0 min,  0.035 sec
     gradient                   ...        0 min,  0.101 sec
 * total energy  :   -80.2324553 Eh     change       -0.1861404E-02 Eh
   gradient norm :     0.0217780 Eh/α   predicted    -0.1793289E-02 (  -3.66%)
   displ. norm   :     0.1948346 α      lambda       -0.1064909E-02
   maximum displ.:     0.0728927 α      in ANC's #3, #116, #4, ...

........................................................................
.............................. CYCLE   16 ..............................
........................................................................
   1    -81.0848681 -0.810849E+02  0.214E-02    1.91       0.0  T
   2    -81.0848904 -0.223643E-04  0.110E-02    1.92       1.3  T
   3    -81.0848928 -0.236798E-05  0.576E-03    1.92       2.5  T
   4    -81.0848929 -0.107459E-06  0.186E-03    1.92       7.8  T
   5    -81.0848929 -0.169032E-07  0.342E-04    1.92      42.7  T
   6    -81.0848929 -0.243617E-08  0.619E-05    1.92     235.7  T
   7    -81.0848929 -0.609504E-10  0.265E-05    1.92     550.3  T
     SCC iter.                  ...        0 min,  0.031 sec
     gradient                   ...        0 min,  0.099 sec
 * total energy  :   -80.2331815 Eh     change       -0.7261854E-03 Eh
   gradient norm :     0.0121671 Eh/α   predicted    -0.5526700E-03 ( -23.89%)
   displ. norm   :     0.1862121 α      lambda       -0.5341939E-03
   maximum displ.:     0.0744455 α      in ANC's #4, #3, #7, ...

........................................................................
.............................. CYCLE   17 ..............................
........................................................................
   1    -81.0875585 -0.810876E+02  0.141E-02    1.89       0.0  T
   2    -81.0875666 -0.805188E-05  0.713E-03    1.90       2.0  T
   3    -81.0875672 -0.571859E-06  0.394E-03    1.90       3.7  T
   4    -81.0875672 -0.497007E-07  0.122E-03    1.90      12.0  T
   5    -81.0875672 -0.986439E-08  0.214E-04    1.90      68.3  T
   6    -81.0875672 -0.129371E-08  0.466E-05    1.90     312.9  T
   7    -81.0875672 -0.351719E-10  0.184E-05    1.90     794.7  T
     SCC iter.                  ...        0 min,  0.030 sec
     gradient                   ...        0 min,  0.099 sec
 * total energy  :   -80.2334751 Eh     change       -0.2936102E-03 Eh
   gradient norm :     0.0068503 Eh/α   predicted    -0.2763610E-03 (  -5.87%)
   displ. norm   :     0.0984494 α      lambda       -0.1358292E-03
   maximum displ.:     0.0468125 α      in ANC's #4, #3, #7, ...

........................................................................
.............................. CYCLE   18 ..............................
........................................................................
   1    -81.0862207 -0.810862E+02  0.833E-03    1.89       0.0  T
   2    -81.0862215 -0.809549E-06  0.404E-03    1.89       3.6  T
   3    -81.0862216 -0.256289E-07  0.165E-03    1.89       8.8  T
   4    -81.0862216 -0.613679E-08  0.382E-04    1.89      38.2  T
   5    -81.0862216 -0.207707E-08  0.106E-04    1.89     137.9  T
   6    -81.0862216 -0.212751E-09  0.240E-05    1.89     606.9  T
     SCC iter.                  ...        0 min,  0.026 sec
     gradient                   ...        0 min,  0.098 sec
 * total energy  :   -80.2335501 Eh     change       -0.7501492E-04 Eh
   gradient norm :     0.0037569 Eh/α   predicted    -0.6857419E-04 (  -8.59%)
   displ. norm   :     0.0864316 α      lambda       -0.6531658E-04
   maximum displ.:     0.0499083 α      in ANC's #4, #3, #7, ...

........................................................................
.............................. CYCLE   19 ..............................
........................................................................
   1    -81.0866538 -0.810867E+02  0.427E-03    1.89       0.0  T
   2    -81.0866547 -0.962053E-06  0.214E-03    1.89       6.8  T
   3    -81.0866548 -0.121661E-06  0.907E-04    1.89      16.1  T
   4    -81.0866548 -0.127508E-08  0.341E-04    1.89      42.8  T
   5    -81.0866548 -0.900641E-09  0.702E-05    1.89     207.7  T
   6    -81.0866548 -0.812008E-10  0.140E-05    1.89    1039.2  T
     SCC iter.                  ...        0 min,  0.026 sec
     gradient                   ...        0 min,  0.099 sec
 * total energy  :   -80.2336000 Eh     change       -0.4986067E-04 Eh
   gradient norm :     0.0021949 Eh/α   predicted    -0.3290771E-04 ( -34.00%)
   displ. norm   :     0.1268655 α      lambda       -0.6595708E-04
   maximum displ.:     0.0745429 α      in ANC's #4, #3, #7, ...

........................................................................
.............................. CYCLE   20 ..............................
........................................................................
   1    -81.0870867 -0.810871E+02  0.433E-03    1.89       0.0  T
   2    -81.0870878 -0.109892E-05  0.215E-03    1.89       6.8  T
   3    -81.0870879 -0.154101E-06  0.826E-04    1.89      17.7  T
   4    -81.0870879 -0.295265E-08  0.364E-04    1.89      40.1  T
   5    -81.0870879 -0.564157E-09  0.101E-04    1.89     144.8  T
   6    -81.0870879 -0.849951E-10  0.125E-05    1.89    1164.5  T
     SCC iter.                  ...        0 min,  0.026 sec
     gradient                   ...        0 min,  0.098 sec
 * total energy  :   -80.2336463 Eh     change       -0.4633594E-04 Eh
   gradient norm :     0.0024137 Eh/α   predicted    -0.3351161E-04 ( -27.68%)
   displ. norm   :     0.1162891 α      lambda       -0.3877497E-04
   maximum displ.:     0.0694234 α      in ANC's #4, #3, #5, ...
 * RMSD in coord.:     0.4225657 α      energy gain  -0.4002725E-01 Eh

generating ANC from model Hessian ...
Using Lindh-Hessian (1995)
 Shifting diagonal of input Hessian by   9.803166217505663E-003
 Lowest  eigenvalues of input Hessian
    0.000000    0.000000    0.000000    0.000000    0.000000    0.000000
    0.010000    0.010052    0.010688    0.010700    0.010969    0.011733
    0.012307    0.014124    0.014512    0.015764    0.016767    0.017426
 Highest eigenvalues
    1.904930    2.018114    2.053132    2.092738    2.147577    2.280634
 

........................................................................
.............................. CYCLE   21 ..............................
........................................................................
   1    -81.0873056 -0.810873E+02  0.265E-03    1.89       0.0  T
   2    -81.0873060 -0.318574E-06  0.120E-03    1.89      12.2  T
   3    -81.0873060 -0.577292E-07  0.335E-04    1.89      43.5  T
   4    -81.0873060 -0.961052E-09  0.155E-04    1.89      93.9  T
   5    -81.0873060 -0.594866E-10  0.413E-05    1.89     352.8  T
     SCC iter.                  ...        0 min,  0.022 sec
     gradient                   ...        0 min,  0.099 sec
 * total energy  :   -80.2336781 Eh     change       -0.3183492E-04 Eh
   gradient norm :     0.0026975 Eh/α   predicted     0.0000000E+00 (-100.00%)
   displ. norm   :     0.0326242 α      lambda       -0.2320658E-04
   maximum displ.:     0.0225243 α      in ANC's #4, #3, #5, ...

........................................................................
.............................. CYCLE   22 ..............................
........................................................................
   1    -81.0874386 -0.810874E+02  0.168E-03    1.89       0.0  T
   2    -81.0874388 -0.151847E-06  0.821E-04    1.89      17.8  T
   3    -81.0874388 -0.114563E-07  0.424E-04    1.89      34.4  T
   4    -81.0874388 -0.109523E-09  0.152E-04    1.89      96.2  T
   5    -81.0874388 -0.308120E-09  0.320E-05    1.89     455.8  T
     SCC iter.                  ...        0 min,  0.022 sec
     gradient                   ...        0 min,  0.100 sec
 * total energy  :   -80.2336982 Eh     change       -0.2002779E-04 Eh
   gradient norm :     0.0014180 Eh/α   predicted    -0.1197208E-04 ( -40.22%)
   displ. norm   :     0.1424197 α      lambda       -0.4354940E-04
   maximum displ.:     0.0979930 α      in ANC's #4, #3, #5, ...

........................................................................
.............................. CYCLE   23 ..............................
........................................................................
   1    -81.0874967 -0.810875E+02  0.448E-03    1.90       0.0  T
   2    -81.0874977 -0.101623E-05  0.208E-03    1.90       7.0  T
   3    -81.0874978 -0.915052E-07  0.104E-03    1.90      14.1  T
   4    -81.0874978 -0.173401E-08  0.390E-04    1.90      37.4  T
   5    -81.0874978 -0.152289E-08  0.845E-05    1.90     172.6  T
   6    -81.0874978 -0.903810E-10  0.149E-05    1.90     978.9  T
     SCC iter.                  ...        0 min,  0.025 sec
     gradient                   ...        0 min,  0.099 sec
 * total energy  :   -80.2337349 Eh     change       -0.3673884E-04 Eh
   gradient norm :     0.0027713 Eh/α   predicted    -0.2197139E-04 ( -40.20%)
   displ. norm   :     0.0577537 α      lambda       -0.1909218E-04
   maximum displ.:     0.0411991 α      in ANC's #4, #3, #5, ...

........................................................................
.............................. CYCLE   24 ..............................
........................................................................
   1    -81.0874201 -0.810874E+02  0.885E-04    1.90       0.0  T
   2    -81.0874201 -0.245178E-07  0.490E-04    1.90      29.7  T
   3    -81.0874201 -0.620517E-09  0.262E-04    1.90      55.6  T
   4    -81.0874201 -0.287912E-10  0.390E-05    1.90     373.9  T
   5    -81.0874201 -0.453753E-10  0.106E-05    1.90    1375.2  T
     SCC iter.                  ...        0 min,  0.023 sec
     gradient                   ...        0 min,  0.100 sec
 * total energy  :   -80.2337532 Eh     change       -0.1831445E-04 Eh
   gradient norm :     0.0026270 Eh/α   predicted    -0.9579571E-05 ( -47.69%)
   displ. norm   :     0.1453926 α      lambda       -0.5456620E-04
   maximum displ.:     0.0958639 α      in ANC's #4, #3, #5, ...

........................................................................
.............................. CYCLE   25 ..............................
........................................................................
   1    -81.0871545 -0.810872E+02  0.311E-03    1.90       0.0  T
   2    -81.0871550 -0.483266E-06  0.163E-03    1.90       9.0  T
   3    -81.0871550 -0.217692E-07  0.905E-04    1.90      16.1  T
   4    -81.0871550  0.172179E-09  0.282E-04    1.90      51.8  T
   5    -81.0871550 -0.133335E-08  0.497E-05    1.90     293.4  T
   6    -81.0871550 -0.587761E-10  0.113E-05    1.90    1289.9  T
     SCC iter.                  ...        0 min,  0.021 sec
     gradient                   ...        0 min,  0.103 sec
 * total energy  :   -80.2338006 Eh     change       -0.4738488E-04 Eh
   gradient norm :     0.0014958 Eh/α   predicted    -0.2786330E-04 ( -41.20%)
   displ. norm   :     0.3871493 α      lambda       -0.7255609E-04
   maximum displ.:     0.2515405 α      in ANC's #4, #3, #5, ...

........................................................................
.............................. CYCLE   26 ..............................
........................................................................
   1    -81.0857977 -0.810858E+02  0.705E-03    1.91       0.0  T
   2    -81.0858001 -0.242949E-05  0.371E-03    1.91       3.9  T
   3    -81.0858002 -0.145837E-06  0.202E-03    1.91       7.2  T
   4    -81.0858002 -0.145727E-08  0.677E-04    1.91      21.5  T
   5    -81.0858002 -0.594071E-08  0.113E-04    1.91     128.9  T
   6    -81.0858002 -0.278050E-09  0.294E-05    1.91     496.3  T
     SCC iter.                  ...        0 min,  0.028 sec
     gradient                   ...        0 min,  0.100 sec
 * total energy  :   -80.2338796 Eh     change       -0.7903864E-04 Eh
   gradient norm :     0.0029216 Eh/α   predicted    -0.3869857E-04 ( -51.04%)
   displ. norm   :     0.1994966 α      lambda       -0.4515674E-04
   maximum displ.:     0.1298862 α      in ANC's #4, #3, #5, ...

........................................................................
.............................. CYCLE   27 ..............................
........................................................................
   1    -81.0857957 -0.810858E+02  0.229E-03    1.91       0.0  T
   2    -81.0857959 -0.231143E-06  0.128E-03    1.91      11.4  T
   3    -81.0857959 -0.236011E-07  0.646E-04    1.91      22.6  T
   4    -81.0857959 -0.439783E-09  0.214E-04    1.91      68.0  T
   5    -81.0857959 -0.382087E-09  0.390E-05    1.91     373.8  T
   6    -81.0857959 -0.240021E-10  0.138E-05    1.91    1054.0  T
     SCC iter.                  ...        0 min,  0.026 sec
     gradient                   ...        0 min,  0.098 sec
 * total energy  :   -80.2339221 Eh     change       -0.4248291E-04 Eh
   gradient norm :     0.0030014 Eh/α   predicted    -0.2348466E-04 ( -44.72%)
   displ. norm   :     0.3240599 α      lambda       -0.8712045E-04
   maximum displ.:     0.2088332 α      in ANC's #4, #3, #5, ...

........................................................................
.............................. CYCLE   28 ..............................
........................................................................
   1    -81.0861265 -0.810861E+02  0.325E-03    1.91       0.0  T
   2    -81.0861270 -0.443828E-06  0.184E-03    1.91       7.9  T
   3    -81.0861270 -0.599162E-07  0.864E-04    1.91      16.9  T
   4    -81.0861270 -0.919869E-09  0.262E-04    1.91      55.8  T
   5    -81.0861270 -0.546706E-09  0.562E-05    1.91     259.7  T
   6    -81.0861270 -0.437979E-10  0.217E-05    1.91     671.0  T
     SCC iter.                  ...        0 min,  0.024 sec
     gradient                   ...        0 min,  0.098 sec
 * total energy  :   -80.2340015 Eh     change       -0.7940694E-04 Eh
   gradient norm :     0.0024238 Eh/α   predicted    -0.4813626E-04 ( -39.38%)
   displ. norm   :     0.4581086 α      lambda       -0.1192533E-03
   maximum displ.:     0.2968370 α      in ANC's #4, #3, #5, ...

........................................................................
.............................. CYCLE   29 ..............................
........................................................................
   1    -81.0858849 -0.810859E+02  0.418E-03    1.91       0.0  T
   2    -81.0858856 -0.661860E-06  0.234E-03    1.91       6.2  T
   3    -81.0858857 -0.864436E-07  0.113E-03    1.91      12.9  T
   4    -81.0858857 -0.150692E-08  0.304E-04    1.91      47.9  T
   5    -81.0858857 -0.108074E-08  0.750E-05    1.91     194.4  T
   6    -81.0858857 -0.625278E-10  0.254E-05    1.91     575.0  T
     SCC iter.                  ...        0 min,  0.024 sec
     gradient                   ...        0 min,  0.099 sec
 * total energy  :   -80.2340981 Eh     change       -0.9660970E-04 Eh
   gradient norm :     0.0025352 Eh/α   predicted    -0.7214068E-04 ( -25.33%)
   displ. norm   :     0.4242991 α      lambda       -0.1010193E-03
   maximum displ.:     0.2813111 α      in ANC's #4, #3, #5, ...

........................................................................
.............................. CYCLE   30 ..............................
........................................................................
   1    -81.0862943 -0.810863E+02  0.349E-03    1.91       0.0  T
   2    -81.0862948 -0.485860E-06  0.177E-03    1.91       8.2  T
   3    -81.0862949 -0.486972E-07  0.858E-04    1.91      17.0  T
   4    -81.0862949 -0.111537E-08  0.260E-04    1.91      56.0  T
   5    -81.0862949 -0.877975E-09  0.657E-05    1.91     221.9  T
   6    -81.0862949 -0.382414E-10  0.190E-05    1.91     766.3  T
     SCC iter.                  ...        0 min,  0.024 sec
     gradient                   ...        0 min,  0.098 sec
 * total energy  :   -80.2341769 Eh     change       -0.7872341E-04 Eh
   gradient norm :     0.0028427 Eh/α   predicted    -0.5960676E-04 ( -24.28%)
   displ. norm   :     0.3702067 α      lambda       -0.8793824E-04
   maximum displ.:     0.2521055 α      in ANC's #4, #3, #5, ...

........................................................................
.............................. CYCLE   31 ..............................
........................................................................
   1    -81.0877376 -0.810877E+02  0.323E-03    1.91       0.0  T
   2    -81.0877379 -0.370807E-06  0.146E-03    1.91      10.0  T
   3    -81.0877379 -0.135017E-07  0.790E-04    1.91      18.5  T
   4    -81.0877379 -0.642444E-09  0.171E-04    1.91      85.4  T
   5    -81.0877379 -0.396767E-09  0.565E-05    1.91     258.0  T
     SCC iter.                  ...        0 min,  0.021 sec
     gradient                   ...        0 min,  0.098 sec
 * total energy  :   -80.2342422 Eh     change       -0.6536541E-04 Eh
   gradient norm :     0.0023525 Eh/α   predicted    -0.4999681E-04 ( -23.51%)
   displ. norm   :     0.3687738 α      lambda       -0.5684506E-04
   maximum displ.:     0.2489863 α      in ANC's #4, #3, #5, ...

........................................................................
.............................. CYCLE   32 ..............................
........................................................................
   1    -81.0869054 -0.810869E+02  0.274E-03    1.91       0.0  T
   2    -81.0869057 -0.245555E-06  0.131E-03    1.91      11.1  T
   3    -81.0869057 -0.127297E-07  0.669E-04    1.91      21.8  T
   4    -81.0869057 -0.103333E-08  0.193E-04    1.91      75.7  T
   5    -81.0869057 -0.478678E-09  0.523E-05    1.91     279.1  T
     SCC iter.                  ...        0 min,  0.023 sec
     gradient                   ...        0 min,  0.099 sec
 * total energy  :   -80.2342776 Eh     change       -0.3539668E-04 Eh
   gradient norm :     0.0023586 Eh/α   predicted    -0.3228854E-04 (  -8.78%)
   displ. norm   :     0.1584015 α      lambda       -0.4877799E-04
   maximum displ.:     0.1078154 α      in ANC's #4, #3, #5, ...

........................................................................
.............................. CYCLE   33 ..............................
........................................................................
   1    -81.0900033 -0.810900E+02  0.472E-03    1.91       0.0  T
   2    -81.0900039 -0.617106E-06  0.272E-03    1.91       5.4  T
   3    -81.0900040 -0.672378E-07  0.147E-03    1.91       9.9  T
   4    -81.0900040 -0.232558E-08  0.373E-04    1.91      39.2  T
   5    -81.0900040 -0.164404E-08  0.494E-05    1.91     295.3  T
   6    -81.0900040 -0.459437E-10  0.165E-05    1.91     882.1  T
     SCC iter.                  ...        0 min,  0.028 sec
     gradient                   ...        0 min,  0.100 sec
 * total energy  :   -80.2342928 Eh     change       -0.1516743E-04 Eh
   gradient norm :     0.0022463 Eh/α   predicted    -0.2500367E-04 (  64.85%)
   displ. norm   :     0.1163233 α      lambda       -0.2173486E-04
   maximum displ.:     0.0729762 α      in ANC's #4, #3, #5, ...

........................................................................
.............................. CYCLE   34 ..............................
........................................................................
   1    -81.0882860 -0.810883E+02  0.228E-03    1.91       0.0  T
   2    -81.0882861 -0.563791E-07  0.122E-03    1.91      12.0  T
   3    -81.0882861 -0.199424E-08  0.595E-04    1.91      24.5  T
   4    -81.0882861 -0.953989E-09  0.927E-05    1.91     157.3  T
   5    -81.0882861 -0.256023E-09  0.229E-05    1.91     637.1  T
     SCC iter.                  ...        0 min,  0.022 sec
     gradient                   ...        0 min,  0.100 sec
 * total energy  :   -80.2343058 Eh     change       -0.1297728E-04 Eh
   gradient norm :     0.0009036 Eh/α   predicted    -0.1101482E-04 ( -15.12%)
   displ. norm   :     0.0504796 α      lambda       -0.8609537E-05
   maximum displ.:     0.0213497 α      in ANC's #1, #4, #2, ...

........................................................................
.............................. CYCLE   35 ..............................
........................................................................
   1    -81.0879488 -0.810879E+02  0.158E-03    1.91       0.0  T
   2    -81.0879489 -0.725509E-07  0.760E-04    1.91      19.2  T
   3    -81.0879489 -0.515368E-08  0.410E-04    1.91      35.6  T
   4    -81.0879489 -0.352344E-09  0.116E-04    1.91     125.6  T
   5    -81.0879489 -0.238117E-09  0.243E-05    1.91     600.9  T
     SCC iter.                  ...        0 min,  0.020 sec
     gradient                   ...        0 min,  0.099 sec
 * total energy  :   -80.2343142 Eh     change       -0.8441569E-05 Eh
   gradient norm :     0.0009206 Eh/α   predicted    -0.4310186E-05 ( -48.94%)
   displ. norm   :     0.0593318 α      lambda       -0.6671524E-05
   maximum displ.:     0.0282609 α      in ANC's #3, #1, #10, ...

........................................................................
.............................. CYCLE   36 ..............................
........................................................................
   1    -81.0880888 -0.810881E+02  0.133E-03    1.92       0.0  T
   2    -81.0880889 -0.570130E-07  0.726E-04    1.91      20.1  T
   3    -81.0880889 -0.678845E-08  0.372E-04    1.91      39.2  T
   4    -81.0880889 -0.347455E-09  0.860E-05    1.91     169.5  T
   5    -81.0880889 -0.132189E-09  0.279E-05    1.91     523.5  T
     SCC iter.                  ...        0 min,  0.020 sec
     gradient                   ...        0 min,  0.099 sec
 * total energy  :   -80.2343195 Eh     change       -0.5252996E-05 Eh
   gradient norm :     0.0008962 Eh/α   predicted    -0.3345021E-05 ( -36.32%)
   displ. norm   :     0.0392211 α      lambda       -0.3730300E-05
   maximum displ.:     0.0197422 α      in ANC's #3, #1, #2, ...

........................................................................
.............................. CYCLE   37 ..............................
........................................................................
   1    -81.0882798 -0.810883E+02  0.101E-03    1.92       0.0  T
   2    -81.0882798 -0.145583E-07  0.470E-04    1.92      31.0  T
   3    -81.0882798 -0.858279E-09  0.249E-04    1.92      58.7  T
   4    -81.0882798 -0.515527E-09  0.567E-05    1.92     257.1  T
   5    -81.0882798 -0.294023E-10  0.153E-05    1.92     952.4  T
     SCC iter.                  ...        0 min,  0.020 sec
     gradient                   ...        0 min,  0.074 sec
 * total energy  :   -80.2343226 Eh     change       -0.3126618E-05 Eh
   gradient norm :     0.0008151 Eh/α   predicted    -0.1867699E-05 ( -40.26%)
   displ. norm   :     0.0374383 α      lambda       -0.3169145E-05
   maximum displ.:     0.0221233 α      in ANC's #3, #1, #2, ...

   *** GEOMETRY OPTIMIZATION CONVERGED AFTER 37 ITERATIONS ***

------------------------------------------------------------------------
 total energy gain   :        -0.0407035 Eh      -25.5419 kcal/mol
 total RMSD          :         0.7093414 a0        0.3754 Å
 total power (kW/mol):        -2.8883010 (step)  -16.1749 (real)
------------------------------------------------------------------------

 ANCopt (total)                0 d,  0 h,  0 min,  6.607 sec
 optimizer setup                ...        0 min,  0.001 sec (  0.013%)
 model hessian                  ...        0 min,  0.088 sec (  1.330%)
 ANC generation                 ...        0 min,  0.007 sec (  0.100%)
 coordinate transformation      ...        0 min,  0.002 sec (  0.037%)
 single point calculation       ...        0 min,  6.482 sec ( 98.107%)
 optimization log               ...        0 min,  0.013 sec (  0.204%)
 hessian update                 ...        0 min,  0.002 sec (  0.025%)
 rational function              ...        0 min,  0.007 sec (  0.112%)

================
 final structure:
================
47
 xtb: 6.5.1 (579679a)
C           -3.54096349548973        0.11312904438184        1.65935323196815
N           -2.28490580919226        0.29330369557673        0.93555898390464
C           -2.10715729435516       -0.14071993601981       -0.38250448339460
C           -3.12212637128500       -1.05098428854124       -1.07561384000293
C           -2.96980756196444       -2.48849160452485       -0.55392007604457
C           -2.84764927776932       -1.04046114471877       -2.59067143866342
N           -4.49665120280668       -0.60254691227417       -0.83669961435347
N           -1.02618453388859        0.08278763938082       -1.03300844336442
C            0.05451292254352        0.78633742285553       -0.45592135167628
C            1.30764113850047        0.67000496559634       -1.17586589455821
O            1.47605140965948       -0.04842281560725       -2.17481515927596
N            2.34121501956061        1.47314122314988       -0.72242294012369
C            3.69769163744518        1.19318143277158       -1.16496643138642
C            4.32033022958687        0.08828430155177       -0.33526981421840
C            4.00700184216557       -1.24593630060332       -0.59279567446253
C            4.54171719945660       -2.26219419210332        0.18569309245551
C            5.39086834963460       -1.91710166326944        1.22172944164324
F            5.91514853298495       -2.89859781457434        1.98207134347095
C            5.72858700165397       -0.60709447281696        1.50480829025095
C            5.18167554200879        0.39611661879640        0.71526881460603
C           -0.12578061440645        1.46266957836669        0.74028204852428
O            0.73005858147692        2.03877330906226        1.46430835914236
C           -1.58765849740560        1.53997088225452        1.25751704585540
C           -2.28606299895706        2.76064734489855        0.61359865714244
O           -1.53421692605833        1.71291590709750        2.65143091883252
H           -4.33346095147449        0.76740812572071        1.28249775558380
H           -3.87625456039920       -0.91854917225514        1.57839953318618
H           -3.36764085435174        0.33664124072037        2.71400236595894
H           -1.94372699062153       -2.82813517510164       -0.69729200473332
H           -3.21313914607898       -2.55192165510052        0.50579936730770
H           -3.63791790534200       -3.15500678394490       -1.09915807680446
H           -3.58548810002547       -1.65703190627585       -3.10210425224467
H           -1.85034776528837       -1.42768694292506       -2.80103849394542
H           -2.91223071454836       -0.02232819007987       -2.97383349103148
H           -5.13677454506028       -1.31074041307002       -1.16613996378255
H           -4.67719029141749        0.23518476544293       -1.37619260462655
H            2.26489275118730        1.83537823026125        0.22270056016341
H            4.28832312709099        2.10954787156813       -1.07364880177103
H            3.66379662348121        0.90054901908052       -2.22034885951983
H            3.34095317506969       -1.49243290753513       -1.41356166319541
H            4.31252141370383       -3.30272916250637       -0.00607489566596
H            6.40273590206967       -0.37956778321669        2.31904706112830
H            5.43807303037141        1.42923051134437        0.91908951388278
H           -0.60085170164276        1.95586999615036        2.83939465997014
H           -1.68532226812357        3.64795761274204        0.80653839347313
H           -2.38102030231712        2.61441818405769       -0.46091079759500
H           -3.27326274937965        2.90523131423335        1.04832562798466
 
 Bond Distances (Angstroems)
 ---------------------------
C1-N2=1.4608         C1-H26=1.0946        C1-H27=1.0878        C1-H28=1.0919        N2-C1=1.4608         N2-C3=1.3990         
N2-C23=1.4642        C3-N2=1.3990         C3-C4=1.5294         C3-N8=1.2813         C4-C3=1.5294         C4-C5=1.5368         
C4-C6=1.5398         C4-N7=1.4654         C5-C4=1.5368         C5-H29=1.0903        C5-H30=1.0891        C5-H31=1.0899        
C6-C4=1.5398         C6-H32=1.0891        C6-H33=1.0903        C6-H34=1.0898        N7-C4=1.4654         N7-H35=1.0099        
N7-H36=1.0126        N8-C3=1.2813         N8-C9=1.4128         C9-N8=1.4128         C9-C10=1.4499        C9-C21=1.3859        
C10-C9=1.4499        C10-O11=1.2419       C10-N12=1.3852       O11-C10=1.2419       N12-C10=1.3852       N12-C13=1.4540       
N12-H37=1.0150       C13-N12=1.4540       C13-C14=1.5155       C13-H38=1.0940       C13-H39=1.0957       C14-C13=1.5155       
C14-C15=1.3945       C14-C20=1.3929       C15-C14=1.3945       C15-C16=1.3874       C15-H40=1.0854       C16-C15=1.3874       
C16-C17=1.3833       C16-H41=1.0826       C17-C16=1.3833       C17-F18=1.3477       C17-C19=1.3821       F18-C17=1.3477       
C19-C17=1.3821       C19-C20=1.3889       C19-H42=1.0813       C20-C14=1.3929       C20-C19=1.3889       C20-H43=1.0838       
C21-C9=1.3859        C21-O22=1.2604       C21-C23=1.5526       O22-C21=1.2604       C23-N2=1.4642        C23-C21=1.5526       
C23-C24=1.5468       C23-O25=1.4056       C24-C23=1.5468       C24-H45=1.0888       C24-H46=1.0886       C24-H47=1.0883       
O25-C23=1.4056       O25-H44=0.9826       H26-C1=1.0946        H27-C1=1.0878        H28-C1=1.0919        H29-C5=1.0903        
H30-C5=1.0891        H31-C5=1.0899        H32-C6=1.0891        H33-C6=1.0903        H34-C6=1.0898        H35-N7=1.0099        
H36-N7=1.0126        H37-N12=1.0150       H38-C13=1.0940       H39-C13=1.0957       H40-C15=1.0854       H41-C16=1.0826       
H42-C19=1.0813       H43-C20=1.0838       H44-O25=0.9826       H45-C24=1.0888       H46-C24=1.0886       H47-C24=1.0883       
 C  H  Rav=1.0890 sigma=0.0038  Rmin=1.0813  Rmax=1.0957    18
 C  C  Rav=1.4561 sigma=0.0721  Rmin=1.3821  Rmax=1.5526    14
 N  H  Rav=1.0125 sigma=0.0021  Rmin=1.0099  Rmax=1.0150     3
 N  C  Rav=1.4154 sigma=0.0588  Rmin=1.2813  Rmax=1.4654     8
 O  H  Rav=0.9826 sigma=0.0000  Rmin=0.9826  Rmax=0.9826     1
 O  C  Rav=1.3026 sigma=0.0732  Rmin=1.2419  Rmax=1.4056     3
 F  C  Rav=1.3477 sigma=0.0000  Rmin=1.3477  Rmax=1.3477     1
 
 selected bond angles (degree)
 --------------------
H26-C1-N2=112.22               H27-C1-N2=110.19               H27-C1-H26=108.55              H28-C1-N2=108.47               
H28-C1-H26=108.97              H28-C1-H27=108.36              C3-N2-C1=122.53                C23-N2-C1=113.92               
C23-N2-C3=114.25               C4-C3-N2=121.82                N8-C3-N2=122.10                N8-C3-C4=115.70                
C5-C4-C3=109.70                C6-C4-C3=108.88                C6-C4-C5=108.83                N7-C4-C3=111.50                
N7-C4-C5=108.90                N7-C4-C6=109.00                H29-C5-C4=109.88               H30-C5-C4=111.26               
H30-C5-H29=108.67              H31-C5-C4=109.96               H31-C5-H29=108.70              H31-C5-H30=108.31              
H32-C6-C4=109.72               H33-C6-C4=110.52               H33-C6-H32=109.15              H34-C6-C4=109.99               
H34-C6-H32=108.88              H34-C6-H33=108.55              H35-N7-C4=109.07               H36-N7-C4=109.48               
H36-N7-H35=107.06              C9-N8-C3=121.66                C10-C9-N8=114.73               C21-C9-N8=119.74               
C21-C9-C10=125.46              O11-C10-C9=124.26              N12-C10-C9=115.84              N12-C10-O11=119.83             
 
 selected dihedral angles (degree)
 ---------------------------------
C3-N2-C1-H26=288.71           C3-N2-C1-H27= 49.80           C3-N2-C1-H28=168.26           C23-N2-C1-H26= 73.39          
C23-N2-C1-H27=194.48          C23-N2-C1-H28=312.95          C4-C3-N2-C1=348.93            C4-C3-N2-C23=204.35           
N8-C3-N2-C1=176.31            N8-C3-N2-C23= 31.73           C5-C4-C3-N2=284.09            C5-C4-C3-N8= 97.16            
C6-C4-C3-N2=165.10            C6-C4-C3-N8=338.16            N7-C4-C3-N2= 44.81            N7-C4-C3-N8=217.87            
H29-C5-C4-C3=303.93           H29-C5-C4-C6= 62.95           H29-C5-C4-N7=181.65           H30-C5-C4-C3= 64.32           
H30-C5-C4-C6=183.34           H30-C5-C4-N7=302.04           H31-C5-C4-C3=184.32           H31-C5-C4-C6=303.34           
H31-C5-C4-N7= 62.05           H32-C6-C4-C3=182.00           H32-C6-C4-C5= 62.46           H32-C6-C4-N7=303.83           
H33-C6-C4-C3= 61.59           H33-C6-C4-C5=302.06           H33-C6-C4-N7=183.42           H34-C6-C4-C3=301.75           
H34-C6-C4-C5=182.22           H34-C6-C4-N7= 63.58           H35-N7-C4-C3=189.95           H35-N7-C4-C5=311.14           
H35-N7-C4-C6= 69.73           H36-N7-C4-C3= 73.11           H36-N7-C4-C5=194.29           H36-N7-C4-C6=312.89           
C9-N8-C3-N2=359.88            C9-N8-C3-C4=186.83            C10-C9-N8-C3=165.27           C21-C9-N8-C3=348.10           
O11-C10-C9-N8=355.61          O11-C10-C9-C21=172.59         N12-C10-C9-N8=172.70          N12-C10-C9-C21=349.68         
           -------------------------------------------------
          |                Final Singlepoint                |
           -------------------------------------------------

          ...................................................
          :                      SETUP                      :
          :.................................................:
          :  # basis functions                 144          :
          :  # atomic orbitals                 144          :
          :  # shells                           94          :
          :  # electrons                       136          :
          :  # halogen bonds                     0          :
          :  max. iterations                   250          :
          :  Hamiltonian                  GFN1-xTB          :
          :  restarted?                      false          :
          :  GBSA solvation                   true          :
          :  PC potential                    false          :
          :  electronic temp.          300.0000000     K    :
          :  accuracy                    1.0000000          :
          :  -> integral cutoff          0.2500000E+02      :
          :  -> integral neglect         0.1000000E-07      :
          :  -> SCF convergence          0.1000000E-05 Eh   :
          :  -> wf. convergence          0.2000000E-04 e    :
          :  Broyden damping             0.4000000          :
          ...................................................

 iter      E             dE          RMSdq      gap      omega  full diag
   1    -81.0882798 -0.810883E+02  0.505E-06    1.92       0.0  T
   2    -81.0882798 -0.454747E-12  0.225E-06    1.92    6497.2  T
   3    -81.0882798 -0.426326E-13  0.116E-06    1.92   12538.9  T

   *** convergence criteria satisfied after 3 iterations ***

         #    Occupation            Energy/Eh            Energy/eV
      -------------------------------------------------------------
         1        2.0000           -0.8538411             -23.2342
       ...           ...                  ...                  ...
        62        2.0000           -0.4088219             -11.1246
        63        2.0000           -0.4003692             -10.8946
        64        2.0000           -0.3937641             -10.7149
        65        2.0000           -0.3927564             -10.6874
        66        2.0000           -0.3771496             -10.2628
        67        2.0000           -0.3664087              -9.9705
        68        2.0000           -0.3310757              -9.0090 (HOMO)
        69                         -0.2606604              -7.0929 (LUMO)
        70                         -0.2530241              -6.8851
        71                         -0.2258465              -6.1456
        72                         -0.2073025              -5.6410
        73                         -0.1325631              -3.6072
       ...                                ...                  ...
       144                          0.7025053              19.1161
      -------------------------------------------------------------
                  HL-Gap            0.0704153 Eh            1.9161 eV
             Fermi-level           -0.2958681 Eh           -8.0510 eV

 SCC (total)                   0 d,  0 h,  0 min,  0.158 sec
 SCC setup                      ...        0 min,  0.002 sec (  1.377%)
 Dispersion                     ...        0 min,  0.000 sec (  0.266%)
 classical contributions        ...        0 min,  0.000 sec (  0.085%)
 integral evaluation            ...        0 min,  0.042 sec ( 26.219%)
 iterations                     ...        0 min,  0.013 sec (  8.262%)
 molecular gradient             ...        0 min,  0.100 sec ( 63.126%)
 printout                       ...        0 min,  0.001 sec (  0.632%)

         :::::::::::::::::::::::::::::::::::::::::::::::::::::
         ::                     SUMMARY                     ::
         :::::::::::::::::::::::::::::::::::::::::::::::::::::
         :: total energy             -80.234322589756 Eh    ::
         :: total w/o Gsasa/hb       -80.209414587948 Eh    ::
         :: gradient norm              0.000815823712 Eh/a0 ::
         :: HOMO-LUMO gap              1.916098504870 eV    ::
         ::.................................................::
         :: SCC energy               -81.088279786440 Eh    ::
         :: -> electrostatic           0.351246701405 Eh    ::
         :: -> Gsolv                  -0.103786508615 Eh    ::
         ::    -> Gelec               -0.078878506806 Eh    ::
         ::    -> Gsasa               -0.024718705158 Eh    ::
         ::    -> Ghb                 -0.007813575654 Eh    ::
         ::    -> Gshift               0.007624279005 Eh    ::
         :: repulsion energy           0.885016572134 Eh    ::
         :: dispersion energy         -0.031059375450 Eh    ::
         :: halogen bond corr.         0.000000000000 Eh    ::
         :: add. restraining           0.000000000000 Eh    ::
         :: total charge              -1.000000000000 e     ::
         :::::::::::::::::::::::::::::::::::::::::::::::::::::

           -------------------------------------------------
          |                Property Printout                |
           -------------------------------------------------

    * Orbital Energies and Occupations

         #    Occupation            Energy/Eh            Energy/eV
      -------------------------------------------------------------
         1        2.0000           -0.8538411             -23.2342
       ...           ...                  ...                  ...
        56        2.0000           -0.4605240             -12.5315
        57        2.0000           -0.4568108             -12.4305
        58        2.0000           -0.4445042             -12.0956
        59        2.0000           -0.4402477             -11.9797
        60        2.0000           -0.4387334             -11.9385
        61        2.0000           -0.4250388             -11.5659
        62        2.0000           -0.4088219             -11.1246
        63        2.0000           -0.4003692             -10.8946
        64        2.0000           -0.3937641             -10.7149
        65        2.0000           -0.3927564             -10.6874
        66        2.0000           -0.3771496             -10.2628
        67        2.0000           -0.3664087              -9.9705
        68        2.0000           -0.3310757              -9.0090 (HOMO)
        69                         -0.2606604              -7.0929 (LUMO)
        70                         -0.2530241              -6.8851
        71                         -0.2258465              -6.1456
        72                         -0.2073025              -5.6410
        73                         -0.1325631              -3.6072
        74                         -0.1148435              -3.1250
        75                         -0.1093194              -2.9747
        76                         -0.1061639              -2.8889
        77                         -0.1038448              -2.8258
        78                         -0.1025553              -2.7907
        79                         -0.0960424              -2.6134
       ...                                ...                  ...
       144                          0.7025053              19.1161
      -------------------------------------------------------------
                  HL-Gap            0.0704153 Eh            1.9161 eV
             Fermi-level           -0.2958681 Eh           -8.0510 eV

  Mulliken/CM5 charges         n(s)   n(p)   n(d)
     1C     0.06777 -0.01808   0.980  2.952  0.000
     2N    -0.31540 -0.55548   1.459  3.857  0.000
     3C     0.24010  0.38919   1.019  2.741  0.000
     4C     0.14606  0.18018   1.066  2.788  0.000
     5C    -0.09709 -0.23828   1.016  3.081  0.000
     6C    -0.09661 -0.23610   1.017  3.080  0.000
     7N    -0.51619 -0.97512   1.472  4.044  0.000
     8N    -0.42575 -0.61051   1.537  3.889  0.000
     9C    -0.05806  0.01395   1.031  3.027  0.000
    10C     0.44251  0.54265   0.996  2.561  0.000
    11O    -0.66062 -0.70325   1.742  4.919  0.000
    12N    -0.38532 -0.73518   1.443  3.942  0.000
    13C     0.09885  0.05608   1.001  2.900  0.000
    14C    -0.00591 -0.01578   1.090  2.916  0.000
    15C    -0.01971 -0.07163   1.064  2.956  0.000
    16C    -0.07192 -0.12277   1.058  3.014  0.000
    17C     0.23848  0.24946   1.046  2.716  0.000
    18F    -0.28471 -0.30860   1.833  5.452  0.000
    19C    -0.07054 -0.12161   1.057  3.014  0.000
    20C    -0.03386 -0.08682   1.062  2.972  0.000
    21C     0.27847  0.31791   1.043  2.679  0.000
    22O    -0.66321 -0.72936   1.749  4.914  0.000
    23C     0.32998  0.39364   1.025  2.645  0.000
    24C    -0.11419 -0.25229   1.019  3.095  0.000
    25O    -0.60750 -0.80230   1.713  4.894  0.000
    26H     0.01422  0.07980   0.986  0.000  0.000
    27H     0.01733  0.08494   0.983  0.000  0.000
    28H     0.03131  0.09975   0.969  0.000  0.000
    29H     0.02874  0.08353   0.971  0.000  0.000
    30H     0.02922  0.08600   0.971  0.000  0.000
    31H     0.02988  0.08494   0.970  0.000  0.000
    32H     0.02164  0.07714   0.978  0.000  0.000
    33H     0.02919  0.08769   0.971  0.000  0.000
    34H     0.02506  0.08279   0.975  0.000  0.000
    35H     0.20941  0.40035   0.791  0.000  0.000
    36H     0.20585  0.39615   0.794  0.000  0.000
    37H     0.23301  0.44082   0.767  0.000  0.000
    38H     0.02233  0.08783   0.978  0.000  0.000
    39H     0.03997  0.11079   0.960  0.000  0.000
    40H     0.04792  0.10970   0.952  0.000  0.000
    41H     0.04939  0.10646   0.951  0.000  0.000
    42H     0.05168  0.10889   0.948  0.000  0.000
    43H     0.04034  0.09754   0.960  0.000  0.000
    44H     0.36609  0.55115   0.634  0.000  0.000
    45H     0.03482  0.09137   0.965  0.000  0.000
    46H     0.02612  0.08451   0.974  0.000  0.000
    47H     0.03084  0.08789   0.969  0.000  0.000

Wiberg/Mayer (AO) data.
largest (>0.10) Wiberg bond orders for each atom

 ---------------------------------------------------------------------------
     #   Z sym  total        # sym  WBO       # sym  WBO       # sym  WBO
 ---------------------------------------------------------------------------
     1   6 C    3.965 --    28 H    0.983    27 H    0.982    26 H    0.980
                             2 N    0.959
     2   7 N    3.242 --     3 C    1.089     1 C    0.959    23 C    0.931
                             8 N    0.139
     3   6 C    3.941 --     8 N    1.673     2 N    1.089     4 C    0.971
     4   6 C    3.963 --     6 C    0.991     5 C    0.988     7 N    0.976
                             3 C    0.971
     5   6 C    3.995 --     4 C    0.988    29 H    0.986    31 H    0.985
                            30 H    0.980
     6   6 C    3.996 --     4 C    0.991    32 H    0.987    34 H    0.985
                            33 H    0.983
     7   7 N    2.978 --     4 C    0.976    36 H    0.948    35 H    0.948
     8   7 N    3.015 --     3 C    1.673     9 C    1.058     2 N    0.139
     9   6 C    3.900 --    21 C    1.394    10 C    1.139     8 N    1.058
                            22 O    0.126
    10   6 C    3.900 --    11 O    1.503     9 C    1.139    12 N    1.137
    11   8 O    1.813 --    10 C    1.503    12 N    0.116
    12   7 N    3.229 --    10 C    1.137    13 C    0.962    37 H    0.891
                            11 O    0.116
    13   6 C    3.969 --    14 C    0.994    38 H    0.979    39 H    0.971
                            12 N    0.962
    14   6 C    3.987 --    20 C    1.421    15 C    1.412    13 C    0.994
    15   6 C    3.992 --    16 C    1.447    14 C    1.412    40 H    0.968
                            19 C    0.111
    16   6 C    3.992 --    15 C    1.447    17 C    1.399    41 H    0.971
                            20 C    0.109
    17   6 C    3.856 --    19 C    1.405    16 C    1.399    18 F    0.915
    18   9 F    1.039 --    17 C    0.915
    19   6 C    3.992 --    20 C    1.438    17 C    1.405    42 H    0.970
                            15 C    0.111
    20   6 C    3.994 --    19 C    1.438    14 C    1.421    43 H    0.972
                            16 C    0.109
    21   6 C    3.934 --    22 O    1.439     9 C    1.394    23 C    0.915
    22   8 O    1.850 --    21 C    1.439     9 C    0.126
    23   6 C    3.883 --    24 C    0.966    25 O    0.964     2 N    0.931
                            21 C    0.915
    24   6 C    3.994 --    46 H    0.987    45 H    0.986    47 H    0.984
                            23 C    0.966
    25   8 O    1.898 --    23 C    0.964    44 H    0.821
    26   1 H    1.024 --     1 C    0.980
    27   1 H    1.029 --     1 C    0.982
    28   1 H    1.021 --     1 C    0.983
    29   1 H    1.008 --     5 C    0.986
    30   1 H    1.009 --     5 C    0.980
    31   1 H    1.003 --     5 C    0.985
    32   1 H    1.007 --     6 C    0.987
    33   1 H    1.024 --     6 C    0.983
    34   1 H    1.015 --     6 C    0.985
    35   1 H    0.963 --     7 N    0.948
    36   1 H    0.966 --     7 N    0.948
    37   1 H    0.969 --    12 N    0.891
    38   1 H    1.010 --    13 C    0.979
    39   1 H    1.020 --    13 C    0.971
    40   1 H    1.017 --    15 C    0.968
    41   1 H    1.000 --    16 C    0.971
    42   1 H    0.999 --    19 C    0.970
    43   1 H    1.001 --    20 C    0.972
    44   1 H    0.890 --    25 O    0.821
    45   1 H    1.009 --    24 C    0.986
    46   1 H    1.007 --    24 C    0.987
    47   1 H    1.007 --    24 C    0.984
 ---------------------------------------------------------------------------

Topologies differ in total number of bonds
Writing topology from bond orders to xtbtopo.mol

 dipole moment from electron density (au)
     X       Y       Z   
  -1.7087  -0.4195  -0.0486  total (Debye):    4.474

           -------------------------------------------------
          |                Geometry Summary                 |
           -------------------------------------------------

      molecular mass/u    :      349.3806376
   center of mass at/Å    :        0.6226607       0.0011498       0.1035068
  moments of inertia/u·Å² :        0.1379158E+04   0.4532055E+04   0.4816800E+04
rotational constants/cm⁻¹ :        0.1222314E-01   0.3719644E-02   0.3499757E-02

 * 40 selected distances

     #   Z          #   Z                                           value/Å
     1   6 C        2   7 N                                       1.4608293
     2   7 N        3   6 C                                       1.3990221
     4   6 C        5   6 C                                       1.5368127
     4   6 C        6   6 C                                       1.5397559 (max)
     4   6 C        7   7 N                                       1.4654334
     3   6 C        8   7 N                                       1.2812546
    10   6 C       11   8 O                                       1.2419341
    10   6 C       12   7 N                                       1.3852486
    12   7 N       13   6 C                                       1.4540466
    14   6 C       15   6 C                                       1.3945032
    15   6 C       16   6 C                                       1.3873521
    16   6 C       17   6 C                                       1.3832998
    17   6 C       19   6 C                                       1.3821385
    14   6 C       20   6 C                                       1.3929495
    19   6 C       20   6 C                                       1.3888548
     9   6 C       21   6 C                                       1.3859415
     2   7 N       23   6 C                                       1.4642371
    23   6 C       25   8 O                                       1.4056181
     1   6 C       26   1 H                                       1.0946020
     1   6 C       27   1 H                                       1.0878115
     1   6 C       28   1 H                                       1.0919173
     5   6 C       29   1 H                                       1.0903003
     5   6 C       30   1 H                                       1.0891461
     5   6 C       31   1 H                                       1.0899076
     6   6 C       32   1 H                                       1.0890957
     6   6 C       33   1 H                                       1.0903250
     6   6 C       34   1 H                                       1.0897609
     7   7 N       35   1 H                                       1.0098649
     7   7 N       36   1 H                                       1.0126409
    12   7 N       37   1 H                                       1.0150366
    13   6 C       38   1 H                                       1.0940348
    13   6 C       39   1 H                                       1.0957257
    15   6 C       40   1 H                                       1.0853748
    16   6 C       41   1 H                                       1.0825982
    19   6 C       42   1 H                                       1.0813095
    20   6 C       43   1 H                                       1.0837929
    25   8 O       44   1 H                                       0.9826128 (min)
    24   6 C       45   1 H                                       1.0887768
    24   6 C       46   1 H                                       1.0885636
    24   6 C       47   1 H                                       1.0883270

 * 6 distinct bonds (by element types)

   Z      Z             #   av. dist./Å        max./Å        min./Å
   1 H    6 C          18     1.0889650     1.0957257     1.0813095
   6 C    6 C           9     1.4212898     1.5397559     1.3821385
   1 H    7 N           3     1.0125141     1.0150366     1.0098649
   6 C    7 N           7     1.4157245     1.4654334     1.2812546
   1 H    8 O           1     0.9826128     0.9826128     0.9826128
   6 C    8 O           2     1.3237761     1.4056181     1.2419341


optimized geometry written to: xtbopt.xyz


           -------------------------------------------------
          | TOTAL ENERGY              -80.234322589756 Eh   |
          | GRADIENT NORM               0.000815823712 Eh/α |
          | HOMO-LUMO GAP               1.916098504870 eV   |
           -------------------------------------------------

------------------------------------------------------------------------
 * finished run on 2023/06/20 at 15:13:36.305     
------------------------------------------------------------------------
 total:
 * wall-time:     0 d,  0 h,  0 min,  7.235 sec
 *  cpu-time:     0 d,  0 h,  0 min,  7.002 sec
 * ratio c/w:     0.968 speedup
 SCF:
 * wall-time:     0 d,  0 h,  0 min,  0.281 sec
 *  cpu-time:     0 d,  0 h,  0 min,  0.191 sec
 * ratio c/w:     0.679 speedup
 ANC optimizer:
 * wall-time:     0 d,  0 h,  0 min,  6.779 sec
 *  cpu-time:     0 d,  0 h,  0 min,  6.754 sec
 * ratio c/w:     0.996 speedup

