20
 energy: -38.324870793778 gnorm: 0.000877674566 xtb: 6.5.1 (579679a)
C           -3.24706386314030       -1.73397985212546        0.11347557766460
O           -1.86411695013944       -1.45545235617808        0.14681588675731
C           -1.50758950525174       -0.19248292769370       -0.41058016854569
O           -2.41306423032424        0.52792138043888       -0.91176069525791
C           -0.21235946275340        0.17579913157352       -0.15906125251260
O            0.81182005677524       -0.73693006775591        0.24313146627279
C            1.94231056225434       -0.19955670743201       -0.22477058944631
C            3.22185833316900       -0.92709354544153        0.01136256002769
N            1.85173510053209        0.91166051168910       -0.85009479563367
N            0.45482363038923        1.27422340061756       -0.86433277086135
C            0.32734387653431        2.55128623886813       -0.14140190919974
H           -3.39124742831016       -2.72208626448568        0.55558906705539
H           -3.82183012892623       -0.99657371353618        0.69029808719880
H           -3.63343079557732       -1.74289160309846       -0.91508968838185
H            4.05497232656517       -0.33753952764993       -0.36398737419231
H            3.20601028382680       -1.89320616324895       -0.49411351610528
H            3.35503322372856       -1.10605200187315        1.07769094713495
H            0.65540833290433        2.45879888624119        0.89872921409315
H           -0.72204693372362        2.84242060428336       -0.17042611635420
H            0.93143157146783        3.30173357680761       -0.64959892971341
