42
 energy: -83.003512243927 gnorm: 0.000295332870 xtb: 6.5.1 (579679a)
C           -4.36127706534134        3.60985838831186       -0.93331397987212
O           -3.45088569779023        2.52138594600686       -0.78009628078938
C           -3.82607337332156        1.55207984737663        0.07585786552010
O           -4.87412807782984        1.59908586650284        0.68197069242960
C           -2.82010801071856        0.46931140190848        0.16007404821172
N           -1.71086730120100        0.64516086571703       -0.59317456905458
C           -0.76399163423638       -0.23749403927641       -0.61273823731805
C            0.46021851997742       -0.03955800221583       -1.48615549023503
C            0.39660950470060        1.35135615229905       -2.11860180882717
C            0.52155356968558       -1.11463086978759       -2.57981316127349
N            1.68466834154077       -0.08181197788625       -0.66696786021509
C            2.21078286558622       -1.18060346998465       -0.09910840207530
O            1.69235780477134       -2.29220107538727       -0.08063654977766
C            3.51172262308789       -0.92742840804317        0.55976501788275
N            4.25384920317369       -1.77750143584120        1.19939262517996
N            5.34637653789973       -1.09414361219045        1.63718939721323
C            5.20542777838876        0.13268954142053        1.23957358230759
C            6.11899909748426        1.27230908719442        1.46910091183356
O            4.06457243811331        0.30499079678638        0.55183952986097
N           -0.88096659278408       -1.38492122366850        0.12596414183298
C           -1.92155887889398       -1.63705687421274        0.90825301545660
O           -1.83000947863271       -2.78817397995365        1.55726664562979
C           -2.84505480007473       -3.23893341993492        2.46258158917489
C           -3.03216415060334       -0.67917225897989        0.98857721979869
O           -4.01853467530607       -0.89196620639964        1.70878098800206
H           -4.48929629002960        4.13468947101078        0.01737320291638
H           -5.33375979162194        3.24663896589092       -1.27699919608502
H           -3.92780541267053        4.27855492323464       -1.67437790066812
H           -0.50074890190696        1.43316292086317       -2.73008805821966
H            0.35799653189101        2.11592421675825       -1.34427605122269
H            1.27070180464835        1.51571876972145       -2.74495328012953
H            0.53064159491066       -2.11377583422352       -2.14994570531409
H            1.42321975039445       -0.97641982114703       -3.17367548707895
H           -0.34917793333495       -1.01721088646071       -3.22627889229621
H            2.22672174137699        0.76703623972530       -0.63072096837178
H            7.01979780462996        0.92612195548323        1.96978809559866
H            5.62589028143363        2.02369187816787        2.08597190723049
H            6.37958415283321        1.73656628703902        0.51886204989837
H           -0.11154161774340       -2.06128900156404        0.10046212424622
H           -2.96448651503055       -2.53591683115999        3.28910351742964
H           -2.49234576064722       -4.19971167324477        2.83760460914933
H           -3.79690898681285       -3.36641261986188        1.94395810202803
