      -----------------------------------------------------------      
     |                   =====================                   |     
     |                           x T B                           |     
     |                   =====================                   |     
     |                         S. Grimme                         |     
     |          Mulliken Center for Theoretical Chemistry        |     
     |                    University of Bonn                     |     
      -----------------------------------------------------------      

   * xtb version 6.5.1 (579679a) compiled by 'ehlert@majestix' on 2022-07-11

   xtb is free software: you can redistribute it and/or modify it under
   the terms of the GNU Lesser General Public License as published by
   the Free Software Foundation, either version 3 of the License, or
   (at your option) any later version.
   
   xtb is distributed in the hope that it will be useful,
   but WITHOUT ANY WARRANTY; without even the implied warranty of
   MERCHANTABILITY or FITNESS FOR A PARTICULAR PURPOSE.  See the
   GNU Lesser General Public License for more details.
   
   Cite this work as:
   * C. Bannwarth, E. Caldeweyher, S. Ehlert, A. Hansen, P. Pracht,
     J. Seibert, S. Spicher, S. Grimme, WIREs Comput. Mol. Sci., 2020, 11,
     e01493. DOI: 10.1002/wcms.1493
   
   for GFN2-xTB:
   * C. Bannwarth, S. Ehlert and S. Grimme., J. Chem. Theory Comput., 2019,
     15, 1652-1671. DOI: 10.1021/acs.jctc.8b01176
   for GFN1-xTB:
   * S. Grimme, C. Bannwarth, P. Shushkov, J. Chem. Theory Comput., 2017,
     13, 1989-2009. DOI: 10.1021/acs.jctc.7b00118
   for GFN0-xTB:
   * P. Pracht, E. Caldeweyher, S. Ehlert, S. Grimme, ChemRxiv, 2019, preprint.
     DOI: 10.26434/chemrxiv.8326202.v1
   for GFN-FF:
   * S. Spicher and S. Grimme, Angew. Chem. Int. Ed., 2020, 59, 15665-15673.
     DOI: 10.1002/anie.202004239
   
   for ALPB and GBSA implicit solvation:
   * S. Ehlert, M. Stahn, S. Spicher, S. Grimme, J. Chem. Theory Comput.,
     2021, 17, 4250-4261. DOI: 10.1021/acs.jctc.1c00471
   
   for DFT-D4:
   * E. Caldeweyher, C. Bannwarth and S. Grimme, J. Chem. Phys., 2017,
     147, 034112. DOI: 10.1063/1.4993215
   * E. Caldeweyher, S. Ehlert, A. Hansen, H. Neugebauer, S. Spicher,
     C. Bannwarth and S. Grimme, J. Chem. Phys., 2019, 150, 154122.
     DOI: 10.1063/1.5090222
   * E. Caldeweyher, J.-M. Mewes, S. Ehlert and S. Grimme, Phys. Chem. Chem. Phys.
     2020, 22, 8499-8512. DOI: 10.1039/D0CP00502A
   
   for sTDA-xTB:
   * S. Grimme and C. Bannwarth, J. Chem. Phys., 2016, 145, 054103.
     DOI: 10.1063/1.4959605
   
   in the mass-spec context:
   * V. Asgeirsson, C. Bauer and S. Grimme, Chem. Sci., 2017, 8, 4879.
     DOI: 10.1039/c7sc00601b
   * J. Koopman and S. Grimme, ACS Omega 2019, 4, 12, 15120-15133.
     DOI: 10.1021/acsomega.9b02011
   
   for metadynamics refer to:
   * S. Grimme, J. Chem. Theory Comput., 2019, 155, 2847-2862
     DOI: 10.1021/acs.jctc.9b00143
   
   for SPH calculations refer to:
   * S. Spicher and S. Grimme, J. Chem. Theory Comput., 2021, 17, 1701-1714
     DOI: 10.1021/acs.jctc.0c01306
   
   with help from (in alphabetical order)
   P. Atkinson, C. Bannwarth, F. Bohle, G. Brandenburg, E. Caldeweyher
   M. Checinski, S. Dohm, S. Ehlert, S. Ehrlich, I. Gerasimov, C. Hölzer
   A. Katbashev, J. Koopman, C. Lavigne, S. Lehtola, F. März, M. Müller,
   F. Musil, H. Neugebauer, J. Pisarek, C. Plett, P. Pracht, F. Pultar,
   J. Seibert, P. Shushkov, S. Spicher, M. Stahn, M. Steiner, T. Strunk,
   J. Stückrath, T. Rose, and J. Unsleber
   
 * started run on 2023/06/20 at 15:02:27.924     

           -------------------------------------------------
          |                Calculation Setup                |
           -------------------------------------------------

          program call               : /lustre/hpc/kemi/ree/PhD/git/ReactivityQM/dep/xtb-6.5.1/bin/xtb --gfn 1 /lustre/hpc/kemi/ree/PhD/git/ReactivityQM/calculations/RaltegravirCLI/reac02prodE05/conf11/RaltegravirCLI_reac02prodE05_conf11_gfn1.xyz --opt --vfukui --chrg -1 --uhf 0 --alpb DMSO
          hostname                   : node308
          coordinate file            : /lustre/hpc/kemi/ree/PhD/git/ReactivityQM/calculations/RaltegravirCLI/reac02prodE05/conf11/RaltegravirCLI_reac02prodE05_conf11_gfn1.xyz
          omp threads                :                     1

   ID    Z sym.   atoms
    1    6 C      1, 3, 5-9, 11-13, 15-18, 21, 22, 24
    2    8 O      2, 23, 25
    3    7 N      4, 14, 19, 20
    4    9 F      10
    5    1 H      26-47

           -------------------------------------------------
          |                 G F N 1 - x T B                 |
           -------------------------------------------------

        Reference                      10.1021/acs.jctc.7b00118
      * Hamiltonian:
        H0-scaling (s, p, d)           1.850000    2.250000    2.000000
        zeta-weighting                 0.000000
      * Dispersion:
        s8                             2.400000
        a1                             0.630000
        a2                             5.000000
        s9                             0.000000
      * Repulsion:
        kExp                           1.500000
        rExp                           1.000000
      * Coulomb:
        alpha                          2.000000
        third order                    atomic
        anisotropic                    false
      * Halogen bond correction:
        rad-scale                      1.300000
        damping                        0.440000

      * Solvation model:               ALPB
        Solvent                        DMSO
        Parameter file                 internal GFN1-xTB/ALPB
        Dielectric constant                4.6680E+01
        Reference state                gsolv [1 M gas/solution]
        Free energy shift                  7.6243E-03 Eh       4.7843E+00 kcal/mol
        Temperature                        2.9815E+02 K
        Density                            1.1000E+00 kg/L
        Solvent mass                       7.8130E+01 g/mol
        Interaction kernel             P16
        Born radius scaling (c1)           1.7672E+00
        Born radii integrator          GBOBC
        Born offset                        0.0000E+00 a0       0.0000E+00 AA
        H-bond correction              true
        Ion screening                  false
        Surface tension                    1.0000E-05 Eh       1.5569E+01 dyn/cm
        Grid points                               230 per atom

          ...................................................
          :                      SETUP                      :
          :.................................................:
          :  # basis functions                 144          :
          :  # atomic orbitals                 144          :
          :  # shells                           94          :
          :  # electrons                       136          :
          :  # halogen bonds                     0          :
          :  max. iterations                   250          :
          :  Hamiltonian                  GFN1-xTB          :
          :  restarted?                      false          :
          :  GBSA solvation                   true          :
          :  PC potential                    false          :
          :  electronic temp.          300.0000000     K    :
          :  accuracy                    1.0000000          :
          :  -> integral cutoff          0.2500000E+02      :
          :  -> integral neglect         0.1000000E-07      :
          :  -> SCF convergence          0.1000000E-05 Eh   :
          :  -> wf. convergence          0.2000000E-04 e    :
          :  Broyden damping             0.4000000          :
          ...................................................

 iter      E             dE          RMSdq      gap      omega  full diag
   1    -80.8389134 -0.808389E+02  0.881E+00    1.64       0.0  T
   2    -80.9893483 -0.150435E+00  0.529E+00    0.67       1.0  T
   3    -80.5355937  0.453755E+00  0.229E+00    0.22       1.0  T
   4    -80.9636549 -0.428061E+00  0.851E-01    1.49       1.0  T
   5    -80.9938879 -0.302331E-01  0.413E-01    1.23       1.0  T
   6    -80.9988122 -0.492427E-02  0.288E-01    0.96       1.0  T
   7    -81.0014186 -0.260643E-02  0.193E-01    0.61       1.0  T
   8    -81.0035872 -0.216856E-02  0.873E-02    0.28       1.0  T
   9    -81.0038352 -0.248043E-03  0.406E-02    0.17       1.0  T
  10    -81.0029466  0.888580E-03  0.100E-01    0.34       1.0  T
  11    -81.0039209 -0.974256E-03  0.368E-02    0.23       1.0  T
  12    -81.0037264  0.194496E-03  0.507E-02    0.17       1.0  T
  13    -81.0039971 -0.270708E-03  0.258E-02    0.22       1.0  T
  14    -81.0040760 -0.788836E-04  0.482E-03    0.20       3.0  T
  15    -81.0040782 -0.226044E-05  0.119E-03    0.20      12.2  T
  16    -81.0040782  0.724786E-07  0.134E-03    0.20      10.9  T
  17    -81.0040784 -0.229232E-06  0.956E-05    0.20     152.6  T
  18    -81.0040784 -0.125465E-08  0.163E-05    0.20     895.4  T

   *** convergence criteria satisfied after 18 iterations ***

         #    Occupation            Energy/Eh            Energy/eV
      -------------------------------------------------------------
         1        2.0000           -0.8437344             -22.9592
       ...           ...                  ...                  ...
        62        2.0000           -0.4070177             -11.0755
        63        2.0000           -0.3939915             -10.7211
        64        2.0000           -0.3869404             -10.5292
        65        2.0000           -0.3791638             -10.3176
        66        2.0000           -0.3654245              -9.9437
        67        2.0000           -0.3426675              -9.3245
        68        1.9578           -0.2600229              -7.0756 (HOMO)
        69        0.0418           -0.2527239              -6.8770 (LUMO)
        70        0.0004           -0.2482882              -6.7563
        71                         -0.2183112              -5.9406
        72                         -0.1663850              -4.5276
        73                         -0.1253268              -3.4103
       ...                                ...                  ...
       144                          0.7127212              19.3941
      -------------------------------------------------------------
                  HL-Gap            0.0072990 Eh            0.1986 eV
             Fermi-level           -0.2563781 Eh           -6.9764 eV

 SCC (total)                   0 d,  0 h,  0 min,  0.310 sec
 SCC setup                      ...        0 min,  0.002 sec (  0.789%)
 Dispersion                     ...        0 min,  0.001 sec (  0.163%)
 classical contributions        ...        0 min,  0.000 sec (  0.049%)
 integral evaluation            ...        0 min,  0.081 sec ( 26.262%)
 iterations                     ...        0 min,  0.125 sec ( 40.250%)
 molecular gradient             ...        0 min,  0.100 sec ( 32.195%)
 printout                       ...        0 min,  0.001 sec (  0.279%)

         :::::::::::::::::::::::::::::::::::::::::::::::::::::
         ::                     SUMMARY                     ::
         :::::::::::::::::::::::::::::::::::::::::::::::::::::
         :: total energy             -80.142126404619 Eh    ::
         :: total w/o Gsasa/hb       -80.118032621883 Eh    ::
         :: gradient norm              0.146481178446 Eh/a0 ::
         :: HOMO-LUMO gap              0.198616013816 eV    ::
         ::.................................................::
         :: SCC energy               -81.004078401070 Eh    ::
         :: -> electrostatic           0.339231531760 Eh    ::
         :: -> Gsolv                  -0.115310957963 Eh    ::
         ::    -> Gelec               -0.091217175227 Eh    ::
         ::    -> Gsasa               -0.024883434212 Eh    ::
         ::    -> Ghb                 -0.006834627529 Eh    ::
         ::    -> Gshift               0.007624279005 Eh    ::
         :: repulsion energy           0.892910626377 Eh    ::
         :: dispersion energy         -0.030958629926 Eh    ::
         :: halogen bond corr.         0.000000000000 Eh    ::
         :: add. restraining           0.000000000000 Eh    ::
         :: total charge              -1.000000000001 e     ::
         :::::::::::::::::::::::::::::::::::::::::::::::::::::

      ----------------------------------------------------------- 
     |                   =====================                   |
     |                        A N C O P T                        |
     |                   =====================                   |
     |               Approximate Normal Coordinate               |
     |                Rational Function Optimizer                |
      ----------------------------------------------------------- 

          ...................................................
          :                      SETUP                      :
          :.................................................:
          :   optimization level            normal          :
          :   max. optcycles                   200          :
          :   ANC micro-cycles                  20          :
          :   degrees of freedom               135          :
          :.................................................:
          :   RF solver                   davidson          :
          :   write xtbopt.log                true          :
          :   linear?                        false          :
          :   energy convergence         0.5000000E-05 Eh   :
          :   grad. convergence          0.1000000E-02 Eh/α :
          :   maximium RF displ.         1.0000000          :
          :   Hlow (freq-cutoff)         0.1000000E-01      :
          :   Hmax (freq-cutoff)         5.0000000          :
          :   S6 in model hess.         20.0000000          :
          ...................................................

generating ANC from model Hessian ...
Using Lindh-Hessian (1995)
 Shifting diagonal of input Hessian by   9.815054314988613E-003
 Lowest  eigenvalues of input Hessian
    0.000000    0.000000    0.000000    0.000000    0.000000    0.000000
    0.010000    0.010094    0.010471    0.010644    0.011241    0.011528
    0.012099    0.013214    0.013841    0.015021    0.015355    0.016436
 Highest eigenvalues
    1.921462    1.975052    2.018948    2.118282    2.123646    2.282695
 

........................................................................
.............................. CYCLE    1 ..............................
........................................................................
   1    -81.0040784 -0.810041E+02  0.130E-05    0.20       0.0  T
   2    -81.0040784  0.114383E-09  0.324E-05    0.20     450.8  T
   3    -81.0040784 -0.135785E-09  0.890E-07    0.20   16392.1  T
     SCC iter.                  ...        0 min,  0.011 sec
     gradient                   ...        0 min,  0.075 sec
 * total energy  :   -80.1421264 Eh     change       -0.3493028E-10 Eh
   gradient norm :     0.1464798 Eh/α   predicted     0.0000000E+00 (-100.00%)
   displ. norm   :     0.2915299 α      lambda       -0.1886568E-01
   maximum displ.:     0.0811450 α      in ANC's #28, #41, #9, ...

........................................................................
.............................. CYCLE    2 ..............................
........................................................................
   1    -81.0068197 -0.810068E+02  0.114E-01    0.39       0.0  T
   2    -81.0074537 -0.633969E-03  0.522E-02    0.21       1.0  T
   3    -81.0075877 -0.134029E-03  0.265E-02    0.27       1.0  T
   4    -81.0076272 -0.394493E-04  0.167E-02    0.23       1.0  T
   5    -81.0076382 -0.110529E-04  0.562E-03    0.24       2.6  T
   6    -81.0076397 -0.147508E-05  0.208E-03    0.24       7.0  T
   7    -81.0076399 -0.194712E-06  0.814E-04    0.24      17.9  T
   8    -81.0076399 -0.453513E-07  0.192E-04    0.24      76.1  T
   9    -81.0076399 -0.221148E-08  0.569E-05    0.24     256.5  T
     SCC iter.                  ...        0 min,  0.036 sec
     gradient                   ...        0 min,  0.101 sec
 * total energy  :   -80.1562225 Eh     change       -0.1409608E-01 Eh
   gradient norm :     0.0761962 Eh/α   predicted    -0.1024449E-01 ( -27.32%)
   displ. norm   :     0.3254653 α      lambda       -0.1058164E-01
   maximum displ.:     0.1156824 α      in ANC's #36, #28, #41, ...

........................................................................
.............................. CYCLE    3 ..............................
........................................................................
   1    -81.0152780 -0.810153E+02  0.970E-02    0.48       0.0  T
   2    -81.0156131 -0.335102E-03  0.330E-02    0.39       1.0  T
   3    -81.0156397 -0.265110E-04  0.170E-02    0.37       1.0  T
   4    -81.0156414 -0.177710E-05  0.680E-03    0.36       2.1  T
   5    -81.0156415 -0.729932E-07  0.205E-03    0.36       7.1  T
   6    -81.0156416 -0.126421E-06  0.723E-04    0.36      20.2  T
   7    -81.0156417 -0.238747E-07  0.238E-04    0.36      61.3  T
   8    -81.0156417 -0.102621E-08  0.697E-05    0.36     209.3  T
   9    -81.0156417 -0.375451E-10  0.170E-05    0.36     857.4  T
     SCC iter.                  ...        0 min,  0.036 sec
     gradient                   ...        0 min,  0.101 sec
 * total energy  :   -80.1624956 Eh     change       -0.6273068E-02 Eh
   gradient norm :     0.0251418 Eh/α   predicted    -0.5852962E-02 (  -6.70%)
   displ. norm   :     0.2538203 α      lambda       -0.2344616E-02
   maximum displ.:     0.0990021 α      in ANC's #36, #9, #2, ...

........................................................................
.............................. CYCLE    4 ..............................
........................................................................
   1    -81.0158967 -0.810159E+02  0.436E-02    0.45       0.0  T
   2    -81.0159380 -0.412835E-04  0.265E-02    0.44       1.0  T
   3    -81.0159550 -0.169669E-04  0.135E-02    0.44       1.1  T
   4    -81.0159563 -0.127729E-05  0.377E-03    0.44       3.9  T
   5    -81.0159565 -0.231496E-06  0.564E-04    0.44      25.9  T
   6    -81.0159565 -0.817913E-08  0.215E-04    0.44      67.9  T
   7    -81.0159565 -0.768864E-09  0.630E-05    0.44     231.4  T
   8    -81.0159565 -0.610640E-10  0.150E-05    0.44     970.8  T
     SCC iter.                  ...        0 min,  0.032 sec
     gradient                   ...        0 min,  0.101 sec
 * total energy  :   -80.1644871 Eh     change       -0.1991596E-02 Eh
   gradient norm :     0.0265649 Eh/α   predicted    -0.1247928E-02 ( -37.34%)
   displ. norm   :     0.5323159 α      lambda       -0.4668318E-02
   maximum displ.:     0.2195442 α      in ANC's #36, #2, #9, ...

........................................................................
.............................. CYCLE    5 ..............................
........................................................................
   1    -81.0077033 -0.810077E+02  0.152E-01    0.59       0.0  T
   2    -81.0081791 -0.475815E-03  0.957E-02    0.59       1.0  T
   3    -81.0084119 -0.232782E-03  0.491E-02    0.60       1.0  T
   4    -81.0084267 -0.147780E-04  0.960E-03    0.61       1.5  T
   5    -81.0084280 -0.129011E-05  0.210E-03    0.61       6.9  T
   6    -81.0084281 -0.109681E-06  0.732E-04    0.61      19.9  T
   7    -81.0084281 -0.748696E-08  0.149E-04    0.61      98.0  T
   8    -81.0084281 -0.382755E-09  0.399E-05    0.61     365.9  T
     SCC iter.                  ...        0 min,  0.032 sec
     gradient                   ...        0 min,  0.100 sec
 * total energy  :   -80.1662222 Eh     change       -0.1735037E-02 Eh
   gradient norm :     0.0400233 Eh/α   predicted    -0.2995579E-02 (  72.65%)
   displ. norm   :     0.1407560 α      lambda       -0.2314786E-02
   maximum displ.:     0.0744093 α      in ANC's #36, #2, #33, ...

........................................................................
.............................. CYCLE    6 ..............................
........................................................................
   1    -81.0165787 -0.810166E+02  0.554E-02    0.53       0.0  T
   2    -81.0166001 -0.214021E-04  0.322E-02    0.53       1.0  T
   3    -81.0166030 -0.286419E-05  0.179E-02    0.53       1.0  T
   4    -81.0166093 -0.633197E-05  0.344E-03    0.54       4.2  T
   5    -81.0166097 -0.377506E-06  0.837E-04    0.54      17.4  T
   6    -81.0166097 -0.123446E-07  0.280E-04    0.54      52.1  T
   7    -81.0166097 -0.113711E-08  0.568E-05    0.54     256.7  T
   8    -81.0166097 -0.452616E-10  0.148E-05    0.54     988.7  T
     SCC iter.                  ...        0 min,  0.032 sec
     gradient                   ...        0 min,  0.100 sec
 * total energy  :   -80.1673773 Eh     change       -0.1155120E-02 Eh
   gradient norm :     0.0140494 Eh/α   predicted    -0.1180823E-02 (   2.23%)
   displ. norm   :     0.1766923 α      lambda       -0.6687156E-03
   maximum displ.:     0.0936370 α      in ANC's #2, #10, #4, ...

........................................................................
.............................. CYCLE    7 ..............................
........................................................................
   1    -81.0180222 -0.810180E+02  0.178E-02    0.52       0.0  T
   2    -81.0180320 -0.976904E-05  0.106E-02    0.53       1.4  T
   3    -81.0180360 -0.399912E-05  0.501E-03    0.53       2.9  T
   4    -81.0180361 -0.146673E-06  0.178E-03    0.54       8.2  T
   5    -81.0180361 -0.304291E-07  0.427E-04    0.54      34.1  T
   6    -81.0180362 -0.702184E-08  0.883E-05    0.54     165.1  T
   7    -81.0180362 -0.202661E-09  0.354E-05    0.54     412.5  T
     SCC iter.                  ...        0 min,  0.028 sec
     gradient                   ...        0 min,  0.100 sec
 * total energy  :   -80.1679224 Eh     change       -0.5451029E-03 Eh
   gradient norm :     0.0099984 Eh/α   predicted    -0.3448015E-03 ( -36.75%)
   displ. norm   :     0.3621230 α      lambda       -0.9069488E-03
   maximum displ.:     0.2008405 α      in ANC's #2, #10, #11, ...

........................................................................
.............................. CYCLE    8 ..............................
........................................................................
   1    -81.0182069 -0.810182E+02  0.298E-02    0.52       0.0  T
   2    -81.0182309 -0.240093E-04  0.180E-02    0.54       1.0  T
   3    -81.0182394 -0.847557E-05  0.932E-03    0.54       1.6  T
   4    -81.0182397 -0.332503E-06  0.271E-03    0.54       5.4  T
   5    -81.0182399 -0.185914E-06  0.687E-04    0.54      21.2  T
   6    -81.0182399 -0.198600E-07  0.145E-04    0.54     100.5  T
   7    -81.0182399 -0.440309E-09  0.632E-05    0.54     230.9  T
     SCC iter.                  ...        0 min,  0.028 sec
     gradient                   ...        0 min,  0.101 sec
 * total energy  :   -80.1685029 Eh     change       -0.5804809E-03 Eh
   gradient norm :     0.0077797 Eh/α   predicted    -0.5129440E-03 ( -11.63%)
   displ. norm   :     0.2412326 α      lambda       -0.2938882E-03
   maximum displ.:     0.1552942 α      in ANC's #2, #10, #4, ...

........................................................................
.............................. CYCLE    9 ..............................
........................................................................
   1    -81.0186723 -0.810187E+02  0.121E-02    0.55       0.0  T
   2    -81.0186784 -0.614095E-05  0.686E-03    0.55       2.1  T
   3    -81.0186804 -0.196389E-05  0.261E-03    0.55       5.6  T
   4    -81.0186804 -0.268352E-07  0.131E-03    0.55      11.2  T
   5    -81.0186804 -0.155145E-07  0.317E-04    0.55      46.0  T
   6    -81.0186804 -0.396365E-08  0.571E-05    0.55     255.4  T
   7    -81.0186804 -0.720917E-10  0.246E-05    0.55     593.6  T
     SCC iter.                  ...        0 min,  0.028 sec
     gradient                   ...        0 min,  0.101 sec
 * total energy  :   -80.1687402 Eh     change       -0.2373169E-03 Eh
   gradient norm :     0.0079877 Eh/α   predicted    -0.1554957E-03 ( -34.48%)
   displ. norm   :     0.3255490 α      lambda       -0.3992428E-03
   maximum displ.:     0.2159712 α      in ANC's #2, #6, #10, ...

........................................................................
.............................. CYCLE   10 ..............................
........................................................................
   1    -81.0194461 -0.810194E+02  0.121E-02    0.56       0.0  T
   2    -81.0194525 -0.639921E-05  0.525E-03    0.57       2.8  T
   3    -81.0194535 -0.101490E-05  0.229E-03    0.56       6.4  T
   4    -81.0194535 -0.532739E-07  0.119E-03    0.56      12.3  T
   5    -81.0194535 -0.921617E-08  0.339E-04    0.56      43.1  T
   6    -81.0194535 -0.424478E-08  0.732E-05    0.56     199.3  T
   7    -81.0194535 -0.873825E-10  0.221E-05    0.56     661.2  T
     SCC iter.                  ...        0 min,  0.028 sec
     gradient                   ...        0 min,  0.100 sec
 * total energy  :   -80.1690625 Eh     change       -0.3222752E-03 Eh
   gradient norm :     0.0087123 Eh/α   predicted    -0.2207796E-03 ( -31.49%)
   displ. norm   :     0.4061764 α      lambda       -0.4372258E-03
   maximum displ.:     0.2767515 α      in ANC's #2, #1, #6, ...

........................................................................
.............................. CYCLE   11 ..............................
........................................................................
   1    -81.0186223 -0.810186E+02  0.123E-02    0.59       0.0  T
   2    -81.0186284 -0.606411E-05  0.796E-03    0.59       1.8  T
   3    -81.0186315 -0.310547E-05  0.257E-03    0.59       5.7  T
   4    -81.0186315 -0.153089E-07  0.118E-03    0.59      12.4  T
   5    -81.0186315 -0.757016E-08  0.213E-04    0.59      68.4  T
   6    -81.0186315 -0.163895E-08  0.613E-05    0.59     237.8  T
   7    -81.0186315 -0.537170E-10  0.208E-05    0.59     700.8  T
     SCC iter.                  ...        0 min,  0.028 sec
     gradient                   ...        0 min,  0.100 sec
 * total energy  :   -80.1694091 Eh     change       -0.3466494E-03 Eh
   gradient norm :     0.0117523 Eh/α   predicted    -0.2546795E-03 ( -26.53%)
   displ. norm   :     0.4254275 α      lambda       -0.4600714E-03
   maximum displ.:     0.3029989 α      in ANC's #2, #1, #7, ...

........................................................................
.............................. CYCLE   12 ..............................
........................................................................
   1    -81.0194371 -0.810194E+02  0.837E-03    0.60       0.0  T
   2    -81.0194387 -0.162043E-05  0.445E-03    0.60       3.3  T
   3    -81.0194389 -0.183773E-06  0.252E-03    0.60       5.8  T
   4    -81.0194389 -0.440855E-07  0.822E-04    0.60      17.7  T
   5    -81.0194389 -0.214315E-07  0.218E-04    0.60      66.8  T
   6    -81.0194389 -0.145361E-08  0.461E-05    0.60     316.4  T
   7    -81.0194389 -0.550102E-10  0.151E-05    0.60     963.1  T
     SCC iter.                  ...        0 min,  0.028 sec
     gradient                   ...        0 min,  0.100 sec
 * total energy  :   -80.1697737 Eh     change       -0.3645590E-03 Eh
   gradient norm :     0.0126416 Eh/α   predicted    -0.2716698E-03 ( -25.48%)
   displ. norm   :     0.5085922 α      lambda       -0.5461861E-03
   maximum displ.:     0.3642479 α      in ANC's #2, #1, #7, ...

........................................................................
.............................. CYCLE   13 ..............................
........................................................................
   1    -81.0183252 -0.810183E+02  0.153E-02    0.63       0.0  T
   2    -81.0183343 -0.914038E-05  0.843E-03    0.63       1.7  T
   3    -81.0183381 -0.375173E-05  0.298E-03    0.63       4.9  T
   4    -81.0183382 -0.915345E-07  0.129E-03    0.63      11.3  T
   5    -81.0183382 -0.470575E-08  0.350E-04    0.63      41.7  T
   6    -81.0183382 -0.292997E-08  0.847E-05    0.63     172.3  T
   7    -81.0183382 -0.168228E-09  0.226E-05    0.63     644.1  T
     SCC iter.                  ...        0 min,  0.028 sec
     gradient                   ...        0 min,  0.100 sec
 * total energy  :   -80.1702246 Eh     change       -0.4509409E-03 Eh
   gradient norm :     0.0125389 Eh/α   predicted    -0.3437317E-03 ( -23.77%)
   displ. norm   :     0.5785967 α      lambda       -0.7448049E-03
   maximum displ.:     0.4308290 α      in ANC's #2, #1, #7, ...

........................................................................
.............................. CYCLE   14 ..............................
........................................................................
   1    -81.0210463 -0.810210E+02  0.179E-02    0.64       0.0  T
   2    -81.0210582 -0.119361E-04  0.627E-03    0.65       2.3  T
   3    -81.0210593 -0.104650E-05  0.373E-03    0.65       3.9  T
   4    -81.0210594 -0.165181E-06  0.147E-03    0.65       9.9  T
   5    -81.0210594 -0.102700E-07  0.703E-04    0.65      20.8  T
   6    -81.0210595 -0.142421E-07  0.132E-04    0.65     110.9  T
   7    -81.0210595 -0.380325E-09  0.300E-05    0.65     486.1  T
     SCC iter.                  ...        0 min,  0.028 sec
     gradient                   ...        0 min,  0.101 sec
 * total energy  :   -80.1708104 Eh     change       -0.5857191E-03 Eh
   gradient norm :     0.0104248 Eh/α   predicted    -0.4970702E-03 ( -15.14%)
   displ. norm   :     0.6785050 α      lambda       -0.7756120E-03
   maximum displ.:     0.4943211 α      in ANC's #2, #1, #10, ...

........................................................................
.............................. CYCLE   15 ..............................
........................................................................
   1    -81.0158358 -0.810158E+02  0.354E-02    0.68       0.0  T
   2    -81.0158839 -0.480951E-04  0.193E-02    0.69       1.0  T
   3    -81.0159042 -0.202575E-04  0.694E-03    0.70       2.1  T
   4    -81.0159046 -0.460583E-06  0.289E-03    0.70       5.0  T
   5    -81.0159046 -0.180802E-07  0.856E-04    0.70      17.0  T
   6    -81.0159047 -0.205247E-07  0.214E-04    0.70      68.1  T
   7    -81.0159047 -0.800682E-09  0.540E-05    0.70     270.0  T
   8    -81.0159047 -0.393925E-10  0.153E-05    0.70     950.5  T
     SCC iter.                  ...        0 min,  0.032 sec
     gradient                   ...        0 min,  0.100 sec
 * total energy  :   -80.1712899 Eh     change       -0.4795045E-03 Eh
   gradient norm :     0.0151952 Eh/α   predicted    -0.5663393E-03 (  18.11%)
   displ. norm   :     0.3645642 α      lambda       -0.9218188E-03
   maximum displ.:     0.2483922 α      in ANC's #2, #1, #5, ...

........................................................................
.............................. CYCLE   16 ..............................
........................................................................
   1    -81.0251304 -0.810251E+02  0.228E-02    0.72       0.0  T
   2    -81.0251509 -0.205220E-04  0.102E-02    0.74       1.4  T
   3    -81.0251520 -0.109288E-05  0.577E-03    0.74       2.5  T
   4    -81.0251521 -0.110924E-06  0.185E-03    0.74       7.9  T
   5    -81.0251521 -0.324146E-07  0.778E-04    0.74      18.8  T
   6    -81.0251522 -0.238441E-07  0.178E-04    0.74      81.7  T
   7    -81.0251522 -0.603350E-09  0.398E-05    0.74     366.2  T
     SCC iter.                  ...        0 min,  0.028 sec
     gradient                   ...        0 min,  0.100 sec
 * total energy  :   -80.1717322 Eh     change       -0.4423647E-03 Eh
   gradient norm :     0.0157159 Eh/α   predicted    -0.5221714E-03 (  18.04%)
   displ. norm   :     0.4518865 α      lambda       -0.5408742E-03
   maximum displ.:     0.3449124 α      in ANC's #2, #1, #7, ...

........................................................................
.............................. CYCLE   17 ..............................
........................................................................
   1    -81.0224002 -0.810224E+02  0.195E-02    0.75       0.0  T
   2    -81.0224145 -0.142116E-04  0.108E-02    0.76       1.3  T
   3    -81.0224201 -0.559451E-05  0.435E-03    0.76       3.4  T
   4    -81.0224202 -0.103662E-06  0.174E-03    0.76       8.4  T
   5    -81.0224202 -0.231123E-07  0.530E-04    0.76      27.5  T
   6    -81.0224202 -0.103688E-07  0.903E-05    0.76     161.5  T
   7    -81.0224202 -0.170374E-09  0.335E-05    0.76     435.6  T
     SCC iter.                  ...        0 min,  0.028 sec
     gradient                   ...        0 min,  0.100 sec
 * total energy  :   -80.1721630 Eh     change       -0.4308110E-03 Eh
   gradient norm :     0.0137308 Eh/α   predicted    -0.3256606E-03 ( -24.41%)
   displ. norm   :     0.4694474 α      lambda       -0.7222995E-03
   maximum displ.:     0.3496269 α      in ANC's #2, #1, #10, ...

........................................................................
.............................. CYCLE   18 ..............................
........................................................................
   1    -81.0226445 -0.810226E+02  0.205E-02    0.78       0.0  T
   2    -81.0226590 -0.145208E-04  0.948E-03    0.79       1.5  T
   3    -81.0226610 -0.200265E-05  0.544E-03    0.79       2.7  T
   4    -81.0226611 -0.101522E-06  0.197E-03    0.79       7.4  T
   5    -81.0226612 -0.589250E-07  0.515E-04    0.79      28.3  T
   6    -81.0226612 -0.145893E-07  0.867E-05    0.79     168.3  T
   7    -81.0226612 -0.159872E-09  0.347E-05    0.79     420.6  T
     SCC iter.                  ...        0 min,  0.028 sec
     gradient                   ...        0 min,  0.100 sec
 * total energy  :   -80.1726217 Eh     change       -0.4586718E-03 Eh
   gradient norm :     0.0102880 Eh/α   predicted    -0.4407410E-03 (  -3.91%)
   displ. norm   :     0.5404159 α      lambda       -0.6314855E-03
   maximum displ.:     0.4101993 α      in ANC's #2, #1, #13, ...

........................................................................
.............................. CYCLE   19 ..............................
........................................................................
   1    -81.0189954 -0.810190E+02  0.217E-02    0.81       0.0  T
   2    -81.0190085 -0.131256E-04  0.118E-02    0.81       1.2  T
   3    -81.0190123 -0.378908E-05  0.607E-03    0.81       2.4  T
   4    -81.0190126 -0.265979E-06  0.193E-03    0.81       7.5  T
   5    -81.0190126 -0.456021E-07  0.473E-04    0.81      30.8  T
   6    -81.0190127 -0.947412E-08  0.119E-04    0.81     122.4  T
   7    -81.0190127 -0.191818E-09  0.394E-05    0.81     369.8  T
     SCC iter.                  ...        0 min,  0.028 sec
     gradient                   ...        0 min,  0.100 sec
 * total energy  :   -80.1728734 Eh     change       -0.2517288E-03 Eh
   gradient norm :     0.0169944 Eh/α   predicted    -0.4079571E-03 (  62.06%)
   displ. norm   :     0.2257199 α      lambda       -0.5751257E-03
   maximum displ.:     0.1359827 α      in ANC's #2, #1, #5, ...

........................................................................
.............................. CYCLE   20 ..............................
........................................................................
   1    -81.0260113 -0.810260E+02  0.157E-02    0.83       0.0  T
   2    -81.0260152 -0.392098E-05  0.801E-03    0.83       1.8  T
   3    -81.0260154 -0.204599E-06  0.401E-03    0.83       3.6  T
   4    -81.0260155 -0.102060E-06  0.114E-03    0.83      12.8  T
   5    -81.0260156 -0.333455E-07  0.344E-04    0.83      42.4  T
   6    -81.0260156 -0.544441E-08  0.936E-05    0.83     155.8  T
   7    -81.0260156 -0.265970E-09  0.245E-05    0.83     596.4  T
     SCC iter.                  ...        0 min,  0.027 sec
     gradient                   ...        0 min,  0.099 sec
 * total energy  :   -80.1732010 Eh     change       -0.3275290E-03 Eh
   gradient norm :     0.0137287 Eh/α   predicted    -0.3022169E-03 (  -7.73%)
   displ. norm   :     0.3956976 α      lambda       -0.5326961E-03
   maximum displ.:     0.2916194 α      in ANC's #2, #1, #5, ...
 * RMSD in coord.:     0.9115518 α      energy gain  -0.3107456E-01 Eh

generating ANC from model Hessian ...
Using Lindh-Hessian (1995)
 Shifting diagonal of input Hessian by   9.786159761367725E-003
 Lowest  eigenvalues of input Hessian
    0.000000    0.000000    0.000000    0.000000    0.000000    0.000000
    0.010000    0.010144    0.010302    0.010653    0.011236    0.011399
    0.011543    0.012802    0.013096    0.013926    0.015045    0.016248
 Highest eigenvalues
    1.930097    1.980200    2.013778    2.097219    2.121372    2.279411
 

........................................................................
.............................. CYCLE   21 ..............................
........................................................................
   1    -81.0260019 -0.810260E+02  0.240E-02    0.86       0.0  T
   2    -81.0260208 -0.188898E-04  0.132E-02    0.85       1.1  T
   3    -81.0260287 -0.789165E-05  0.532E-03    0.86       2.7  T
   4    -81.0260289 -0.257492E-06  0.186E-03    0.86       7.8  T
   5    -81.0260290 -0.185244E-07  0.586E-04    0.86      24.9  T
   6    -81.0260290 -0.776269E-08  0.152E-04    0.86      95.8  T
   7    -81.0260290 -0.237833E-09  0.409E-05    0.86     356.2  T
     SCC iter.                  ...        0 min,  0.026 sec
     gradient                   ...        0 min,  0.094 sec
 * total energy  :   -80.1734758 Eh     change       -0.2748800E-03 Eh
   gradient norm :     0.0112426 Eh/α   predicted     0.0000000E+00 (-100.00%)
   displ. norm   :     0.0976258 α      lambda       -0.2905631E-03
   maximum displ.:     0.0334768 α      in ANC's #11, #3, #2, ...

........................................................................
.............................. CYCLE   22 ..............................
........................................................................
   1    -81.0265644 -0.810266E+02  0.843E-03    0.86       0.0  T
   2    -81.0265670 -0.260537E-05  0.500E-03    0.86       2.9  T
   3    -81.0265679 -0.950290E-06  0.200E-03    0.86       7.3  T
   4    -81.0265680 -0.203252E-07  0.780E-04    0.86      18.7  T
   5    -81.0265680 -0.702966E-08  0.178E-04    0.86      82.0  T
   6    -81.0265680 -0.510937E-09  0.443E-05    0.86     329.6  T
     SCC iter.                  ...        0 min,  0.024 sec
     gradient                   ...        0 min,  0.100 sec
 * total energy  :   -80.1737064 Eh     change       -0.2305559E-03 Eh
   gradient norm :     0.0046046 Eh/α   predicted    -0.1466667E-03 ( -36.39%)
   displ. norm   :     0.2614727 α      lambda       -0.4159073E-03
   maximum displ.:     0.0930527 α      in ANC's #11, #3, #4, ...

........................................................................
.............................. CYCLE   23 ..............................
........................................................................
   1    -81.0264055 -0.810264E+02  0.150E-02    0.86       0.0  T
   2    -81.0264153 -0.986031E-05  0.933E-03    0.86       1.6  T
   3    -81.0264196 -0.427023E-05  0.272E-03    0.86       5.4  T
   4    -81.0264196 -0.194060E-07  0.131E-03    0.86      11.2  T
   5    -81.0264196 -0.156836E-07  0.280E-04    0.86      52.0  T
   6    -81.0264196 -0.127295E-08  0.638E-05    0.86     228.7  T
   7    -81.0264196 -0.714948E-10  0.188E-05    0.86     775.1  T
     SCC iter.                  ...        0 min,  0.023 sec
     gradient                   ...        0 min,  0.095 sec
 * total energy  :   -80.1740119 Eh     change       -0.3054938E-03 Eh
   gradient norm :     0.0056500 Eh/α   predicted    -0.2221745E-03 ( -27.27%)
   displ. norm   :     0.3642567 α      lambda       -0.3678509E-03
   maximum displ.:     0.1393430 α      in ANC's #4, #3, #11, ...

........................................................................
.............................. CYCLE   24 ..............................
........................................................................
   1    -81.0247518 -0.810248E+02  0.155E-02    0.87       0.0  T
   2    -81.0247615 -0.968226E-05  0.983E-03    0.86       1.5  T
   3    -81.0247664 -0.492667E-05  0.277E-03    0.86       5.3  T
   4    -81.0247664 -0.182754E-07  0.115E-03    0.87      12.7  T
   5    -81.0247664 -0.116641E-07  0.268E-04    0.87      54.5  T
   6    -81.0247664 -0.127380E-08  0.630E-05    0.86     231.4  T
   7    -81.0247664 -0.591029E-10  0.186E-05    0.86     785.1  T
     SCC iter.                  ...        0 min,  0.040 sec
     gradient                   ...        0 min,  0.121 sec
 * total energy  :   -80.1743131 Eh     change       -0.3012297E-03 Eh
   gradient norm :     0.0099319 Eh/α   predicted    -0.2083555E-03 ( -30.83%)
   displ. norm   :     0.5433932 α      lambda       -0.4989744E-03
   maximum displ.:     0.2225776 α      in ANC's #4, #3, #11, ...

........................................................................
.............................. CYCLE   25 ..............................
........................................................................
   1    -81.0213043 -0.810213E+02  0.205E-02    0.88       0.0  T
   2    -81.0213176 -0.133112E-04  0.128E-02    0.88       1.1  T
   3    -81.0213250 -0.732879E-05  0.471E-03    0.88       3.1  T
   4    -81.0213250 -0.707442E-07  0.128E-03    0.88      11.4  T
   5    -81.0213251 -0.174904E-07  0.375E-04    0.88      38.9  T
   6    -81.0213251 -0.342008E-08  0.897E-05    0.88     162.6  T
   7    -81.0213251 -0.985807E-10  0.278E-05    0.88     524.3  T
     SCC iter.                  ...        0 min,  0.052 sec
     gradient                   ...        0 min,  0.189 sec
 * total energy  :   -80.1746208 Eh     change       -0.3076433E-03 Eh
   gradient norm :     0.0147473 Eh/α   predicted    -0.3231635E-03 (   5.04%)
   displ. norm   :     0.1789470 α      lambda       -0.3322148E-03
   maximum displ.:     0.0834028 α      in ANC's #4, #3, #2, ...

........................................................................
.............................. CYCLE   26 ..............................
........................................................................
   1    -81.0244532 -0.810245E+02  0.879E-03    0.88       0.0  T
   2    -81.0244546 -0.138400E-05  0.404E-03    0.89       3.6  T
   3    -81.0244548 -0.134660E-06  0.228E-03    0.89       6.4  T
   4    -81.0244548 -0.493009E-07  0.677E-04    0.89      21.5  T
   5    -81.0244548 -0.665766E-08  0.228E-04    0.89      64.1  T
   6    -81.0244548 -0.207241E-08  0.503E-05    0.89     290.3  T
   7    -81.0244548 -0.366782E-10  0.171E-05    0.89     854.5  T
     SCC iter.                  ...        0 min,  0.027 sec
     gradient                   ...        0 min,  0.171 sec
 * total energy  :   -80.1748869 Eh     change       -0.2661689E-03 Eh
   gradient norm :     0.0089553 Eh/α   predicted    -0.1714269E-03 ( -35.59%)
   displ. norm   :     0.3706694 α      lambda       -0.4258051E-03
   maximum displ.:     0.1776238 α      in ANC's #3, #4, #2, ...

........................................................................
.............................. CYCLE   27 ..............................
........................................................................
   1    -81.0273816 -0.810274E+02  0.141E-02    0.89       0.0  T
   2    -81.0273883 -0.668070E-05  0.660E-03    0.90       2.2  T
   3    -81.0273894 -0.109301E-05  0.347E-03    0.90       4.2  T
   4    -81.0273895 -0.752766E-07  0.142E-03    0.90      10.3  T
   5    -81.0273895 -0.169811E-07  0.457E-04    0.90      31.9  T
   6    -81.0273895 -0.871862E-08  0.837E-05    0.90     174.2  T
   7    -81.0273895 -0.115477E-09  0.339E-05    0.90     430.4  T
     SCC iter.                  ...        0 min,  0.027 sec
     gradient                   ...        0 min,  0.129 sec
 * total energy  :   -80.1751973 Eh     change       -0.3103465E-03 Eh
   gradient norm :     0.0059437 Eh/α   predicted    -0.2421585E-03 ( -21.97%)
   displ. norm   :     0.4235803 α      lambda       -0.2883975E-03
   maximum displ.:     0.2123297 α      in ANC's #3, #4, #2, ...

........................................................................
.............................. CYCLE   28 ..............................
........................................................................
   1    -81.0271040 -0.810271E+02  0.118E-02    0.91       0.0  T
   2    -81.0271104 -0.644552E-05  0.653E-03    0.91       2.2  T
   3    -81.0271125 -0.207165E-05  0.222E-03    0.91       6.6  T
   4    -81.0271125 -0.357706E-07  0.122E-03    0.92      12.0  T
   5    -81.0271125 -0.127672E-08  0.405E-04    0.92      36.0  T
   6    -81.0271125 -0.599553E-08  0.612E-05    0.92     238.2  T
   7    -81.0271125 -0.565450E-10  0.242E-05    0.92     603.6  T
     SCC iter.                  ...        0 min,  0.028 sec
     gradient                   ...        0 min,  0.093 sec
 * total energy  :   -80.1754245 Eh     change       -0.2272181E-03 Eh
   gradient norm :     0.0081710 Eh/α   predicted    -0.1700839E-03 ( -25.15%)
   displ. norm   :     0.4129497 α      lambda       -0.3125007E-03
   maximum displ.:     0.2276947 α      in ANC's #3, #4, #2, ...

........................................................................
.............................. CYCLE   29 ..............................
........................................................................
   1    -81.0288893 -0.810289E+02  0.111E-02    0.92       0.0  T
   2    -81.0288940 -0.472797E-05  0.570E-03    0.92       2.6  T
   3    -81.0288954 -0.140897E-05  0.237E-03    0.92       6.2  T
   4    -81.0288955 -0.558152E-07  0.101E-03    0.92      14.4  T
   5    -81.0288955 -0.254092E-08  0.364E-04    0.92      40.1  T
   6    -81.0288955 -0.440637E-08  0.556E-05    0.92     262.3  T
   7    -81.0288955 -0.404441E-10  0.215E-05    0.92     679.6  T
     SCC iter.                  ...        0 min,  0.029 sec
     gradient                   ...        0 min,  0.094 sec
 * total energy  :   -80.1756436 Eh     change       -0.2191331E-03 Eh
   gradient norm :     0.0091191 Eh/α   predicted    -0.1828960E-03 ( -16.54%)
   displ. norm   :     0.6053957 α      lambda       -0.3294993E-03
   maximum displ.:     0.3074980 α      in ANC's #3, #4, #2, ...

........................................................................
.............................. CYCLE   30 ..............................
........................................................................
   1    -81.0239051 -0.810239E+02  0.189E-02    0.94       0.0  T
   2    -81.0239160 -0.108954E-04  0.119E-02    0.94       1.2  T
   3    -81.0239216 -0.565925E-05  0.546E-03    0.94       2.7  T
   4    -81.0239217 -0.708425E-07  0.122E-03    0.94      11.9  T
   5    -81.0239217 -0.212452E-07  0.366E-04    0.94      39.8  T
   6    -81.0239217 -0.613083E-08  0.764E-05    0.94     191.0  T
   7    -81.0239217 -0.802771E-10  0.250E-05    0.94     582.8  T
     SCC iter.                  ...        0 min,  0.028 sec
     gradient                   ...        0 min,  0.094 sec
 * total energy  :   -80.1757676 Eh     change       -0.1239523E-03 Eh
   gradient norm :     0.0132571 Eh/α   predicted    -0.2251321E-03 (  81.63%)
   displ. norm   :     0.1310032 α      lambda       -0.3667474E-03
   maximum displ.:     0.0815574 α      in ANC's #3, #4, #2, ...

........................................................................
.............................. CYCLE   31 ..............................
........................................................................
   1    -81.0270026 -0.810270E+02  0.114E-02    0.94       0.0  T
   2    -81.0270044 -0.181031E-05  0.636E-03    0.93       2.3  T
   3    -81.0270045 -0.146182E-06  0.360E-03    0.93       4.0  T
   4    -81.0270046 -0.103122E-06  0.838E-04    0.93      17.4  T
   5    -81.0270046 -0.300664E-07  0.212E-04    0.93      68.7  T
   6    -81.0270046 -0.210957E-08  0.489E-05    0.93     298.5  T
   7    -81.0270046 -0.357403E-10  0.171E-05    0.93     850.8  T
     SCC iter.                  ...        0 min,  0.028 sec
     gradient                   ...        0 min,  0.094 sec
 * total energy  :   -80.1759979 Eh     change       -0.2303234E-03 Eh
   gradient norm :     0.0053924 Eh/α   predicted    -0.1865217E-03 ( -19.02%)
   displ. norm   :     0.3736666 α      lambda       -0.2204740E-03
   maximum displ.:     0.2113090 α      in ANC's #3, #4, #2, ...

........................................................................
.............................. CYCLE   32 ..............................
........................................................................
   1    -81.0286721 -0.810287E+02  0.844E-03    0.94       0.0  T
   2    -81.0286747 -0.259991E-05  0.421E-03    0.93       3.5  T
   3    -81.0286755 -0.829798E-06  0.195E-03    0.94       7.5  T
   4    -81.0286755 -0.416418E-07  0.729E-04    0.94      20.0  T
   5    -81.0286755 -0.300125E-08  0.225E-04    0.94      64.8  T
   6    -81.0286755 -0.102550E-08  0.373E-05    0.94     391.4  T
   7    -81.0286755 -0.150919E-10  0.158E-05    0.94     921.8  T
     SCC iter.                  ...        0 min,  0.028 sec
     gradient                   ...        0 min,  0.093 sec
 * total energy  :   -80.1761646 Eh     change       -0.1666647E-03 Eh
   gradient norm :     0.0045762 Eh/α   predicted    -0.1256310E-03 ( -24.62%)
   displ. norm   :     0.4777834 α      lambda       -0.1892350E-03
   maximum displ.:     0.2664530 α      in ANC's #3, #4, #2, ...

........................................................................
.............................. CYCLE   33 ..............................
........................................................................
   1    -81.0276727 -0.810277E+02  0.775E-03    0.94       0.0  T
   2    -81.0276747 -0.200421E-05  0.403E-03    0.94       3.6  T
   3    -81.0276753 -0.531796E-06  0.232E-03    0.94       6.3  T
   4    -81.0276753 -0.509062E-07  0.845E-04    0.94      17.3  T
   5    -81.0276753 -0.233338E-08  0.185E-04    0.94      78.9  T
   6    -81.0276753 -0.129467E-08  0.364E-05    0.94     401.2  T
     SCC iter.                  ...        0 min,  0.024 sec
     gradient                   ...        0 min,  0.094 sec
 * total energy  :   -80.1762883 Eh     change       -0.1237232E-03 Eh
   gradient norm :     0.0050614 Eh/α   predicted    -0.1162171E-03 (  -6.07%)
   displ. norm   :     0.2412103 α      lambda       -0.1536596E-03
   maximum displ.:     0.1245600 α      in ANC's #4, #3, #2, ...

........................................................................
.............................. CYCLE   34 ..............................
........................................................................
   1    -81.0305788 -0.810306E+02  0.798E-03    0.94       0.0  T
   2    -81.0305808 -0.201387E-05  0.531E-03    0.94       2.7  T
   3    -81.0305816 -0.801164E-06  0.246E-03    0.94       5.9  T
   4    -81.0305816 -0.698340E-08  0.772E-04    0.94      18.9  T
   5    -81.0305816 -0.782022E-08  0.198E-04    0.94      73.7  T
   6    -81.0305816 -0.162103E-08  0.292E-05    0.94     499.6  T
     SCC iter.                  ...        0 min,  0.024 sec
     gradient                   ...        0 min,  0.094 sec
 * total energy  :   -80.1763728 Eh     change       -0.8449099E-04 Eh
   gradient norm :     0.0057507 Eh/α   predicted    -0.8130276E-04 (  -3.77%)
   displ. norm   :     0.3083087 α      lambda       -0.8864121E-04
   maximum displ.:     0.1688254 α      in ANC's #3, #4, #2, ...

........................................................................
.............................. CYCLE   35 ..............................
........................................................................
   1    -81.0285304 -0.810285E+02  0.442E-03    0.94       0.0  T
   2    -81.0285306 -0.162383E-06  0.253E-03    0.94       5.8  T
   3    -81.0285306 -0.186964E-08  0.106E-03    0.94      13.7  T
   4    -81.0285306 -0.666012E-08  0.228E-04    0.94      64.1  T
   5    -81.0285306 -0.239925E-08  0.800E-05    0.94     182.4  T
   6    -81.0285306 -0.299579E-09  0.229E-05    0.94     636.2  T
     SCC iter.                  ...        0 min,  0.024 sec
     gradient                   ...        0 min,  0.094 sec
 * total energy  :   -80.1764356 Eh     change       -0.6280841E-04 Eh
   gradient norm :     0.0054160 Eh/α   predicted    -0.4853539E-04 ( -22.72%)
   displ. norm   :     0.2435672 α      lambda       -0.1140394E-03
   maximum displ.:     0.1219358 α      in ANC's #3, #4, #2, ...

........................................................................
.............................. CYCLE   36 ..............................
........................................................................
   1    -81.0276644 -0.810277E+02  0.625E-03    0.95       0.0  T
   2    -81.0276654 -0.946118E-06  0.336E-03    0.95       4.3  T
   3    -81.0276655 -0.124200E-06  0.193E-03    0.95       7.6  T
   4    -81.0276655 -0.302849E-07  0.652E-04    0.95      22.4  T
   5    -81.0276655 -0.733381E-08  0.144E-04    0.95     101.2  T
   6    -81.0276655 -0.821487E-09  0.301E-05    0.95     485.1  T
     SCC iter.                  ...        0 min,  0.024 sec
     gradient                   ...        0 min,  0.093 sec
 * total energy  :   -80.1765121 Eh     change       -0.7655018E-04 Eh
   gradient norm :     0.0042601 Eh/α   predicted    -0.6040514E-04 ( -21.09%)
   displ. norm   :     0.2064504 α      lambda       -0.7447143E-04
   maximum displ.:     0.0991908 α      in ANC's #4, #3, #2, ...

........................................................................
.............................. CYCLE   37 ..............................
........................................................................
   1    -81.0281258 -0.810281E+02  0.477E-03    0.95       0.0  T
   2    -81.0281261 -0.304317E-06  0.243E-03    0.95       6.0  T
   3    -81.0281261 -0.833879E-08  0.118E-03    0.95      12.4  T
   4    -81.0281261 -0.964368E-08  0.397E-04    0.95      36.8  T
   5    -81.0281261 -0.411835E-08  0.933E-05    0.95     156.3  T
   6    -81.0281261 -0.417330E-09  0.207E-05    0.95     706.2  T
     SCC iter.                  ...        0 min,  0.024 sec
     gradient                   ...        0 min,  0.093 sec
 * total energy  :   -80.1765645 Eh     change       -0.5240017E-04 Eh
   gradient norm :     0.0044540 Eh/α   predicted    -0.3882742E-04 ( -25.90%)
   displ. norm   :     0.1418752 α      lambda       -0.7651219E-04
   maximum displ.:     0.0578609 α      in ANC's #6, #8, #18, ...

........................................................................
.............................. CYCLE   38 ..............................
........................................................................
   1    -81.0294456 -0.810294E+02  0.570E-03    0.95       0.0  T
   2    -81.0294458 -0.243919E-06  0.336E-03    0.95       4.3  T
   3    -81.0294458  0.167763E-07  0.175E-03    0.95       8.4  T
   4    -81.0294459 -0.801770E-07  0.357E-04    0.95      40.8  T
   5    -81.0294459 -0.333516E-08  0.581E-05    0.95     251.0  T
   6    -81.0294459 -0.794529E-10  0.218E-05    0.95     668.9  T
     SCC iter.                  ...        0 min,  0.031 sec
     gradient                   ...        0 min,  0.096 sec
 * total energy  :   -80.1766064 Eh     change       -0.4187816E-04 Eh
   gradient norm :     0.0038304 Eh/α   predicted    -0.3902901E-04 (  -6.80%)
   displ. norm   :     0.2402843 α      lambda       -0.6063235E-04
   maximum displ.:     0.1171131 α      in ANC's #4, #3, #2, ...

........................................................................
.............................. CYCLE   39 ..............................
........................................................................
   1    -81.0284091 -0.810284E+02  0.551E-03    0.95       0.0  T
   2    -81.0284101 -0.998904E-06  0.364E-03    0.95       4.0  T
   3    -81.0284106 -0.443112E-06  0.177E-03    0.95       8.3  T
   4    -81.0284106 -0.702599E-08  0.407E-04    0.95      35.9  T
   5    -81.0284106 -0.175135E-08  0.750E-05    0.95     194.5  T
   6    -81.0284106 -0.235957E-09  0.182E-05    0.95     803.2  T
     SCC iter.                  ...        0 min,  0.024 sec
     gradient                   ...        0 min,  0.093 sec
 * total energy  :   -80.1766391 Eh     change       -0.3268057E-04 Eh
   gradient norm :     0.0038465 Eh/α   predicted    -0.3206795E-04 (  -1.87%)
   displ. norm   :     0.0976494 α      lambda       -0.5438261E-04
   maximum displ.:     0.0499478 α      in ANC's #1, #8, #5, ...

........................................................................
.............................. CYCLE   40 ..............................
........................................................................
   1    -81.0296037 -0.810296E+02  0.329E-03    0.95       0.0  T
   2    -81.0296041 -0.429198E-06  0.165E-03    0.95       8.9  T
   3    -81.0296042 -0.673469E-07  0.851E-04    0.95      17.1  T
   4    -81.0296042 -0.826918E-08  0.388E-04    0.95      37.6  T
   5    -81.0296042 -0.166835E-08  0.948E-05    0.95     153.9  T
   6    -81.0296042 -0.171298E-09  0.236E-05    0.95     617.5  T
     SCC iter.                  ...        0 min,  0.024 sec
     gradient                   ...        0 min,  0.093 sec
 * total energy  :   -80.1766806 Eh     change       -0.4146083E-04 Eh
   gradient norm :     0.0033142 Eh/α   predicted    -0.2745502E-04 ( -33.78%)
   displ. norm   :     0.1843839 α      lambda       -0.8506667E-04
   maximum displ.:     0.0916054 α      in ANC's #1, #8, #5, ...

........................................................................
.............................. CYCLE   41 ..............................
........................................................................
   1    -81.0296587 -0.810297E+02  0.383E-03    0.95       0.0  T
   2    -81.0296594 -0.709056E-06  0.159E-03    0.94       9.2  T
   3    -81.0296594 -0.547445E-07  0.822E-04    0.95      17.7  T
   4    -81.0296594 -0.617014E-08  0.449E-04    0.95      32.5  T
   5    -81.0296594 -0.212842E-08  0.130E-04    0.95     111.9  T
   6    -81.0296594 -0.443137E-09  0.321E-05    0.95     453.8  T
     SCC iter.                  ...        0 min,  0.024 sec
     gradient                   ...        0 min,  0.093 sec
 * total energy  :   -80.1767421 Eh     change       -0.6154703E-04 Eh
   gradient norm :     0.0038278 Eh/α   predicted    -0.4398093E-04 ( -28.54%)
   displ. norm   :     0.2652061 α      lambda       -0.8625820E-04
   maximum displ.:     0.1259305 α      in ANC's #1, #8, #5, ...

........................................................................
.............................. CYCLE   42 ..............................
........................................................................
   1    -81.0283669 -0.810284E+02  0.431E-03    0.94       0.0  T
   2    -81.0283674 -0.447093E-06  0.196E-03    0.94       7.4  T
   3    -81.0283674 -0.574171E-07  0.105E-03    0.94      13.8  T
   4    -81.0283674 -0.134556E-07  0.368E-04    0.94      39.6  T
   5    -81.0283674 -0.184571E-08  0.123E-04    0.94     118.3  T
   6    -81.0283674 -0.468091E-09  0.298E-05    0.94     489.3  T
     SCC iter.                  ...        0 min,  0.024 sec
     gradient                   ...        0 min,  0.093 sec
 * total energy  :   -80.1768038 Eh     change       -0.6167557E-04 Eh
   gradient norm :     0.0053669 Eh/α   predicted    -0.4616355E-04 ( -25.15%)
   displ. norm   :     0.2566576 α      lambda       -0.1019968E-03
   maximum displ.:     0.1387611 α      in ANC's #1, #5, #8, ...
 * RMSD in coord.:     0.7571591 α      energy gain  -0.3602825E-02 Eh

generating ANC from model Hessian ...
Using Lindh-Hessian (1995)
 Shifting diagonal of input Hessian by   9.765087065101419E-003
 Lowest  eigenvalues of input Hessian
    0.000000    0.000000    0.000000    0.000000    0.000000    0.000000
    0.010000    0.010104    0.010285    0.010623    0.011088    0.011192
    0.011762    0.012636    0.012927    0.013836    0.014867    0.016045
 Highest eigenvalues
    1.923472    1.980918    2.014200    2.088818    2.129023    2.285758
 

........................................................................
.............................. CYCLE   43 ..............................
........................................................................
   1    -81.0280784 -0.810281E+02  0.533E-03    0.94       0.0  T
   2    -81.0280794 -0.103141E-05  0.306E-03    0.94       4.8  T
   3    -81.0280798 -0.410778E-06  0.114E-03    0.94      12.8  T
   4    -81.0280798 -0.727100E-08  0.470E-04    0.94      31.1  T
   5    -81.0280798 -0.159930E-08  0.951E-05    0.94     153.5  T
   6    -81.0280798 -0.122782E-09  0.246E-05    0.94     593.1  T
     SCC iter.                  ...        0 min,  0.024 sec
     gradient                   ...        0 min,  0.093 sec
 * total energy  :   -80.1768771 Eh     change       -0.7334781E-04 Eh
   gradient norm :     0.0054292 Eh/α   predicted     0.0000000E+00 (-100.00%)
   displ. norm   :     0.0498198 α      lambda       -0.6700653E-04
   maximum displ.:     0.0205196 α      in ANC's #11, #8, #12, ...

........................................................................
.............................. CYCLE   44 ..............................
........................................................................
   1    -81.0291396 -0.810291E+02  0.246E-03    0.95       0.0  T
   2    -81.0291398 -0.176672E-06  0.115E-03    0.95      12.7  T
   3    -81.0291398 -0.738989E-08  0.577E-04    0.95      25.3  T
   4    -81.0291398 -0.611337E-09  0.279E-04    0.95      52.4  T
   5    -81.0291398 -0.234377E-08  0.616E-05    0.95     236.7  T
   6    -81.0291398 -0.616893E-10  0.139E-05    0.95    1048.8  T
     SCC iter.                  ...        0 min,  0.024 sec
     gradient                   ...        0 min,  0.093 sec
 * total energy  :   -80.1769385 Eh     change       -0.6138120E-04 Eh
   gradient norm :     0.0029520 Eh/α   predicted    -0.3772049E-04 ( -38.55%)
   displ. norm   :     0.1495865 α      lambda       -0.1313611E-03
   maximum displ.:     0.0672384 α      in ANC's #11, #8, #12, ...

........................................................................
.............................. CYCLE   45 ..............................
........................................................................
   1    -81.0302609 -0.810303E+02  0.446E-03    0.96       0.0  T
   2    -81.0302617 -0.790359E-06  0.198E-03    0.96       7.4  T
   3    -81.0302618 -0.354999E-07  0.985E-04    0.96      14.8  T
   4    -81.0302618  0.145619E-09  0.544E-04    0.96      26.8  T
   5    -81.0302618 -0.653053E-08  0.128E-04    0.96     114.4  T
   6    -81.0302618 -0.266283E-09  0.291E-05    0.96     501.9  T
     SCC iter.                  ...        0 min,  0.024 sec
     gradient                   ...        0 min,  0.093 sec
 * total energy  :   -80.1770247 Eh     change       -0.8615944E-04 Eh
   gradient norm :     0.0026693 Eh/α   predicted    -0.6715087E-04 ( -22.06%)
   displ. norm   :     0.1285719 α      lambda       -0.5688028E-04
   maximum displ.:     0.0613851 α      in ANC's #11, #8, #5, ...

........................................................................
.............................. CYCLE   46 ..............................
........................................................................
   1    -81.0301659 -0.810302E+02  0.220E-03    0.97       0.0  T
   2    -81.0301661 -0.167317E-06  0.104E-03    0.97      14.0  T
   3    -81.0301661 -0.800313E-08  0.548E-04    0.97      26.6  T
   4    -81.0301661 -0.169564E-09  0.206E-04    0.97      71.0  T
   5    -81.0301661 -0.447969E-09  0.468E-05    0.97     311.7  T
   6    -81.0301661 -0.111072E-09  0.176E-05    0.97     831.0  T
     SCC iter.                  ...        0 min,  0.024 sec
     gradient                   ...        0 min,  0.093 sec
 * total energy  :   -80.1770683 Eh     change       -0.4362307E-04 Eh
   gradient norm :     0.0038511 Eh/α   predicted    -0.2913359E-04 ( -33.22%)
   displ. norm   :     0.1891419 α      lambda       -0.7318248E-04
   maximum displ.:     0.0933525 α      in ANC's #8, #11, #5, ...

........................................................................
.............................. CYCLE   47 ..............................
........................................................................
   1    -81.0294818 -0.810295E+02  0.283E-03    0.97       0.0  T
   2    -81.0294819 -0.165022E-06  0.144E-03    0.97      10.1  T
   3    -81.0294819 -0.894121E-08  0.804E-04    0.97      18.1  T
   4    -81.0294819 -0.126296E-08  0.130E-04    0.97     112.2  T
   5    -81.0294819 -0.329621E-09  0.445E-05    0.97     327.5  T
     SCC iter.                  ...        0 min,  0.020 sec
     gradient                   ...        0 min,  0.093 sec
 * total energy  :   -80.1771176 Eh     change       -0.4929660E-04 Eh
   gradient norm :     0.0043177 Eh/α   predicted    -0.3790052E-04 ( -23.12%)
   displ. norm   :     0.1384908 α      lambda       -0.5701838E-04
   maximum displ.:     0.0726072 α      in ANC's #8, #5, #11, ...

........................................................................
.............................. CYCLE   48 ..............................
........................................................................
   1    -81.0292360 -0.810292E+02  0.264E-03    0.97       0.0  T
   2    -81.0292362 -0.221827E-06  0.117E-03    0.96      12.5  T
   3    -81.0292362 -0.884138E-08  0.643E-04    0.96      22.7  T
   4    -81.0292362 -0.816300E-09  0.234E-04    0.96      62.3  T
   5    -81.0292362 -0.903853E-09  0.709E-05    0.97     205.6  T
   6    -81.0292362 -0.184642E-09  0.174E-05    0.96     838.0  T
     SCC iter.                  ...        0 min,  0.024 sec
     gradient                   ...        0 min,  0.093 sec
 * total energy  :   -80.1771610 Eh     change       -0.4338707E-04 Eh
   gradient norm :     0.0034582 Eh/α   predicted    -0.2906338E-04 ( -33.01%)
   displ. norm   :     0.1584921 α      lambda       -0.6984494E-04
   maximum displ.:     0.0839313 α      in ANC's #8, #5, #11, ...

........................................................................
.............................. CYCLE   49 ..............................
........................................................................
   1    -81.0294367 -0.810294E+02  0.373E-03    0.96       0.0  T
   2    -81.0294372 -0.481184E-06  0.169E-03    0.96       8.6  T
   3    -81.0294372 -0.174102E-07  0.895E-04    0.96      16.3  T
   4    -81.0294372 -0.181927E-09  0.340E-04    0.96      42.8  T
   5    -81.0294372 -0.202701E-08  0.947E-05    0.96     154.1  T
   6    -81.0294372 -0.370591E-09  0.250E-05    0.96     583.0  T
     SCC iter.                  ...        0 min,  0.024 sec
     gradient                   ...        0 min,  0.093 sec
 * total energy  :   -80.1772119 Eh     change       -0.5090681E-04 Eh
   gradient norm :     0.0029552 Eh/α   predicted    -0.3579987E-04 ( -29.68%)
   displ. norm   :     0.2139233 α      lambda       -0.6258331E-04
   maximum displ.:     0.1108983 α      in ANC's #8, #5, #11, ...

........................................................................
.............................. CYCLE   50 ..............................
........................................................................
   1    -81.0290026 -0.810290E+02  0.333E-03    0.95       0.0  T
   2    -81.0290029 -0.342228E-06  0.169E-03    0.95       8.6  T
   3    -81.0290029 -0.120159E-07  0.911E-04    0.95      16.0  T
   4    -81.0290029 -0.775870E-09  0.245E-04    0.95      59.4  T
   5    -81.0290029 -0.726729E-09  0.406E-05    0.95     359.4  T
   6    -81.0290029 -0.435705E-10  0.146E-05    0.95     999.3  T
     SCC iter.                  ...        0 min,  0.024 sec
     gradient                   ...        0 min,  0.091 sec
 * total energy  :   -80.1772544 Eh     change       -0.4253022E-04 Eh
   gradient norm :     0.0046897 Eh/α   predicted    -0.3272402E-04 ( -23.06%)
   displ. norm   :     0.2330157 α      lambda       -0.1128751E-03
   maximum displ.:     0.1281710 α      in ANC's #5, #8, #4, ...

........................................................................
.............................. CYCLE   51 ..............................
........................................................................
   1    -81.0302475 -0.810302E+02  0.560E-03    0.94       0.0  T
   2    -81.0302483 -0.896937E-06  0.258E-03    0.94       5.7  T
   3    -81.0302484 -0.353275E-07  0.141E-03    0.94      10.4  T
   4    -81.0302484 -0.377324E-08  0.490E-04    0.94      29.8  T
   5    -81.0302484 -0.541243E-08  0.159E-04    0.94      91.7  T
   6    -81.0302484 -0.104968E-08  0.356E-05    0.94     410.2  T
     SCC iter.                  ...        0 min,  0.027 sec
     gradient                   ...        0 min,  0.083 sec
 * total energy  :   -80.1773186 Eh     change       -0.6417331E-04 Eh
   gradient norm :     0.0058012 Eh/α   predicted    -0.5950232E-04 (  -7.28%)
   displ. norm   :     0.3700634 α      lambda       -0.1081324E-03
   maximum displ.:     0.1987493 α      in ANC's #5, #8, #4, ...

........................................................................
.............................. CYCLE   52 ..............................
........................................................................
   1    -81.0277877 -0.810278E+02  0.871E-03    0.94       0.0  T
   2    -81.0277883 -0.536907E-06  0.465E-03    0.94       3.1  T
   3    -81.0277882  0.472405E-07  0.239E-03    0.94       6.1  T
   4    -81.0277884 -0.128914E-06  0.470E-04    0.94      31.0  T
   5    -81.0277884 -0.491927E-08  0.118E-04    0.94     124.1  T
   6    -81.0277884 -0.594241E-09  0.314E-05    0.94     464.9  T
     SCC iter.                  ...        0 min,  0.026 sec
     gradient                   ...        0 min,  0.098 sec
 * total energy  :   -80.1773367 Eh     change       -0.1811733E-04 Eh
   gradient norm :     0.0088256 Eh/α   predicted    -0.6147022E-04 ( 239.29%)
   displ. norm   :     0.1023321 α      lambda       -0.1591440E-03
   maximum displ.:     0.0588031 α      in ANC's #8, #11, #5, ...

........................................................................
.............................. CYCLE   53 ..............................
........................................................................
   1    -81.0300497 -0.810300E+02  0.746E-03    0.95       0.0  T
   2    -81.0300504 -0.679349E-06  0.397E-03    0.95       3.7  T
   3    -81.0300504 -0.123773E-07  0.182E-03    0.95       8.0  T
   4    -81.0300504 -0.234199E-07  0.546E-04    0.95      26.7  T
   5    -81.0300504 -0.908233E-08  0.122E-04    0.95     119.4  T
   6    -81.0300504 -0.706734E-09  0.351E-05    0.95     415.2  T
     SCC iter.                  ...        0 min,  0.026 sec
     gradient                   ...        0 min,  0.099 sec
 * total energy  :   -80.1774248 Eh     change       -0.8811473E-04 Eh
   gradient norm :     0.0031260 Eh/α   predicted    -0.8041263E-04 (  -8.74%)
   displ. norm   :     0.1624569 α      lambda       -0.5591778E-04
   maximum displ.:     0.0974976 α      in ANC's #5, #4, #8, ...

........................................................................
.............................. CYCLE   54 ..............................
........................................................................
   1    -81.0300506 -0.810301E+02  0.479E-03    0.95       0.0  T
   2    -81.0300511 -0.574230E-06  0.242E-03    0.95       6.0  T
   3    -81.0300513 -0.128656E-06  0.141E-03    0.95      10.4  T
   4    -81.0300513 -0.144577E-07  0.429E-04    0.95      34.0  T
   5    -81.0300513 -0.239605E-08  0.111E-04    0.95     130.9  T
   6    -81.0300513 -0.534030E-09  0.241E-05    0.95     605.6  T
     SCC iter.                  ...        0 min,  0.026 sec
     gradient                   ...        0 min,  0.098 sec
 * total energy  :   -80.1774677 Eh     change       -0.4284767E-04 Eh
   gradient norm :     0.0022350 Eh/α   predicted    -0.2869338E-04 ( -33.03%)
   displ. norm   :     0.2902111 α      lambda       -0.6360482E-04
   maximum displ.:     0.1731512 α      in ANC's #5, #4, #8, ...

........................................................................
.............................. CYCLE   55 ..............................
........................................................................
   1    -81.0289415 -0.810289E+02  0.729E-03    0.96       0.0  T
   2    -81.0289428 -0.128012E-05  0.376E-03    0.96       3.9  T
   3    -81.0289432 -0.394103E-06  0.204E-03    0.96       7.1  T
   4    -81.0289432 -0.219127E-07  0.557E-04    0.96      26.2  T
   5    -81.0289432 -0.709338E-08  0.126E-04    0.96     115.8  T
   6    -81.0289432 -0.716213E-09  0.270E-05    0.96     539.9  T
     SCC iter.                  ...        0 min,  0.026 sec
     gradient                   ...        0 min,  0.098 sec
 * total energy  :   -80.1775058 Eh     change       -0.3813061E-04 Eh
   gradient norm :     0.0036383 Eh/α   predicted    -0.3447087E-04 (  -9.60%)
   displ. norm   :     0.0968790 α      lambda       -0.3169415E-04
   maximum displ.:     0.0576830 α      in ANC's #5, #4, #7, ...

........................................................................
.............................. CYCLE   56 ..............................
........................................................................
   1    -81.0295334 -0.810295E+02  0.352E-03    0.96       0.0  T
   2    -81.0295338 -0.377608E-06  0.174E-03    0.96       8.4  T
   3    -81.0295339 -0.110445E-06  0.769E-04    0.96      19.0  T
   4    -81.0295339 -0.346404E-08  0.301E-04    0.96      48.5  T
   5    -81.0295339 -0.114765E-08  0.644E-05    0.96     226.7  T
   6    -81.0295339 -0.182240E-09  0.126E-05    0.96    1158.6  T
     SCC iter.                  ...        0 min,  0.026 sec
     gradient                   ...        0 min,  0.098 sec
 * total energy  :   -80.1775306 Eh     change       -0.2475882E-04 Eh
   gradient norm :     0.0027776 Eh/α   predicted    -0.1600232E-04 ( -35.37%)
   displ. norm   :     0.2507467 α      lambda       -0.5021180E-04
   maximum displ.:     0.1481104 α      in ANC's #5, #4, #7, ...

........................................................................
.............................. CYCLE   57 ..............................
........................................................................
   1    -81.0297139 -0.810297E+02  0.606E-03    0.95       0.0  T
   2    -81.0297152 -0.132975E-05  0.295E-03    0.95       4.9  T
   3    -81.0297156 -0.425094E-06  0.100E-03    0.95      14.6  T
   4    -81.0297156 -0.914261E-08  0.479E-04    0.95      30.4  T
   5    -81.0297156 -0.144813E-08  0.120E-04    0.95     121.9  T
   6    -81.0297156 -0.582972E-09  0.255E-05    0.95     571.5  T
     SCC iter.                  ...        0 min,  0.026 sec
     gradient                   ...        0 min,  0.098 sec
 * total energy  :   -80.1775681 Eh     change       -0.3752953E-04 Eh
   gradient norm :     0.0029775 Eh/α   predicted    -0.2669621E-04 ( -28.87%)
   displ. norm   :     0.2548781 α      lambda       -0.4585504E-04
   maximum displ.:     0.1482944 α      in ANC's #5, #4, #7, ...

........................................................................
.............................. CYCLE   58 ..............................
........................................................................
   1    -81.0300368 -0.810300E+02  0.578E-03    0.95       0.0  T
   2    -81.0300379 -0.111314E-05  0.292E-03    0.95       5.0  T
   3    -81.0300382 -0.363592E-06  0.124E-03    0.95      11.7  T
   4    -81.0300383 -0.115759E-07  0.519E-04    0.95      28.1  T
   5    -81.0300383 -0.178404E-08  0.132E-04    0.95     110.8  T
   6    -81.0300383 -0.718714E-09  0.290E-05    0.95     502.5  T
     SCC iter.                  ...        0 min,  0.026 sec
     gradient                   ...        0 min,  0.098 sec
 * total energy  :   -80.1776011 Eh     change       -0.3303358E-04 Eh
   gradient norm :     0.0030670 Eh/α   predicted    -0.2442578E-04 ( -26.06%)
   displ. norm   :     0.2476726 α      lambda       -0.3405245E-04
   maximum displ.:     0.1467992 α      in ANC's #5, #4, #7, ...

........................................................................
.............................. CYCLE   59 ..............................
........................................................................
   1    -81.0299508 -0.810300E+02  0.489E-03    0.95       0.0  T
   2    -81.0299516 -0.752619E-06  0.237E-03    0.95       6.2  T
   3    -81.0299518 -0.232624E-06  0.110E-03    0.95      13.2  T
   4    -81.0299518 -0.111900E-07  0.432E-04    0.95      33.7  T
   5    -81.0299518 -0.111521E-08  0.114E-04    0.95     128.0  T
   6    -81.0299518 -0.511335E-09  0.274E-05    0.95     533.0  T
     SCC iter.                  ...        0 min,  0.025 sec
     gradient                   ...        0 min,  0.099 sec
 * total energy  :   -80.1776258 Eh     change       -0.2464526E-04 Eh
   gradient norm :     0.0032133 Eh/α   predicted    -0.1807977E-04 ( -26.64%)
   displ. norm   :     0.2261001 α      lambda       -0.5677918E-04
   maximum displ.:     0.1241997 α      in ANC's #5, #7, #4, ...

........................................................................
.............................. CYCLE   60 ..............................
........................................................................
   1    -81.0326490 -0.810326E+02  0.757E-03    0.95       0.0  T
   2    -81.0326499 -0.845738E-06  0.429E-03    0.95       3.4  T
   3    -81.0326499 -0.475089E-07  0.250E-03    0.95       5.8  T
   4    -81.0326500 -0.719141E-07  0.585E-04    0.95      24.9  T
   5    -81.0326500 -0.106651E-07  0.109E-04    0.95     133.6  T
   6    -81.0326500 -0.452474E-09  0.379E-05    0.95     384.6  T
     SCC iter.                  ...        0 min,  0.026 sec
     gradient                   ...        0 min,  0.100 sec
 * total energy  :   -80.1776315 Eh     change       -0.5739691E-05 Eh
   gradient norm :     0.0047136 Eh/α   predicted    -0.2985089E-04 ( 420.08%)
   displ. norm   :     0.3651391 α      lambda       -0.8099082E-04
   maximum displ.:     0.2245586 α      in ANC's #5, #4, #7, ...

........................................................................
.............................. CYCLE   61 ..............................
........................................................................
   1    -81.0293281 -0.810293E+02  0.929E-03    0.95       0.0  T
   2    -81.0293295 -0.143717E-05  0.462E-03    0.95       3.2  T
   3    -81.0293298 -0.327042E-06  0.276E-03    0.95       5.3  T
   4    -81.0293299 -0.842451E-07  0.665E-04    0.95      21.9  T
   5    -81.0293299 -0.801619E-08  0.183E-04    0.95      79.9  T
   6    -81.0293299 -0.109945E-08  0.459E-05    0.95     317.5  T
     SCC iter.                  ...        0 min,  0.026 sec
     gradient                   ...        0 min,  0.098 sec
[...]
 
 selected dihedral angles (degree)
 ---------------------------------
C3-O2-C1-H26=175.15           C3-O2-C1-H27=294.51           C3-O2-C1-H28= 56.07           N4-C3-O2-C1=276.37            
C13-C3-O2-C1= 90.95           C5-N4-C3-O2=248.48            C5-N4-C3-C13= 73.84           H29-N4-C3-O2=  8.80           
H29-N4-C3-C13=194.16          C6-C5-N4-C3= 66.99            C6-C5-N4-H29=306.37           H30-C5-N4-C3=304.90           
H30-C5-N4-H29=184.27          H31-C5-N4-C3=187.89           H31-C5-N4-H29= 67.26          C7-C6-C5-N4=276.55            
C7-C6-C5-H30= 36.78           C7-C6-C5-H31=157.50           C12-C6-C5-N4= 92.69           C12-C6-C5-H30=212.92          
C12-C6-C5-H31=333.64          C8-C7-C6-C5=176.84            C8-C7-C6-C12=  0.65           H32-C7-C6-C5=356.30           
H32-C7-C6-C12=180.11          C9-C8-C7-C6=359.77            C9-C8-C7-H32=180.32           H33-C8-C7-C6=179.36           
H33-C8-C7-H32=359.90          F10-C9-C8-C7=179.47           F10-C9-C8-H33=359.88          C11-C9-C8-C7=359.92           
C11-C9-C8-H33=180.33          
           -------------------------------------------------
          |                Final Singlepoint                |
           -------------------------------------------------

          ...................................................
          :                      SETUP                      :
          :.................................................:
          :  # basis functions                 144          :
          :  # atomic orbitals                 144          :
          :  # shells                           94          :
          :  # electrons                       136          :
          :  # halogen bonds                     0          :
          :  max. iterations                   250          :
          :  Hamiltonian                  GFN1-xTB          :
          :  restarted?                      false          :
          :  GBSA solvation                   true          :
          :  PC potential                    false          :
          :  electronic temp.          300.0000000     K    :
          :  accuracy                    1.0000000          :
          :  -> integral cutoff          0.2500000E+02      :
          :  -> integral neglect         0.1000000E-07      :
          :  -> SCF convergence          0.1000000E-05 Eh   :
          :  -> wf. convergence          0.2000000E-04 e    :
          :  Broyden damping             0.4000000          :
          ...................................................

 iter      E             dE          RMSdq      gap      omega  full diag
   1    -81.0343179 -0.810343E+02  0.508E-06    1.02       0.0  T
   2    -81.0343179 -0.596856E-12  0.227E-06    1.02    6434.0  T
   3    -81.0343179 -0.710543E-13  0.112E-06    1.02   13030.7  T

   *** convergence criteria satisfied after 3 iterations ***

         #    Occupation            Energy/Eh            Energy/eV
      -------------------------------------------------------------
         1        2.0000           -0.8494043             -23.1135
       ...           ...                  ...                  ...
        62        2.0000           -0.4138485             -11.2614
        63        2.0000           -0.3975587             -10.8181
        64        2.0000           -0.3876212             -10.5477
        65        2.0000           -0.3809602             -10.3665
        66        2.0000           -0.3756720             -10.2226
        67        2.0000           -0.3569486              -9.7131
        68        2.0000           -0.2939111              -7.9977 (HOMO)
        69                         -0.2564360              -6.9780 (LUMO)
        70                         -0.2483395              -6.7577
        71                         -0.2179621              -5.9311
        72                         -0.1828326              -4.9751
        73                         -0.1286499              -3.5007
       ...                                ...                  ...
       144                          0.7094717              19.3057
      -------------------------------------------------------------
                  HL-Gap            0.0374752 Eh            1.0198 eV
             Fermi-level           -0.2751736 Eh           -7.4879 eV

 SCC (total)                   0 d,  0 h,  0 min,  0.152 sec
 SCC setup                      ...        0 min,  0.002 sec (  1.418%)
 Dispersion                     ...        0 min,  0.000 sec (  0.259%)
 classical contributions        ...        0 min,  0.000 sec (  0.087%)
 integral evaluation            ...        0 min,  0.040 sec ( 26.586%)
 iterations                     ...        0 min,  0.012 sec (  7.958%)
 molecular gradient             ...        0 min,  0.096 sec ( 63.123%)
 printout                       ...        0 min,  0.001 sec (  0.547%)

         :::::::::::::::::::::::::::::::::::::::::::::::::::::
         ::                     SUMMARY                     ::
         :::::::::::::::::::::::::::::::::::::::::::::::::::::
         :: total energy             -80.182235797590 Eh    ::
         :: total w/o Gsasa/hb       -80.158428274976 Eh    ::
         :: gradient norm              0.000313846346 Eh/a0 ::
         :: HOMO-LUMO gap              1.019751524707 eV    ::
         ::.................................................::
         :: SCC energy               -81.034317913950 Eh    ::
         :: -> electrostatic           0.339086937996 Eh    ::
         :: -> Gsolv                  -0.111245289477 Eh    ::
         ::    -> Gelec               -0.087437766864 Eh    ::
         ::    -> Gsasa               -0.024380118263 Eh    ::
         ::    -> Ghb                 -0.007051683355 Eh    ::
         ::    -> Gshift               0.007624279005 Eh    ::
         :: repulsion energy           0.883917003016 Eh    ::
         :: dispersion energy         -0.031834886656 Eh    ::
         :: halogen bond corr.         0.000000000000 Eh    ::
         :: add. restraining           0.000000000000 Eh    ::
         :: total charge              -1.000000000001 e     ::
         :::::::::::::::::::::::::::::::::::::::::::::::::::::

           -------------------------------------------------
          |                Property Printout                |
           -------------------------------------------------

    * Orbital Energies and Occupations

         #    Occupation            Energy/Eh            Energy/eV
      -------------------------------------------------------------
         1        2.0000           -0.8494043             -23.1135
       ...           ...                  ...                  ...
        56        2.0000           -0.4596989             -12.5090
        57        2.0000           -0.4552327             -12.3875
        58        2.0000           -0.4528695             -12.3232
        59        2.0000           -0.4346797             -11.8282
        60        2.0000           -0.4292654             -11.6809
        61        2.0000           -0.4180139             -11.3747
        62        2.0000           -0.4138485             -11.2614
        63        2.0000           -0.3975587             -10.8181
        64        2.0000           -0.3876212             -10.5477
        65        2.0000           -0.3809602             -10.3665
        66        2.0000           -0.3756720             -10.2226
        67        2.0000           -0.3569486              -9.7131
        68        2.0000           -0.2939111              -7.9977 (HOMO)
        69                         -0.2564360              -6.9780 (LUMO)
        70                         -0.2483395              -6.7577
        71                         -0.2179621              -5.9311
        72                         -0.1828326              -4.9751
        73                         -0.1286499              -3.5007
        74                         -0.1152497              -3.1361
        75                         -0.1119120              -3.0453
        76                         -0.1097717              -2.9870
        77                         -0.1009097              -2.7459
        78                         -0.0973742              -2.6497
        79                         -0.0940863              -2.5602
       ...                                ...                  ...
       144                          0.7094717              19.3057
      -------------------------------------------------------------
                  HL-Gap            0.0374752 Eh            1.0198 eV
             Fermi-level           -0.2751736 Eh           -7.4879 eV

  Mulliken/CM5 charges         n(s)   n(p)   n(d)
     1C     0.16866  0.04803   0.975  2.856  0.000
     2O    -0.48830 -0.58264   1.698  4.790  0.000
     3C     0.21548  0.29373   0.964  2.820  0.000
     4N    -0.41012 -0.74608   1.484  3.926  0.000
     5C     0.08905  0.04210   1.010  2.901  0.000
     6C    -0.00793 -0.01833   1.089  2.919  0.000
     7C    -0.02231 -0.07452   1.059  2.964  0.000
     8C    -0.06938 -0.12022   1.057  3.013  0.000
     9C     0.23442  0.24534   1.044  2.721  0.000
    10F    -0.28850 -0.31228   1.834  5.455  0.000
    11C    -0.07283 -0.12383   1.056  3.017  0.000
    12C    -0.03524 -0.08821   1.061  2.974  0.000
    13C     0.05316  0.12443   1.048  2.899  0.000
    14N    -0.44440 -0.63327   1.535  3.909  0.000
    15C     0.25970  0.41383   1.014  2.727  0.000
    16C     0.14391  0.17769   1.067  2.789  0.000
    17C    -0.09600 -0.23570   1.017  3.079  0.000
    18C    -0.10096 -0.24243   1.016  3.085  0.000
    19N    -0.51304 -0.97333   1.473  4.040  0.000
    20N    -0.27191 -0.51131   1.453  3.819  0.000
    21C     0.06370 -0.02194   0.979  2.957  0.000
    22C     0.36624  0.45654   0.985  2.649  0.000
    23O    -0.71686 -0.75740   1.748  4.969  0.000
    24C     0.06855  0.09798   1.003  2.929  0.000
    25O    -0.58737 -0.77972   1.706  4.882  0.000
    26H     0.02242  0.08226   0.978  0.000  0.000
    27H     0.01161  0.07232   0.988  0.000  0.000
    28H     0.01106  0.07130   0.989  0.000  0.000
    29H     0.19624  0.39420   0.804  0.000  0.000
    30H     0.01950  0.09155   0.980  0.000  0.000
    31H     0.01495  0.08020   0.985  0.000  0.000
    32H     0.03288  0.09197   0.967  0.000  0.000
    33H     0.04714  0.10420   0.953  0.000  0.000
    34H     0.04826  0.10536   0.952  0.000  0.000
    35H     0.03619  0.09340   0.964  0.000  0.000
    36H     0.02785  0.08692   0.972  0.000  0.000
    37H     0.02454  0.08020   0.975  0.000  0.000
    38H     0.02645  0.08439   0.974  0.000  0.000
    39H     0.02968  0.08424   0.970  0.000  0.000
    40H     0.03356  0.08864   0.966  0.000  0.000
    41H     0.03250  0.09012   0.967  0.000  0.000
    42H     0.21071  0.40126   0.789  0.000  0.000
    43H     0.21139  0.40238   0.789  0.000  0.000
    44H     0.03764  0.10588   0.962  0.000  0.000
    45H     0.02267  0.09694   0.977  0.000  0.000
    46H     0.02096  0.08355   0.979  0.000  0.000
    47H     0.34408  0.53031   0.656  0.000  0.000

Wiberg/Mayer (AO) data.
largest (>0.10) Wiberg bond orders for each atom

 ---------------------------------------------------------------------------
     #   Z sym  total        # sym  WBO       # sym  WBO       # sym  WBO
 ---------------------------------------------------------------------------
     1   6 C    3.919 --    26 H    0.986    28 H    0.983    27 H    0.982
                             2 O    0.933
     2   8 O    2.029 --     1 C    0.933     3 C    0.933
     3   6 C    3.794 --    13 C    1.517     4 N    0.992     2 O    0.933
     4   7 N    3.052 --     3 C    0.992     5 C    0.948    29 H    0.947
     5   6 C    3.973 --     6 C    1.006    31 H    0.979    30 H    0.969
                             4 N    0.948
     6   6 C    3.983 --    12 C    1.408     7 C    1.397     5 C    1.006
     7   6 C    3.991 --     8 C    1.445     6 C    1.397    32 H    0.972
                            11 C    0.107
     8   6 C    3.992 --     7 C    1.445     9 C    1.402    33 H    0.971
                            12 C    0.108
     9   6 C    3.849 --     8 C    1.402    11 C    1.396    10 F    0.911
    10   9 F    1.033 --     9 C    0.911
    11   6 C    3.988 --    12 C    1.446     9 C    1.396    34 H    0.971
                             7 C    0.107
    12   6 C    3.993 --    11 C    1.446     6 C    1.408    35 H    0.972
                             8 C    0.108
    13   6 C    3.952 --     3 C    1.517    24 C    1.169    14 N    1.079
    14   7 N    3.013 --    15 C    1.596    13 C    1.079    20 N    0.132
    15   6 C    3.943 --    14 N    1.596    20 N    1.198    16 C    0.967
    16   6 C    3.964 --    17 C    0.993    18 C    0.991    19 N    0.974
                            15 C    0.967
    17   6 C    3.996 --    16 C    0.993    37 H    0.986    36 H    0.984
                            38 H    0.981
    18   6 C    3.995 --    16 C    0.991    39 H    0.986    40 H    0.985
                            41 H    0.982
    19   7 N    2.990 --    16 C    0.974    43 H    0.948    42 H    0.947
    20   7 N    3.399 --    15 C    1.198    21 C    0.955    22 C    0.938
                            14 N    0.132
    21   6 C    3.956 --    46 H    0.981    44 H    0.979    45 H    0.975
                            20 N    0.955
    22   6 C    3.910 --    24 C    1.402    23 O    1.395    20 N    0.938
    23   8 O    1.723 --    22 C    1.395    24 C    0.136
    24   6 C    3.841 --    22 C    1.402    13 C    1.169    25 O    0.953
                            23 O    0.136
    25   8 O    1.932 --    24 C    0.953    47 H    0.858
    26   1 H    1.019 --     1 C    0.986
    27   1 H    1.026 --     1 C    0.982
    28   1 H    1.015 --     1 C    0.983
    29   1 H    0.976 --     4 N    0.947
    30   1 H    1.037 --     5 C    0.969
    31   1 H    1.013 --     5 C    0.979
    32   1 H    1.011 --     7 C    0.972
    33   1 H    1.000 --     8 C    0.971
    34   1 H    1.000 --    11 C    0.971
    35   1 H    1.002 --    12 C    0.972
    36   1 H    1.018 --    17 C    0.984
    37   1 H    1.006 --    17 C    0.986
    38   1 H    1.020 --    17 C    0.981
    39   1 H    1.006 --    18 C    0.986
    40   1 H    1.003 --    18 C    0.985
    41   1 H    1.007 --    18 C    0.982
    42   1 H    0.964 --    19 N    0.947
    43   1 H    0.962 --    19 N    0.948
    44   1 H    1.024 --    21 C    0.979
    45   1 H    1.034 --    21 C    0.975
    46   1 H    1.011 --    21 C    0.981
    47   1 H    0.902 --    25 O    0.858
 ---------------------------------------------------------------------------

Topologies differ in total number of bonds
Writing topology from bond orders to xtbtopo.mol

 dipole moment from electron density (au)
     X       Y       Z   
  -0.1625   6.2160   0.2203  total (Debye):   15.815

           -------------------------------------------------
          |                Geometry Summary                 |
           -------------------------------------------------

      molecular mass/u    :      349.3806376
   center of mass at/Å    :        0.4670469      -0.2834221      -0.0411644
  moments of inertia/u·Å² :        0.1481302E+04   0.3988732E+04   0.4497098E+04
rotational constants/cm⁻¹ :        0.1138028E-01   0.4226314E-02   0.3748558E-02

 * 39 selected distances

     #   Z          #   Z                                           value/Å
     1   6 C        2   8 O                                       1.4268358
     4   7 N        5   6 C                                       1.4786497
     6   6 C        7   6 C                                       1.3969965
     7   6 C        8   6 C                                       1.3877955
     8   6 C        9   6 C                                       1.3826658
     9   6 C       11   6 C                                       1.3839475
     6   6 C       12   6 C                                       1.3952303
    11   6 C       12   6 C                                       1.3876564
     3   6 C       13   6 C                                       1.3702088
    14   7 N       15   6 C                                       1.2910550
    16   6 C       17   6 C                                       1.5381877 (max)
    16   6 C       18   6 C                                       1.5351430
    16   6 C       19   7 N                                       1.4670973
    15   6 C       20   7 N                                       1.3617760
    20   7 N       21   6 C                                       1.4582987
    13   6 C       24   6 C                                       1.4333506
    22   6 C       24   6 C                                       1.3830028
     1   6 C       26   1 H                                       1.0912210
     1   6 C       27   1 H                                       1.0978501
     1   6 C       28   1 H                                       1.0958914
     4   7 N       29   1 H                                       1.0172842
     5   6 C       30   1 H                                       1.0943262
     5   6 C       31   1 H                                       1.0943645
     7   6 C       32   1 H                                       1.0848338
     8   6 C       33   1 H                                       1.0828179
    11   6 C       34   1 H                                       1.0820467
    12   6 C       35   1 H                                       1.0842769
    17   6 C       36   1 H                                       1.0895214
    17   6 C       37   1 H                                       1.0890997
    17   6 C       38   1 H                                       1.0894213
    18   6 C       39   1 H                                       1.0900507
    18   6 C       40   1 H                                       1.0895764
    18   6 C       41   1 H                                       1.0883840
    19   7 N       42   1 H                                       1.0120442
    19   7 N       43   1 H                                       1.0097722
    21   6 C       44   1 H                                       1.0935942
    21   6 C       45   1 H                                       1.0865998
    21   6 C       46   1 H                                       1.0946261
    25   8 O       47   1 H                                       0.9682929 (min)

 * 6 distinct bonds (by element types)

   Z      Z             #   av. dist./Å        max./Å        min./Å
   1 H    6 C          18     1.0899168     1.0978501     1.0820467
   6 C    6 C          11     1.4176532     1.5381877     1.3702088
   1 H    7 N           3     1.0130335     1.0172842     1.0097722
   6 C    7 N           5     1.4113754     1.4786497     1.2910550
   1 H    8 O           1     0.9682929     0.9682929     0.9682929
   6 C    8 O           1     1.4268358     1.4268358     1.4268358


optimized geometry written to: xtbopt.xyz


           -------------------------------------------------
          | TOTAL ENERGY              -80.182235797590 Eh   |
          | GRADIENT NORM               0.000313846346 Eh/α |
          | HOMO-LUMO GAP               1.019751524707 eV   |
           -------------------------------------------------

------------------------------------------------------------------------
 * finished run on 2023/06/20 at 15:02:51.798     
------------------------------------------------------------------------
 total:
 * wall-time:     0 d,  0 h,  0 min, 23.874 sec
 *  cpu-time:     0 d,  0 h,  0 min, 22.581 sec
 * ratio c/w:     0.946 speedup
 SCF:
 * wall-time:     0 d,  0 h,  0 min,  0.311 sec
 *  cpu-time:     0 d,  0 h,  0 min,  0.220 sec
 * ratio c/w:     0.708 speedup
 ANC optimizer:
 * wall-time:     0 d,  0 h,  0 min, 23.326 sec
 *  cpu-time:     0 d,  0 h,  0 min, 22.308 sec
 * ratio c/w:     0.956 speedup

