      -----------------------------------------------------------      
     |                   =====================                   |     
     |                           x T B                           |     
     |                   =====================                   |     
     |                         S. Grimme                         |     
     |          Mulliken Center for Theoretical Chemistry        |     
     |                    University of Bonn                     |     
      -----------------------------------------------------------      

   * xtb version 6.5.1 (579679a) compiled by 'ehlert@majestix' on 2022-07-11

   xtb is free software: you can redistribute it and/or modify it under
   the terms of the GNU Lesser General Public License as published by
   the Free Software Foundation, either version 3 of the License, or
   (at your option) any later version.
   
   xtb is distributed in the hope that it will be useful,
   but WITHOUT ANY WARRANTY; without even the implied warranty of
   MERCHANTABILITY or FITNESS FOR A PARTICULAR PURPOSE.  See the
   GNU Lesser General Public License for more details.
   
   Cite this work as:
   * C. Bannwarth, E. Caldeweyher, S. Ehlert, A. Hansen, P. Pracht,
     J. Seibert, S. Spicher, S. Grimme, WIREs Comput. Mol. Sci., 2020, 11,
     e01493. DOI: 10.1002/wcms.1493
   
   for GFN2-xTB:
   * C. Bannwarth, S. Ehlert and S. Grimme., J. Chem. Theory Comput., 2019,
     15, 1652-1671. DOI: 10.1021/acs.jctc.8b01176
   for GFN1-xTB:
   * S. Grimme, C. Bannwarth, P. Shushkov, J. Chem. Theory Comput., 2017,
     13, 1989-2009. DOI: 10.1021/acs.jctc.7b00118
   for GFN0-xTB:
   * P. Pracht, E. Caldeweyher, S. Ehlert, S. Grimme, ChemRxiv, 2019, preprint.
     DOI: 10.26434/chemrxiv.8326202.v1
   for GFN-FF:
   * S. Spicher and S. Grimme, Angew. Chem. Int. Ed., 2020, 59, 15665-15673.
     DOI: 10.1002/anie.202004239
   
   for ALPB and GBSA implicit solvation:
   * S. Ehlert, M. Stahn, S. Spicher, S. Grimme, J. Chem. Theory Comput.,
     2021, 17, 4250-4261. DOI: 10.1021/acs.jctc.1c00471
   
   for DFT-D4:
   * E. Caldeweyher, C. Bannwarth and S. Grimme, J. Chem. Phys., 2017,
     147, 034112. DOI: 10.1063/1.4993215
   * E. Caldeweyher, S. Ehlert, A. Hansen, H. Neugebauer, S. Spicher,
     C. Bannwarth and S. Grimme, J. Chem. Phys., 2019, 150, 154122.
     DOI: 10.1063/1.5090222
   * E. Caldeweyher, J.-M. Mewes, S. Ehlert and S. Grimme, Phys. Chem. Chem. Phys.
     2020, 22, 8499-8512. DOI: 10.1039/D0CP00502A
   
   for sTDA-xTB:
   * S. Grimme and C. Bannwarth, J. Chem. Phys., 2016, 145, 054103.
     DOI: 10.1063/1.4959605
   
   in the mass-spec context:
   * V. Asgeirsson, C. Bauer and S. Grimme, Chem. Sci., 2017, 8, 4879.
     DOI: 10.1039/c7sc00601b
   * J. Koopman and S. Grimme, ACS Omega 2019, 4, 12, 15120-15133.
     DOI: 10.1021/acsomega.9b02011
   
   for metadynamics refer to:
   * S. Grimme, J. Chem. Theory Comput., 2019, 155, 2847-2862
     DOI: 10.1021/acs.jctc.9b00143
   
   for SPH calculations refer to:
   * S. Spicher and S. Grimme, J. Chem. Theory Comput., 2021, 17, 1701-1714
     DOI: 10.1021/acs.jctc.0c01306
   
   with help from (in alphabetical order)
   P. Atkinson, C. Bannwarth, F. Bohle, G. Brandenburg, E. Caldeweyher
   M. Checinski, S. Dohm, S. Ehlert, S. Ehrlich, I. Gerasimov, C. Hölzer
   A. Katbashev, J. Koopman, C. Lavigne, S. Lehtola, F. März, M. Müller,
   F. Musil, H. Neugebauer, J. Pisarek, C. Plett, P. Pracht, F. Pultar,
   J. Seibert, P. Shushkov, S. Spicher, M. Stahn, M. Steiner, T. Strunk,
   J. Stückrath, T. Rose, and J. Unsleber
   
 * started run on 2023/06/21 at 17:12:30.662     

           -------------------------------------------------
          |                Calculation Setup                |
           -------------------------------------------------

          program call               : /lustre/hpc/kemi/ree/PhD/git/ReactivityQM/dep/xtb-6.5.1/bin/xtb --gfn 1 /lustre/hpc/kemi/ree/PhD/git/ReactivityQM/calculations/R02oxygendeprot/reac01prodE10/conf18/R02oxygendeprot_reac01prodE10_conf18_gfn1.xyz --opt --vfukui --chrg -2 --uhf 0 --alpb DMSO
          hostname                   : node070
          coordinate file            : /lustre/hpc/kemi/ree/PhD/git/ReactivityQM/calculations/R02oxygendeprot/reac01prodE10/conf18/R02oxygendeprot_reac01prodE10_conf18_gfn1.xyz
          omp threads                :                     1

   ID    Z sym.   atoms
    1    6 C      1, 3, 5, 7-10, 12, 14, 17-19, 22, 24
    2    8 O      2, 4, 13, 20, 23, 25
    3    7 N      6, 11, 15, 16, 21
    4    1 H      26-42

           -------------------------------------------------
          |                 G F N 1 - x T B                 |
           -------------------------------------------------

        Reference                      10.1021/acs.jctc.7b00118
      * Hamiltonian:
        H0-scaling (s, p, d)           1.850000    2.250000    2.000000
        zeta-weighting                 0.000000
      * Dispersion:
        s8                             2.400000
        a1                             0.630000
        a2                             5.000000
        s9                             0.000000
      * Repulsion:
        kExp                           1.500000
        rExp                           1.000000
      * Coulomb:
        alpha                          2.000000
        third order                    atomic
        anisotropic                    false
      * Halogen bond correction:
        rad-scale                      1.300000
        damping                        0.440000

      * Solvation model:               ALPB
        Solvent                        DMSO
        Parameter file                 internal GFN1-xTB/ALPB
        Dielectric constant                4.6680E+01
        Reference state                gsolv [1 M gas/solution]
        Free energy shift                  7.6243E-03 Eh       4.7843E+00 kcal/mol
        Temperature                        2.9815E+02 K
        Density                            1.1000E+00 kg/L
        Solvent mass                       7.8130E+01 g/mol
        Interaction kernel             P16
        Born radius scaling (c1)           1.7672E+00
        Born radii integrator          GBOBC
        Born offset                        0.0000E+00 a0       0.0000E+00 AA
        H-bond correction              true
        Ion screening                  false
        Surface tension                    1.0000E-05 Eh       1.5569E+01 dyn/cm
        Grid points                               230 per atom

          ...................................................
          :                      SETUP                      :
          :.................................................:
          :  # basis functions                 134          :
          :  # atomic orbitals                 134          :
          :  # shells                           84          :
          :  # electrons                       136          :
          :  # halogen bonds                     0          :
          :  max. iterations                   250          :
          :  Hamiltonian                  GFN1-xTB          :
          :  restarted?                      false          :
          :  GBSA solvation                   true          :
          :  PC potential                    false          :
          :  electronic temp.          300.0000000     K    :
          :  accuracy                    1.0000000          :
          :  -> integral cutoff          0.2500000E+02      :
          :  -> integral neglect         0.1000000E-07      :
          :  -> SCF convergence          0.1000000E-05 Eh   :
          :  -> wf. convergence          0.2000000E-04 e    :
          :  Broyden damping             0.4000000          :
          ...................................................

 iter      E             dE          RMSdq      gap      omega  full diag
   1    -83.9506760 -0.839507E+02  0.880E+00    0.05       0.0  T
   2    -84.1270516 -0.176376E+00  0.552E+00    0.61       1.0  T
   3    -83.9268335  0.200218E+00  0.324E+00    0.05       1.0  T
   4    -84.1770369 -0.250203E+00  0.124E+00    0.01       1.0  T
   5    -84.2573042 -0.802673E-01  0.778E-01    0.49       1.0  T
   6    -84.2639154 -0.661122E-02  0.686E-01    0.27       1.0  T
   7    -84.2347238  0.291916E-01  0.960E-01    0.41       1.0  T
   8    -84.2816665 -0.469426E-01  0.506E-01    0.11       1.0  T
   9    -84.1088583  0.172808E+00  0.111E+00    0.08       1.0  T
  10    -84.2871340 -0.178276E+00  0.327E-01    0.28       1.0  T
  11    -84.2843744  0.275956E-02  0.374E-01    0.26       1.0  T
  12    -84.2532062  0.311682E-01  0.774E-01    0.19       1.0  T
  13    -84.2878878 -0.346816E-01  0.307E-01    0.22       1.0  T
  14    -84.2887081 -0.820261E-03  0.292E-01    0.21       1.0  T
  15    -84.2936804 -0.497231E-02  0.203E-01    0.16       1.0  T
  16    -84.2988772 -0.519683E-02  0.759E-02    0.07       1.0  T
  17    -84.2988409  0.363169E-04  0.790E-02    0.11       1.0  T
  18    -84.2992778 -0.436912E-03  0.556E-02    0.08       1.0  T
  19    -84.2996510 -0.373130E-03  0.242E-02    0.09       1.0  T
  20    -84.2997078 -0.568446E-04  0.130E-02    0.09       1.2  T
  21    -84.2997294 -0.216025E-04  0.359E-03    0.09       4.3  T
  22    -84.2997304 -0.101625E-05  0.152E-03    0.09      10.2  T
  23    -84.2997306 -0.221001E-06  0.670E-04    0.09      23.0  T
  24    -84.2997304  0.271229E-06  0.144E-03    0.09      10.7  T
  25    -84.2997307 -0.307599E-06  0.126E-05    0.09    1227.8  T
  26    -84.2997307  0.102006E-09  0.329E-05    0.09     468.7  T

   *** convergence criteria satisfied after 26 iterations ***

         #    Occupation            Energy/Eh            Energy/eV
      -------------------------------------------------------------
         1        2.0000           -0.7981472             -21.7187
       ...           ...                  ...                  ...
        62        2.0000           -0.3881876             -10.5631
        63        2.0000           -0.3866827             -10.5222
        64        2.0000           -0.3721411             -10.1265
        65        2.0000           -0.3631293              -9.8812
        66        2.0000           -0.3456072              -9.4045
        67        2.0000           -0.3325979              -9.0504
        68        1.6893           -0.2439017              -6.6369 (HOMO)
        69        0.3063           -0.2406685              -6.5489 (LUMO)
        70        0.0044           -0.2364753              -6.4348
        71                         -0.2107010              -5.7335
        72                         -0.1662509              -4.5239
        73                         -0.1407031              -3.8287
       ...                                ...                  ...
       134                          0.8048958              21.9023
      -------------------------------------------------------------
                  HL-Gap            0.0032333 Eh            0.0880 eV
             Fermi-level           -0.2422931 Eh           -6.5931 eV

 SCC (total)                   0 d,  0 h,  0 min,  0.172 sec
 SCC setup                      ...        0 min,  0.002 sec (  0.923%)
 Dispersion                     ...        0 min,  0.000 sec (  0.167%)
 classical contributions        ...        0 min,  0.000 sec (  0.053%)
 integral evaluation            ...        0 min,  0.023 sec ( 13.401%)
 iterations                     ...        0 min,  0.115 sec ( 67.087%)
 molecular gradient             ...        0 min,  0.031 sec ( 17.958%)
 printout                       ...        0 min,  0.001 sec (  0.399%)

         :::::::::::::::::::::::::::::::::::::::::::::::::::::
         ::                     SUMMARY                     ::
         :::::::::::::::::::::::::::::::::::::::::::::::::::::
         :: total energy             -83.562681108659 Eh    ::
         :: total w/o Gsasa/hb       -83.542213581326 Eh    ::
         :: gradient norm              0.159934848451 Eh/a0 ::
         :: HOMO-LUMO gap              0.087981387811 eV    ::
         ::.................................................::
         :: SCC energy               -84.299730683007 Eh    ::
         :: -> electrostatic           0.708748539281 Eh    ::
         :: -> Gsolv                  -0.286213721165 Eh    ::
         ::    -> Gelec               -0.265746193833 Eh    ::
         ::    -> Gsasa               -0.025171174220 Eh    ::
         ::    -> Ghb                 -0.002920632117 Eh    ::
         ::    -> Gshift               0.007624279005 Eh    ::
         :: repulsion energy           0.761826494666 Eh    ::
         :: dispersion energy         -0.024776920318 Eh    ::
         :: halogen bond corr.         0.000000000000 Eh    ::
         :: add. restraining           0.000000000000 Eh    ::
         :: total charge              -2.000000000000 e     ::
         :::::::::::::::::::::::::::::::::::::::::::::::::::::

      ----------------------------------------------------------- 
     |                   =====================                   |
     |                        A N C O P T                        |
     |                   =====================                   |
     |               Approximate Normal Coordinate               |
     |                Rational Function Optimizer                |
      ----------------------------------------------------------- 

          ...................................................
          :                      SETUP                      :
          :.................................................:
          :   optimization level            normal          :
          :   max. optcycles                   200          :
          :   ANC micro-cycles                  20          :
          :   degrees of freedom               120          :
          :.................................................:
          :   RF solver                   davidson          :
          :   write xtbopt.log                true          :
          :   linear?                        false          :
          :   energy convergence         0.5000000E-05 Eh   :
          :   grad. convergence          0.1000000E-02 Eh/α :
          :   maximium RF displ.         1.0000000          :
          :   Hlow (freq-cutoff)         0.1000000E-01      :
          :   Hmax (freq-cutoff)         5.0000000          :
          :   S6 in model hess.         20.0000000          :
          ...................................................

generating ANC from model Hessian ...
Using Lindh-Hessian (1995)
 Shifting diagonal of input Hessian by   9.837516361776879E-003
 Lowest  eigenvalues of input Hessian
    0.000000    0.000000    0.000000    0.000000    0.000000    0.000000
    0.010000    0.010208    0.010330    0.010796    0.011912    0.012271
    0.012998    0.014317    0.014905    0.015507    0.016245    0.017011
 Highest eigenvalues
    2.032625    2.049465    2.200791    2.215342    2.266277    2.392182
 

........................................................................
.............................. CYCLE    1 ..............................
........................................................................
   1    -84.2997307 -0.842997E+02  0.136E-05    0.09       0.0  T
   2    -84.2997307  0.136278E-08  0.113E-04    0.09     137.1  T
   3    -84.2997307 -0.130714E-08  0.237E-05    0.09     651.8  T
     SCC iter.                  ...        0 min,  0.015 sec
     gradient                   ...        0 min,  0.054 sec
 * total energy  :   -83.5626811 Eh     change       -0.5196910E-10 Eh
   gradient norm :     0.1599338 Eh/α   predicted     0.0000000E+00 (-100.00%)
   displ. norm   :     0.2505118 α      lambda       -0.2127353E-01
   maximum displ.:     0.0931068 α      in ANC's #25, #36, #64, ...

........................................................................
.............................. CYCLE    2 ..............................
........................................................................
   1    -84.2907376 -0.842907E+02  0.374E-01    0.28       0.0  T
   2    -83.9553231  0.335414E+00  0.155E+00    0.36       1.0  T
   3    -84.2633186 -0.307995E+00  0.749E-01    0.33       1.0  T
   4    -84.2984288 -0.351102E-01  0.198E-01    0.19       1.0  T
   5    -84.3026495 -0.422066E-02  0.104E-01    0.12       1.0  T
   6    -84.3024302  0.219281E-03  0.101E-01    0.08       1.0  T
   7    -84.3038669 -0.143668E-02  0.167E-02    0.10       1.0  T
   8    -84.3030986  0.768282E-03  0.733E-02    0.08       1.0  T
   9    -84.3038824 -0.783793E-03  0.805E-03    0.10       1.9  T
  10    -84.3038919 -0.952536E-05  0.340E-04    0.10      45.4  T
  11    -84.3038919  0.438658E-08  0.369E-04    0.10      41.8  T
  12    -84.3038919 -0.165919E-07  0.682E-05    0.10     226.3  T
  13    -84.3038919  0.722650E-09  0.926E-05    0.10     166.7  T
     SCC iter.                  ...        0 min,  0.067 sec
     gradient                   ...        0 min,  0.053 sec
 * total energy  :   -83.5782191 Eh     change       -0.1553797E-01 Eh
   gradient norm :     0.0799730 Eh/α   predicted    -0.1130788E-01 ( -27.22%)
   displ. norm   :     0.2731210 α      lambda       -0.1059977E-01
   maximum displ.:     0.1247590 α      in ANC's #25, #36, #18, ...

........................................................................
.............................. CYCLE    3 ..............................
........................................................................
   1    -84.3060987 -0.843061E+02  0.330E-01    0.37       0.0  T
   2    -83.9548923  0.351206E+00  0.157E+00    0.25       1.0  T
   3    -84.3035259 -0.348634E+00  0.390E-01    0.39       1.0  T
   4    -84.3102802 -0.675429E-02  0.198E-01    0.29       1.0  T
   5    -84.3117111 -0.143084E-02  0.164E-01    0.22       1.0  T
   6    -84.3147035 -0.299240E-02  0.724E-02    0.14       1.0  T
   7    -84.3135004  0.120308E-02  0.114E-01    0.08       1.0  T
   8    -84.3154406 -0.194023E-02  0.518E-03    0.11       3.0  T
   9    -84.3154413 -0.685874E-06  0.268E-03    0.11       5.8  T
  10    -84.3154400  0.128474E-05  0.395E-03    0.11       3.9  T
  11    -84.3154421 -0.208864E-05  0.117E-03    0.11      13.2  T
  12    -84.3154423 -0.198484E-06  0.456E-05    0.11     338.3  T
  13    -84.3154423  0.171411E-08  0.110E-04    0.11     140.6  T
     SCC iter.                  ...        0 min,  0.068 sec
     gradient                   ...        0 min,  0.054 sec
 * total energy  :   -83.5842714 Eh     change       -0.6052272E-02 Eh
   gradient norm :     0.0262213 Eh/α   predicted    -0.5697177E-02 (  -5.87%)
   displ. norm   :     0.1641243 α      lambda       -0.1277476E-02
   maximum displ.:     0.0662509 α      in ANC's #25, #10, #6, ...

........................................................................
.............................. CYCLE    4 ..............................
........................................................................
   1    -84.3161561 -0.843162E+02  0.168E-01    0.21       0.0  T
   2    -83.9677092  0.348447E+00  0.154E+00    0.19       1.0  T
   3    -84.3164213 -0.348712E+00  0.180E-01    0.19       1.0  T
   4    -84.3183964 -0.197510E-02  0.878E-02    0.16       1.0  T
   5    -84.3193782 -0.981878E-03  0.353E-02    0.13       1.0  T
   6    -84.3194909 -0.112610E-03  0.229E-02    0.11       1.0  T
   7    -84.3195091 -0.182735E-04  0.194E-02    0.11       1.0  T
   8    -84.3195641 -0.549268E-04  0.148E-03    0.12      10.4  T
   9    -84.3195640  0.360194E-07  0.148E-03    0.12      10.4  T
  10    -84.3195642 -0.223720E-06  0.784E-04    0.12      19.7  T
  11    -84.3195643 -0.879963E-07  0.999E-05    0.12     154.4  T
  12    -84.3195643 -0.800881E-09  0.561E-05    0.12     275.1  T
     SCC iter.                  ...        0 min,  0.063 sec
     gradient                   ...        0 min,  0.053 sec
 * total energy  :   -83.5852589 Eh     change       -0.9875039E-03 Eh
   gradient norm :     0.0189170 Eh/α   predicted    -0.6562597E-03 ( -33.54%)
   displ. norm   :     0.2837326 α      lambda       -0.1423368E-02
   maximum displ.:     0.1239587 α      in ANC's #6, #10, #25, ...

........................................................................
.............................. CYCLE    5 ..............................
........................................................................
   1    -84.3195358 -0.843195E+02  0.186E-01    0.24       0.0  T
   2    -83.9835528  0.335983E+00  0.152E+00    0.15       1.0  T
   3    -84.3191235 -0.335571E+00  0.220E-01    0.24       1.0  T
   4    -84.3218323 -0.270877E-02  0.964E-02    0.19       1.0  T
   5    -84.3229146 -0.108232E-02  0.439E-02    0.15       1.0  T
   6    -84.3229245 -0.990850E-05  0.430E-02    0.11       1.0  T
   7    -84.3230857 -0.161216E-03  0.264E-02    0.12       1.0  T
   8    -84.3231855 -0.997542E-04  0.489E-03    0.13       3.2  T
   9    -84.3231888 -0.331997E-05  0.858E-04    0.13      18.0  T
  10    -84.3231889 -0.643306E-07  0.481E-04    0.13      32.1  T
  11    -84.3231889 -0.321327E-07  0.994E-05    0.13     155.3  T
  12    -84.3231889 -0.752351E-09  0.479E-05    0.13     322.0  T
     SCC iter.                  ...        0 min,  0.062 sec
     gradient                   ...        0 min,  0.040 sec
 * total energy  :   -83.5861065 Eh     change       -0.8476201E-03 Eh
   gradient norm :     0.0177685 Eh/α   predicted    -0.7690033E-03 (  -9.27%)
   displ. norm   :     0.1477060 α      lambda       -0.4092834E-03
   maximum displ.:     0.0689763 α      in ANC's #6, #4, #10, ...

........................................................................
.............................. CYCLE    6 ..............................
........................................................................
   1    -84.3239746 -0.843240E+02  0.622E-02    0.15       0.0  T
   2    -84.2917123  0.322623E-01  0.473E-01    0.03       1.0  T
   3    -84.3237971 -0.320848E-01  0.779E-02    0.16       1.0  T
   4    -84.3243467 -0.549607E-03  0.143E-02    0.14       1.1  T
   5    -84.3243743 -0.276007E-04  0.421E-03    0.13       3.7  T
   6    -84.3243645  0.981993E-05  0.849E-03    0.13       1.8  T
   7    -84.3243717 -0.720856E-05  0.447E-03    0.13       3.5  T
   8    -84.3243744 -0.275326E-05  0.102E-03    0.13      15.2  T
   9    -84.3243746 -0.139791E-06  0.239E-04    0.13      64.5  T
  10    -84.3243746 -0.542218E-08  0.126E-04    0.13     122.4  T
  11    -84.3243746 -0.185688E-08  0.499E-05    0.13     309.3  T
     SCC iter.                  ...        0 min,  0.056 sec
     gradient                   ...        0 min,  0.055 sec
 * total energy  :   -83.5864322 Eh     change       -0.3256799E-03 Eh
   gradient norm :     0.0129985 Eh/α   predicted    -0.2091093E-03 ( -35.79%)
   displ. norm   :     0.2869163 α      lambda       -0.6072328E-03
   maximum displ.:     0.1312442 α      in ANC's #6, #4, #10, ...

........................................................................
.............................. CYCLE    7 ..............................
........................................................................
   1    -84.3239843 -0.843240E+02  0.646E-02    0.14       0.0  T
   2    -84.3211521  0.283228E-02  0.169E-01    0.09       1.0  T
   3    -84.3232558 -0.210373E-02  0.899E-02    0.18       1.0  T
   4    -84.3242837 -0.102789E-02  0.846E-03    0.13       1.8  T
   5    -84.3242817  0.197072E-05  0.741E-03    0.13       2.1  T
   6    -84.3242852 -0.348423E-05  0.195E-03    0.13       7.9  T
   7    -84.3242854 -0.258229E-06  0.643E-04    0.13      24.0  T
   8    -84.3242855 -0.529735E-07  0.160E-04    0.13      96.6  T
   9    -84.3242855 -0.315551E-08  0.422E-05    0.13     365.6  T
     SCC iter.                  ...        0 min,  0.048 sec
     gradient                   ...        0 min,  0.057 sec
 * total energy  :   -83.5868407 Eh     change       -0.4085337E-03 Eh
   gradient norm :     0.0077973 Eh/α   predicted    -0.3286145E-03 ( -19.56%)
   displ. norm   :     0.2295667 α      lambda       -0.2576543E-03
   maximum displ.:     0.1048495 α      in ANC's #4, #6, #2, ...

........................................................................
.............................. CYCLE    8 ..............................
........................................................................
   1    -84.3229548 -0.843230E+02  0.275E-02    0.13       0.0  T
   2    -84.3228509  0.103876E-03  0.457E-02    0.13       1.0  T
   3    -84.3229048 -0.539467E-04  0.264E-02    0.15       1.0  T
   4    -84.3229788 -0.739759E-04  0.135E-02    0.13       1.1  T
   5    -84.3229996 -0.208083E-04  0.332E-03    0.13       4.6  T
   6    -84.3229999 -0.331798E-06  0.537E-04    0.13      28.8  T
   7    -84.3230000 -0.204864E-07  0.119E-04    0.13     129.2  T
   8    -84.3230000 -0.504201E-10  0.774E-05    0.13     199.3  T
     SCC iter.                  ...        0 min,  0.041 sec
     gradient                   ...        0 min,  0.055 sec
 * total energy  :   -83.5870140 Eh     change       -0.1733550E-03 Eh
   gradient norm :     0.0073248 Eh/α   predicted    -0.1356272E-03 ( -21.76%)
   displ. norm   :     0.1719939 α      lambda       -0.1651224E-03
   maximum displ.:     0.0794317 α      in ANC's #4, #6, #2, ...

........................................................................
.............................. CYCLE    9 ..............................
........................................................................
   1    -84.3231664 -0.843232E+02  0.293E-02    0.12       0.0  T
   2    -84.3219734  0.119299E-02  0.100E-01    0.19       1.0  T
   3    -84.3232648 -0.129137E-02  0.922E-03    0.13       1.7  T
   4    -84.3232665 -0.170835E-05  0.619E-03    0.13       2.5  T
   5    -84.3232698 -0.334227E-05  0.330E-03    0.13       4.7  T
   6    -84.3232712 -0.135232E-05  0.707E-04    0.13      21.8  T
   7    -84.3232712 -0.380331E-07  0.136E-04    0.13     113.5  T
   8    -84.3232712  0.157907E-08  0.149E-04    0.13     103.3  T
     SCC iter.                  ...        0 min,  0.040 sec
     gradient                   ...        0 min,  0.054 sec
 * total energy  :   -83.5871075 Eh     change       -0.9344362E-04 Eh
   gradient norm :     0.0065457 Eh/α   predicted    -0.8504824E-04 (  -8.98%)
   displ. norm   :     0.1443274 α      lambda       -0.9597911E-04
   maximum displ.:     0.0658520 α      in ANC's #6, #4, #2, ...

........................................................................
.............................. CYCLE   10 ..............................
........................................................................
   1    -84.3227760 -0.843228E+02  0.193E-02    0.14       0.0  T
   2    -84.3212047  0.157123E-02  0.106E-01    0.10       1.0  T
   3    -84.3227981 -0.159340E-02  0.137E-02    0.14       1.1  T
   4    -84.3228125 -0.143459E-04  0.491E-03    0.13       3.1  T
   5    -84.3228107  0.180162E-05  0.445E-03    0.13       3.5  T
   6    -84.3228124 -0.171957E-05  0.210E-03    0.13       7.4  T
   7    -84.3228130 -0.587968E-06  0.456E-04    0.13      33.9  T
   8    -84.3228130 -0.257321E-07  0.134E-04    0.13     115.6  T
   9    -84.3228130 -0.247867E-08  0.163E-05    0.13     948.9  T
     SCC iter.                  ...        0 min,  0.045 sec
     gradient                   ...        0 min,  0.055 sec
 * total energy  :   -83.5871534 Eh     change       -0.4594908E-04 Eh
   gradient norm :     0.0038835 Eh/α   predicted    -0.4901176E-04 (   6.67%)
   displ. norm   :     0.0517557 α      lambda       -0.5261545E-04
   maximum displ.:     0.0261895 α      in ANC's #3, #2, #10, ...

........................................................................
.............................. CYCLE   11 ..............................
........................................................................
   1    -84.3238004 -0.843238E+02  0.259E-02    0.13       0.0  T
   2    -84.3232137  0.586693E-03  0.750E-02    0.17       1.0  T
   3    -84.3237669 -0.553194E-03  0.268E-02    0.12       1.0  T
   4    -84.3238495 -0.826567E-04  0.907E-03    0.14       1.7  T
   5    -84.3238594 -0.984356E-05  0.195E-03    0.13       7.9  T
   6    -84.3238596 -0.187518E-06  0.107E-03    0.13      14.4  T
   7    -84.3238597 -0.153957E-06  0.239E-04    0.13      64.5  T
   8    -84.3238597 -0.764118E-08  0.384E-05    0.13     402.0  T
   9    -84.3238597  0.243006E-11  0.240E-05    0.13     642.6  T
     SCC iter.                  ...        0 min,  0.046 sec
     gradient                   ...        0 min,  0.056 sec
 * total energy  :   -83.5871885 Eh     change       -0.3510297E-04 Eh
   gradient norm :     0.0022882 Eh/α   predicted    -0.2638085E-04 ( -24.85%)
   displ. norm   :     0.0722783 α      lambda       -0.3381071E-04
   maximum displ.:     0.0382786 α      in ANC's #3, #2, #4, ...

........................................................................
.............................. CYCLE   12 ..............................
........................................................................
   1    -84.3242837 -0.843243E+02  0.180E-02    0.13       0.0  T
   2    -84.3240153  0.268399E-03  0.509E-02    0.15       1.0  T
   3    -84.3242350 -0.219756E-03  0.236E-02    0.12       1.0  T
   4    -84.3243077 -0.726641E-04  0.488E-03    0.13       3.2  T
   5    -84.3243105 -0.281857E-05  0.137E-03    0.13      11.3  T
   6    -84.3243106 -0.105012E-06  0.325E-04    0.13      47.5  T
   7    -84.3243106 -0.212172E-08  0.684E-05    0.13     225.7  T
   8    -84.3243106 -0.423711E-09  0.231E-05    0.13     668.2  T
     SCC iter.                  ...        0 min,  0.041 sec
     gradient                   ...        0 min,  0.054 sec
 * total energy  :   -83.5872126 Eh     change       -0.2402186E-04 Eh
   gradient norm :     0.0026486 Eh/α   predicted    -0.1700079E-04 ( -29.23%)
   displ. norm   :     0.0949938 α      lambda       -0.2819471E-04
   maximum displ.:     0.0506939 α      in ANC's #3, #2, #4, ...

........................................................................
.............................. CYCLE   13 ..............................
........................................................................
   1    -84.3242292 -0.843242E+02  0.117E-02    0.13       0.0  T
   2    -84.3239988  0.230390E-03  0.436E-02    0.15       1.0  T
   3    -84.3242313 -0.232443E-03  0.102E-02    0.13       1.5  T
   4    -84.3242426 -0.112827E-04  0.244E-03    0.13       6.3  T
   5    -84.3242432 -0.682916E-06  0.666E-04    0.13      23.2  T
   6    -84.3242433 -0.133470E-07  0.317E-04    0.13      48.7  T
   7    -84.3242433 -0.636986E-08  0.701E-05    0.13     220.0  T
   8    -84.3242433 -0.523229E-09  0.157E-05    0.13     981.8  T
     SCC iter.                  ...        0 min,  0.041 sec
     gradient                   ...        0 min,  0.053 sec
 * total energy  :   -83.5872343 Eh     change       -0.2175066E-04 Eh
   gradient norm :     0.0030461 Eh/α   predicted    -0.1422826E-04 ( -34.58%)
   displ. norm   :     0.1250501 α      lambda       -0.3168509E-04
   maximum displ.:     0.0667941 α      in ANC's #3, #2, #4, ...

........................................................................
.............................. CYCLE   14 ..............................
........................................................................
   1    -84.3240083 -0.843240E+02  0.433E-03    0.13       0.0  T
   2    -84.3239617  0.465267E-04  0.185E-02    0.14       1.0  T
   3    -84.3240097 -0.479306E-04  0.191E-03    0.13       8.1  T
   4    -84.3240101 -0.443046E-06  0.613E-04    0.13      25.2  T
   5    -84.3240101 -0.109417E-07  0.435E-04    0.13      35.5  T
   6    -84.3240101 -0.132174E-07  0.154E-04    0.13     100.3  T
   7    -84.3240101 -0.825906E-09  0.305E-05    0.13     506.7  T
     SCC iter.                  ...        0 min,  0.036 sec
     gradient                   ...        0 min,  0.055 sec
 * total energy  :   -83.5872591 Eh     change       -0.2478966E-04 Eh
   gradient norm :     0.0027666 Eh/α   predicted    -0.1609209E-04 ( -35.09%)
   displ. norm   :     0.1661226 α      lambda       -0.3464571E-04
   maximum displ.:     0.0873705 α      in ANC's #3, #2, #4, ...

........................................................................
.............................. CYCLE   15 ..............................
........................................................................
   1    -84.3236360 -0.843236E+02  0.769E-03    0.13       0.0  T
   2    -84.3236001  0.358253E-04  0.193E-02    0.13       1.0  T
   3    -84.3236210 -0.208437E-04  0.117E-02    0.14       1.3  T
   4    -84.3236393 -0.183361E-04  0.263E-03    0.13       5.9  T
   5    -84.3236401 -0.799889E-06  0.632E-04    0.13      24.4  T
   6    -84.3236401 -0.120874E-07  0.270E-04    0.13      57.2  T
   7    -84.3236401 -0.637091E-08  0.490E-05    0.13     314.7  T
   8    -84.3236401 -0.236469E-09  0.101E-05    0.13    1527.1  T
     SCC iter.                  ...        0 min,  0.042 sec
     gradient                   ...        0 min,  0.056 sec
 * total energy  :   -83.5872867 Eh     change       -0.2764755E-04 Eh
   gradient norm :     0.0021279 Eh/α   predicted    -0.1780818E-04 ( -35.59%)
   displ. norm   :     0.2165616 α      lambda       -0.3663933E-04
   maximum displ.:     0.1106003 α      in ANC's #3, #2, #4, ...

........................................................................
.............................. CYCLE   16 ..............................
........................................................................
   1    -84.3232368 -0.843232E+02  0.150E-02    0.14       0.0  T
   2    -84.3225104  0.726352E-03  0.742E-02    0.11       1.0  T
   3    -84.3232351 -0.724661E-03  0.154E-02    0.14       1.0  T
   4    -84.3232597 -0.246141E-04  0.280E-03    0.13       5.5  T
   5    -84.3232597  0.421159E-07  0.249E-03    0.13       6.2  T
   6    -84.3232603 -0.623773E-06  0.876E-04    0.13      17.6  T
   7    -84.3232604 -0.994785E-07  0.758E-05    0.13     203.6  T
   8    -84.3232604 -0.597097E-09  0.141E-05    0.13    1094.3  T
     SCC iter.                  ...        0 min,  0.041 sec
     gradient                   ...        0 min,  0.055 sec
 * total energy  :   -83.5873151 Eh     change       -0.2831657E-04 Eh
   gradient norm :     0.0021765 Eh/α   predicted    -0.1918440E-04 ( -32.25%)
   displ. norm   :     0.2165285 α      lambda       -0.3231537E-04
   maximum displ.:     0.1120982 α      in ANC's #4, #2, #3, ...

........................................................................
.............................. CYCLE   17 ..............................
........................................................................
   1    -84.3231744 -0.843232E+02  0.158E-02    0.14       0.0  T
   2    -84.3221148  0.105956E-02  0.884E-02    0.10       1.0  T
   3    -84.3231830 -0.106821E-02  0.140E-02    0.14       1.1  T
   4    -84.3232029 -0.198447E-04  0.181E-03    0.13       8.5  T
   5    -84.3232020  0.871014E-06  0.290E-03    0.13       5.3  T
   6    -84.3232029 -0.915536E-06  0.915E-04    0.13      16.9  T
   7    -84.3232030 -0.108523E-06  0.173E-04    0.13      89.4  T
   8    -84.3232030 -0.388954E-08  0.192E-05    0.13     802.2  T
     SCC iter.                  ...        0 min,  0.042 sec
     gradient                   ...        0 min,  0.056 sec
 * total energy  :   -83.5873416 Eh     change       -0.2649065E-04 Eh
   gradient norm :     0.0024827 Eh/α   predicted    -0.1691788E-04 ( -36.14%)
   displ. norm   :     0.2654035 α      lambda       -0.4163949E-04
   maximum displ.:     0.1431906 α      in ANC's #4, #2, #3, ...

........................................................................
.............................. CYCLE   18 ..............................
........................................................................
   1    -84.3233225 -0.843233E+02  0.173E-02    0.14       0.0  T
   2    -84.3219955  0.132698E-02  0.986E-02    0.10       1.0  T
   3    -84.3233316 -0.133611E-02  0.152E-02    0.14       1.0  T
   4    -84.3233563 -0.247245E-04  0.126E-03    0.13      12.3  T
   5    -84.3233556  0.758419E-06  0.265E-03    0.13       5.8  T
   6    -84.3233561 -0.535817E-06  0.144E-03    0.13      10.7  T
   7    -84.3233564 -0.259237E-06  0.377E-04    0.13      41.0  T
   8    -84.3233564 -0.192044E-07  0.332E-05    0.13     465.3  T
   9    -84.3233564 -0.103753E-09  0.574E-06    0.13    2689.3  T
     SCC iter.                  ...        0 min,  0.047 sec
     gradient                   ...        0 min,  0.056 sec
 * total energy  :   -83.5873739 Eh     change       -0.3229603E-04 Eh
   gradient norm :     0.0026383 Eh/α   predicted    -0.2228855E-04 ( -30.99%)
   displ. norm   :     0.2032976 α      lambda       -0.3726920E-04
   maximum displ.:     0.1155659 α      in ANC's #4, #2, #3, ...

........................................................................
.............................. CYCLE   19 ..............................
........................................................................
   1    -84.3239049 -0.843239E+02  0.894E-03    0.14       0.0  T
   2    -84.3237358  0.169089E-03  0.363E-02    0.12       1.0  T
   3    -84.3238977 -0.161833E-03  0.106E-02    0.14       1.5  T
   4    -84.3239118 -0.141253E-04  0.145E-03    0.13      10.6  T
   5    -84.3239120 -0.226669E-06  0.689E-04    0.13      22.4  T
   6    -84.3239120 -0.969082E-08  0.395E-04    0.13      39.1  T
   7    -84.3239121 -0.182545E-07  0.433E-05    0.13     356.3  T
   8    -84.3239121 -0.131251E-09  0.111E-05    0.13    1395.6  T
     SCC iter.                  ...        0 min,  0.042 sec
     gradient                   ...        0 min,  0.055 sec
 * total energy  :   -83.5874027 Eh     change       -0.2884425E-04 Eh
   gradient norm :     0.0024745 Eh/α   predicted    -0.1940630E-04 ( -32.72%)
   displ. norm   :     0.1819936 α      lambda       -0.4109602E-04
   maximum displ.:     0.1092630 α      in ANC's #4, #2, #3, ...

........................................................................
.............................. CYCLE   20 ..............................
........................................................................
   1    -84.3244133 -0.843244E+02  0.308E-03    0.13       0.0  T
   2    -84.3243978  0.154204E-04  0.109E-02    0.14       1.4  T
   3    -84.3244140 -0.161801E-04  0.187E-03    0.13       8.2  T
   4    -84.3244137  0.279132E-06  0.218E-03    0.13       7.1  T
   5    -84.3244142 -0.445650E-06  0.796E-04    0.13      19.4  T
   6    -84.3244142 -0.480576E-07  0.219E-04    0.13      70.5  T
   7    -84.3244142 -0.255078E-08  0.691E-05    0.13     223.2  T
   8    -84.3244142 -0.578098E-09  0.104E-05    0.13    1487.3  T
     SCC iter.                  ...        0 min,  0.041 sec
     gradient                   ...        0 min,  0.055 sec
 * total energy  :   -83.5874357 Eh     change       -0.3297854E-04 Eh
   gradient norm :     0.0026667 Eh/α   predicted    -0.2122982E-04 ( -35.63%)
   displ. norm   :     0.2239502 α      lambda       -0.4972051E-04
   maximum displ.:     0.1366666 α      in ANC's #4, #2, #3, ...
 * RMSD in coord.:     0.4434077 α      energy gain  -0.2475457E-01 Eh

generating ANC from model Hessian ...
Using Lindh-Hessian (1995)
 Shifting diagonal of input Hessian by   9.825262504560612E-003
 Lowest  eigenvalues of input Hessian
    0.000000    0.000000    0.000000    0.000000    0.000000    0.000000
    0.010000    0.010166    0.010341    0.010775    0.012003    0.012117
    0.012924    0.014179    0.014919    0.015330    0.016335    0.017019
 Highest eigenvalues
    2.065354    2.122373    2.197577    2.216685    2.272000    2.342148
 

........................................................................
.............................. CYCLE   21 ..............................
........................................................................
   1    -84.3243639 -0.843244E+02  0.737E-03    0.13       0.0  T
   2    -84.3242366  0.127256E-03  0.316E-02    0.15       1.0  T
   3    -84.3243693 -0.132702E-03  0.366E-03    0.13       4.2  T
   4    -84.3243691  0.254387E-06  0.309E-03    0.13       5.0  T
   5    -84.3243702 -0.114041E-05  0.486E-04    0.13      31.8  T
   6    -84.3243702 -0.260084E-08  0.221E-04    0.13      69.7  T
   7    -84.3243702 -0.282039E-08  0.834E-05    0.13     185.0  T
   8    -84.3243702 -0.878757E-09  0.889E-06    0.13    1735.3  T
     SCC iter.                  ...        0 min,  0.041 sec
     gradient                   ...        0 min,  0.055 sec
 * total energy  :   -83.5874730 Eh     change       -0.3733439E-04 Eh
   gradient norm :     0.0030038 Eh/α   predicted     0.0000000E+00 (-100.00%)
   displ. norm   :     0.0203004 α      lambda       -0.1175023E-04
   maximum displ.:     0.0075146 α      in ANC's #14, #13, #9, ...

........................................................................
.............................. CYCLE   22 ..............................
........................................................................
   1    -84.3241352 -0.843241E+02  0.315E-03    0.13       0.0  T
   2    -84.3241295  0.561587E-05  0.700E-03    0.13       2.2  T
   3    -84.3241336 -0.402245E-05  0.425E-03    0.13       3.6  T
   4    -84.3241355 -0.189561E-05  0.188E-03    0.13       8.2  T
   5    -84.3241359 -0.410804E-06  0.472E-04    0.13      32.7  T
   6    -84.3241359 -0.110734E-07  0.130E-04    0.13     119.1  T
   7    -84.3241359 -0.317698E-09  0.258E-05    0.13     598.9  T
     SCC iter.                  ...        0 min,  0.036 sec
     gradient                   ...        0 min,  0.054 sec
 * total energy  :   -83.5874861 Eh     change       -0.1311774E-04 Eh
   gradient norm :     0.0015269 Eh/α   predicted    -0.8122479E-05 ( -38.08%)
   displ. norm   :     0.0805310 α      lambda       -0.2288993E-04
   maximum displ.:     0.0330359 α      in ANC's #14, #9, #4, ...

........................................................................
.............................. CYCLE   23 ..............................
........................................................................
   1    -84.3236383 -0.843236E+02  0.992E-03    0.14       0.0  T
   2    -84.3235542  0.841366E-04  0.266E-02    0.12       1.0  T
   3    -84.3236248 -0.706200E-04  0.133E-02    0.14       1.2  T
   4    -84.3236431 -0.182866E-04  0.496E-03    0.13       3.1  T
   5    -84.3236461 -0.302299E-05  0.119E-03    0.13      12.9  T
   6    -84.3236462 -0.621318E-07  0.448E-04    0.13      34.4  T
   7    -84.3236462 -0.112301E-07  0.868E-05    0.13     177.8  T
   8    -84.3236462 -0.835371E-09  0.940E-06    0.13    1641.0  T
     SCC iter.                  ...        0 min,  0.026 sec
     gradient                   ...        0 min,  0.038 sec
 * total energy  :   -83.5875019 Eh     change       -0.1576751E-04 Eh
   gradient norm :     0.0024938 Eh/α   predicted    -0.1206723E-04 ( -23.47%)
   displ. norm   :     0.0160950 α      lambda       -0.6218249E-05
   maximum displ.:     0.0088933 α      in ANC's #4, #14, #9, ...

........................................................................
.............................. CYCLE   24 ..............................
........................................................................
   1    -84.3237977 -0.843238E+02  0.120E-03    0.13       0.0  T
   2    -84.3237952  0.256262E-05  0.449E-03    0.13       3.4  T
   3    -84.3237979 -0.268158E-05  0.612E-04    0.13      25.2  T
   4    -84.3237978  0.496037E-07  0.786E-04    0.13      19.6  T
   5    -84.3237979 -0.658433E-07  0.262E-04    0.13      58.8  T
   6    -84.3237979 -0.455942E-08  0.557E-05    0.13     276.8  T
   7    -84.3237979 -0.138556E-09  0.133E-05    0.13    1157.6  T
     SCC iter.                  ...        0 min,  0.022 sec
     gradient                   ...        0 min,  0.033 sec
 * total energy  :   -83.5875079 Eh     change       -0.5966359E-05 Eh
   gradient norm :     0.0018404 Eh/α   predicted    -0.3290447E-05 ( -44.85%)
   displ. norm   :     0.1503911 α      lambda       -0.2879408E-04
   maximum displ.:     0.0799059 α      in ANC's #4, #14, #9, ...

........................................................................
.............................. CYCLE   25 ..............................
........................................................................
   1    -84.3242269 -0.843242E+02  0.968E-03    0.13       0.0  T
   2    -84.3239987  0.228191E-03  0.424E-02    0.15       1.0  T
   3    -84.3242371 -0.238386E-03  0.542E-03    0.13       2.8  T
   4    -84.3242354  0.168681E-05  0.561E-03    0.13       2.8  T
   5    -84.3242391 -0.365743E-05  0.123E-03    0.13      12.5  T
   6    -84.3242391 -0.473174E-07  0.395E-04    0.13      39.1  T
   7    -84.3242391 -0.689953E-08  0.171E-04    0.13      90.1  T
   8    -84.3242391 -0.367496E-08  0.189E-05    0.13     814.4  T
     SCC iter.                  ...        0 min,  0.024 sec
     gradient                   ...        0 min,  0.031 sec
 * total energy  :   -83.5875248 Eh     change       -0.1692794E-04 Eh
   gradient norm :     0.0025006 Eh/α   predicted    -0.1454742E-04 ( -14.06%)
   displ. norm   :     0.0090104 α      lambda       -0.5967388E-05
   maximum displ.:     0.0039425 α      in ANC's #4, #8, #17, ...

........................................................................
.............................. CYCLE   26 ..............................
........................................................................
   1    -84.3242458 -0.843242E+02  0.171E-03    0.13       0.0  T
   2    -84.3242415  0.425472E-05  0.583E-03    0.13       2.6  T
   3    -84.3242458 -0.424717E-05  0.150E-03    0.13      10.3  T
   4    -84.3242460 -0.180467E-06  0.822E-04    0.13      18.8  T
   5    -84.3242460 -0.731811E-07  0.247E-04    0.13      62.4  T
   6    -84.3242460 -0.226889E-08  0.496E-05    0.13     311.0  T
   7    -84.3242460 -0.741238E-10  0.111E-05    0.13    1384.0  T
     SCC iter.                  ...        0 min,  0.021 sec
     gradient                   ...        0 min,  0.034 sec
 * total energy  :   -83.5875297 Eh     change       -0.4959522E-05 Eh
   gradient norm :     0.0015572 Eh/α   predicted    -0.2995804E-05 ( -39.59%)
   displ. norm   :     0.0656556 α      lambda       -0.1072328E-04
   maximum displ.:     0.0356197 α      in ANC's #4, #8, #9, ...

........................................................................
.............................. CYCLE   27 ..............................
........................................................................
   1    -84.3240274 -0.843240E+02  0.663E-03    0.13       0.0  T
   2    -84.3239209  0.106535E-03  0.285E-02    0.12       1.0  T
   3    -84.3240293 -0.108475E-03  0.512E-03    0.13       3.0  T
   4    -84.3240313 -0.195844E-05  0.232E-03    0.13       6.7  T
   5    -84.3240318 -0.535064E-06  0.933E-04    0.13      16.5  T
   6    -84.3240319 -0.422453E-07  0.282E-04    0.13      54.7  T
   7    -84.3240319 -0.762012E-08  0.332E-05    0.13     464.5  T
   8    -84.3240319 -0.572129E-10  0.123E-05    0.13    1256.6  T
     SCC iter.                  ...        0 min,  0.025 sec
     gradient                   ...        0 min,  0.033 sec
 * total energy  :   -83.5875361 Eh     change       -0.6352389E-05 Eh
   gradient norm :     0.0013114 Eh/α   predicted    -0.5375965E-05 ( -15.37%)
   displ. norm   :     0.0243159 α      lambda       -0.2404538E-05
   maximum displ.:     0.0146747 α      in ANC's #4, #17, #14, ...

........................................................................
.............................. CYCLE   28 ..............................
........................................................................
   1    -84.3240348 -0.843240E+02  0.123E-03    0.13       0.0  T
   2    -84.3240327  0.214681E-05  0.399E-03    0.13       3.9  T
   3    -84.3240347 -0.200283E-05  0.137E-03    0.13      11.3  T
   4    -84.3240349 -0.248241E-06  0.232E-04    0.13      66.4  T
   5    -84.3240349  0.315765E-09  0.199E-04    0.13      77.5  T
   6    -84.3240349 -0.168616E-08  0.605E-05    0.13     255.2  T
     SCC iter.                  ...        0 min,  0.032 sec
     gradient                   ...        0 min,  0.054 sec
 * total energy  :   -83.5875387 Eh     change       -0.2617012E-05 Eh
   gradient norm :     0.0005671 Eh/α   predicted    -0.1206847E-05 ( -53.88%)
   displ. norm   :     0.0384434 α      lambda       -0.2614983E-05
   maximum displ.:     0.0220787 α      in ANC's #4, #17, #3, ...

   *** GEOMETRY OPTIMIZATION CONVERGED AFTER 28 ITERATIONS ***

------------------------------------------------------------------------
 total energy gain   :        -0.0248576 Eh      -15.5984 kcal/mol
 total RMSD          :         0.4617766 a0        0.2444 Å
 total power (kW/mol):        -2.3308444 (step)  -19.7382 (real)
------------------------------------------------------------------------

 ANCopt (total)                0 d,  0 h,  0 min,  3.306 sec
 optimizer setup                ...        0 min,  0.001 sec (  0.020%)
 model hessian                  ...        0 min,  0.032 sec (  0.963%)
 ANC generation                 ...        0 min,  0.005 sec (  0.145%)
 coordinate transformation      ...        0 min,  0.001 sec (  0.018%)
 single point calculation       ...        0 min,  3.259 sec ( 98.574%)
 optimization log               ...        0 min,  0.006 sec (  0.170%)
 hessian update                 ...        0 min,  0.001 sec (  0.016%)
 rational function              ...        0 min,  0.002 sec (  0.062%)

================
 final structure:
================
42
 xtb: 6.5.1 (579679a)
C            6.59558420948666        2.92242763622177        0.54801329189688
O            5.35938195494575        2.70864632062657       -0.10831784471944
C            4.64426573628254        1.61972081348170        0.31818363984782
O            5.09312525548004        0.91264325248281        1.22345022166152
C            3.38908315187860        1.40766957570552       -0.36433280023946
N            2.70642246116159        0.29052243585530        0.09927100395995
C            1.57135610930622       -0.04124173200429       -0.39494958746348
C            0.82171153033702       -1.26627633690493        0.11123078241360
C            1.68076879272048       -1.94840223185386        1.18513564194586
C            0.58570290328716       -2.22992307504464       -1.07076193924767
N           -0.43535890845926       -0.78992599944422        0.69912659801626
C           -1.45480147595393       -1.79859807883536        0.99516034216302
O           -1.11182948399258       -2.97659737609696        1.36679895807217
C           -2.73405997266227       -1.32837427019009        0.91768071114396
N           -3.94093116558023       -2.01722170562096        1.17007907841041
N           -4.87567372475508       -1.12582685270627        0.87568233717726
C           -6.26291946539119       -1.49598229154046        1.01737322037136
C           -4.42007822508593        0.04473094013254        0.48005837143125
C           -5.20446159885941        1.23566797002683        0.06776920544973
O           -3.05110595745881        0.03333590088049        0.47645989137663
N            0.98352387337293        0.69945203662657       -1.40202173953248
C            1.54964918623961        1.81988497270928       -1.96200778412306
O            0.95283399509787        2.40926181241554       -2.87279930497175
C            2.87712991736431        2.23759732570808       -1.40317606763238
O            3.43613443497014        3.25700040520627       -1.87181389763716
H            7.26352643913728        2.06365225169487        0.41770847947230
H            6.44838411481779        3.08901023803435        1.62103733062211
H            7.04963948885872        3.80699163955693        0.10159023675576
H            1.19380614620132       -2.85265911697136        1.54660700470605
H            1.83167564351717       -1.26760333373131        2.02391668594611
H            2.65347457704751       -2.21197712698480        0.76864232089428
H            0.14929960300258       -3.16250277077727       -0.71452205144119
H            1.53280854669896       -2.44998260025696       -1.56380663383838
H           -0.09219885543232       -1.78425175933400       -1.79792822410088
H           -0.84812188610140       -0.07897622083296        0.10011175590623
H           -6.72470430587592       -0.91260072758283        1.81379957148842
H           -6.79310827676741       -1.30880716822924        0.08476645009347
H           -6.30598593869609       -2.55470087558327        1.26315719176273
H           -5.89346379845714        1.54513831517277        0.85584510379327
H           -4.52172379146400        2.05609194263805       -0.14546335920481
H           -5.79695350828685        1.03143970048946       -0.82721882163802
H            0.09819426806292        0.41154416486047       -1.78640137098900
 
 Bond Distances (Angstroems)
 ---------------------------
C1-O2=1.4159         C1-H26=1.0957        C1-H27=1.0958        C1-H28=1.0899        O2-C1=1.4159         O2-C3=1.3708         
C3-O2=1.3708         C3-O4=1.2333         C3-C5=1.4444         O4-C3=1.2333         C5-C3=1.4444         C5-N6=1.3889         
C5-C24=1.4248        N6-C5=1.3889         N6-C7=1.2817         C7-N6=1.2817         C7-C8=1.5228         C7-N21=1.3814        
C8-C7=1.5228         C8-C9=1.5351         C8-C10=1.5432        C8-N11=1.4672        C9-C8=1.5351         C9-H29=1.0888        
C9-H30=1.0908        C9-H31=1.0905        C10-C8=1.5432        C10-H32=1.0895       C10-H33=1.0902       C10-H34=1.0895       
N11-C8=1.4672        N11-C12=1.4643       N11-H35=1.0172       C12-N11=1.4643       C12-O13=1.2820       C12-C14=1.3651       
O13-C12=1.2820       C14-C12=1.3651       C14-N15=1.4124       C14-O20=1.4661       N15-C14=1.4124       N15-N16=1.3248       
N16-N15=1.3248       N16-C17=1.4428       N16-C18=1.3169       C17-N16=1.4428       C17-H36=1.0899       C17-H37=1.0890       
C17-H38=1.0877       C18-N16=1.3169       C18-C19=1.4844       C18-O20=1.3690       C19-C18=1.4844       C19-H39=1.0916       
C19-H40=1.0884       C19-H41=1.0926       O20-C14=1.4661       O20-C18=1.3690       N21-C7=1.3814        N21-C22=1.3746       
N21-H42=1.0072       C22-N21=1.3746       C22-O23=1.2382       C22-C24=1.4997       O23-C22=1.2382       C24-C5=1.4248        
C24-C22=1.4997       C24-O25=1.2535       O25-C24=1.2535       H26-C1=1.0957        H27-C1=1.0958        H28-C1=1.0899        
H29-C9=1.0888        H30-C9=1.0908        H31-C9=1.0905        H32-C10=1.0895       H33-C10=1.0902       H34-C10=1.0895       
H35-N11=1.0172       H36-C17=1.0899       H37-C17=1.0890       H38-C17=1.0877       H39-C19=1.0916       H40-C19=1.0884       
H41-C19=1.0926       H42-N21=1.0072       
 C  H  Rav=1.0907 sigma=0.0023  Rmin=1.0877  Rmax=1.0958    15
 C  C  Rav=1.4774 sigma=0.0578  Rmin=1.3651  Rmax=1.5432     8
 N  H  Rav=1.0122 sigma=0.0050  Rmin=1.0072  Rmax=1.0172     2
 N  C  Rav=1.3922 sigma=0.0597  Rmin=1.2817  Rmax=1.4672     9
 N  N  Rav=1.3248 sigma=0.0000  Rmin=1.3248  Rmax=1.3248     1
 O  C  Rav=1.3286 sigma=0.0829  Rmin=1.2333  Rmax=1.4661     8
 
 selected bond angles (degree)
 --------------------
H26-C1-O2=111.02               H27-C1-O2=111.07               H27-C1-H26=108.51              H28-C1-O2=107.24               
H28-C1-H26=109.48              H28-C1-H27=109.49              C3-O2-C1=115.54                O4-C3-O2=119.60                
C5-C3-O2=115.02                C5-C3-O4=125.38                N6-C5-C3=112.80                C24-C5-C3=124.84               
C24-C5-N6=122.36               C7-N6-C5=120.98                C8-C7-N6=121.07                N21-C7-N6=121.28               
N21-C7-C8=117.66               C9-C8-C7=108.33                C10-C8-C7=108.85               C10-C8-C9=110.12               
N11-C8-C7=107.08               N11-C8-C9=110.08               N11-C8-C10=112.25              H29-C9-C8=110.55               
H30-C9-C8=109.76               H30-C9-H29=108.96              H31-C9-C8=109.84               H31-C9-H29=108.97              
H31-C9-H30=108.73              H32-C10-C8=110.20              H33-C10-C8=109.85              H33-C10-H32=108.85             
H34-C10-C8=110.55              H34-C10-H32=108.61             H34-C10-H33=108.74             
 
 selected dihedral angles (degree)
 ---------------------------------
C3-O2-C1-H26= 59.91           C3-O2-C1-H27=299.07           C3-O2-C1-H28=179.46           O4-C3-O2-C1=  0.42            
C5-C3-O2-C1=180.36            N6-C5-C3-O2=179.73            N6-C5-C3-O4=359.66            C24-C5-C3-O2=359.62           
C24-C5-C3-O4=179.55           C7-N6-C5-C3=179.78            C7-N6-C5-C24=359.88           C8-C7-N6-C5=179.96            
N21-C7-N6-C5=359.82           C9-C8-C7-N6=358.05            C9-C8-C7-N21=178.18           C10-C8-C7-N6=238.32           
C10-C8-C7-N21= 58.45          N11-C8-C7-N6=116.76           N11-C8-C7-N21=296.89          H29-C9-C8-C7=182.11           
H29-C9-C8-C10=301.05          H29-C9-C8-N11= 65.33          H30-C9-C8-C7= 61.89           H30-C9-C8-C10=180.82          
H30-C9-C8-N11=305.10          H31-C9-C8-C7=302.40           H31-C9-C8-C10= 61.33          H31-C9-C8-N11=185.61          
H32-C10-C8-C7=173.76          H32-C10-C8-C9= 55.14          H32-C10-C8-N11=292.12         H33-C10-C8-C7= 53.83          
H33-C10-C8-C9=295.22          H33-C10-C8-N11=172.19         H34-C10-C8-C7=293.83          H34-C10-C8-C9=175.21          
H34-C10-C8-N11= 52.19         
           -------------------------------------------------
          |                Final Singlepoint                |
           -------------------------------------------------

          ...................................................
          :                      SETUP                      :
          :.................................................:
          :  # basis functions                 134          :
          :  # atomic orbitals                 134          :
          :  # shells                           84          :
          :  # electrons                       136          :
          :  # halogen bonds                     0          :
          :  max. iterations                   250          :
          :  Hamiltonian                  GFN1-xTB          :
          :  restarted?                      false          :
          :  GBSA solvation                   true          :
          :  PC potential                    false          :
          :  electronic temp.          300.0000000     K    :
          :  accuracy                    1.0000000          :
          :  -> integral cutoff          0.2500000E+02      :
          :  -> integral neglect         0.1000000E-07      :
          :  -> SCF convergence          0.1000000E-05 Eh   :
          :  -> wf. convergence          0.2000000E-04 e    :
          :  Broyden damping             0.4000000          :
          ...................................................

 iter      E             dE          RMSdq      gap      omega  full diag
   1    -84.3240349 -0.843240E+02  0.104E-05    0.13       0.0  T
   2    -84.3240349  0.205034E-09  0.386E-05    0.13     399.3  T
   3    -84.3240349 -0.210562E-09  0.552E-06    0.13    2794.2  T

   *** convergence criteria satisfied after 3 iterations ***

         #    Occupation            Energy/Eh            Energy/eV
      -------------------------------------------------------------
         1        2.0000           -0.8030999             -21.8535
       ...           ...                  ...                  ...
        62        2.0000           -0.3922869             -10.6747
        63        2.0000           -0.3734815             -10.1629
        64        2.0000           -0.3699055             -10.0656
        65        2.0000           -0.3587149              -9.7611
        66        2.0000           -0.3491688              -9.5014
        67        2.0000           -0.3446851              -9.3794
        68        1.8581           -0.2582414              -7.0271 (HOMO)
        69        0.1419           -0.2533539              -6.8941 (LUMO)
        70                         -0.2249829              -6.1221
        71                         -0.2136237              -5.8130
        72                         -0.1780140              -4.8440
        73                         -0.1392171              -3.7883
       ...                                ...                  ...
       134                          0.7520414              20.4641
      -------------------------------------------------------------
                  HL-Gap            0.0048876 Eh            0.1330 eV
             Fermi-level           -0.2557976 Eh           -6.9606 eV

 SCC (total)                   0 d,  0 h,  0 min,  0.096 sec
 SCC setup                      ...        0 min,  0.002 sec (  1.661%)
 Dispersion                     ...        0 min,  0.000 sec (  0.185%)
 classical contributions        ...        0 min,  0.000 sec (  0.084%)
 integral evaluation            ...        0 min,  0.022 sec ( 22.888%)
 iterations                     ...        0 min,  0.016 sec ( 16.347%)
 molecular gradient             ...        0 min,  0.055 sec ( 57.583%)
 printout                       ...        0 min,  0.001 sec (  1.232%)

         :::::::::::::::::::::::::::::::::::::::::::::::::::::
         ::                     SUMMARY                     ::
         :::::::::::::::::::::::::::::::::::::::::::::::::::::
         :: total energy             -83.587538718088 Eh    ::
         :: total w/o Gsasa/hb       -83.567403766249 Eh    ::
         :: gradient norm              0.000569552156 Eh/a0 ::
         :: HOMO-LUMO gap              0.132997369383 eV    ::
         ::.................................................::
         :: SCC energy               -84.324034913308 Eh    ::
         :: -> electrostatic           0.722002949099 Eh    ::
         :: -> Gsolv                  -0.287774319795 Eh    ::
         ::    -> Gelec               -0.267639367956 Eh    ::
         ::    -> Gsasa               -0.025073075663 Eh    ::
         ::    -> Ghb                 -0.002686155180 Eh    ::
         ::    -> Gshift               0.007624279005 Eh    ::
         :: repulsion energy           0.761600298319 Eh    ::
         :: dispersion energy         -0.025104103099 Eh    ::
         :: halogen bond corr.         0.000000000000 Eh    ::
         :: add. restraining           0.000000000000 Eh    ::
         :: total charge              -2.000000000000 e     ::
         :::::::::::::::::::::::::::::::::::::::::::::::::::::

           -------------------------------------------------
          |                Property Printout                |
           -------------------------------------------------

    * Orbital Energies and Occupations

         #    Occupation            Energy/Eh            Energy/eV
      -------------------------------------------------------------
         1        2.0000           -0.8030999             -21.8535
       ...           ...                  ...                  ...
        56        2.0000           -0.4456957             -12.1280
        57        2.0000           -0.4399686             -11.9722
        58        2.0000           -0.4321126             -11.7584
        59        2.0000           -0.4186849             -11.3930
        60        2.0000           -0.4157660             -11.3136
        61        2.0000           -0.4063991             -11.0587
        62        2.0000           -0.3922869             -10.6747
        63        2.0000           -0.3734815             -10.1629
        64        2.0000           -0.3699055             -10.0656
        65        2.0000           -0.3587149              -9.7611
        66        2.0000           -0.3491688              -9.5014
        67        2.0000           -0.3446851              -9.3794
        68        1.8581           -0.2582414              -7.0271 (HOMO)
        69        0.1419           -0.2533539              -6.8941 (LUMO)
        70                         -0.2249829              -6.1221
        71                         -0.2136237              -5.8130
        72                         -0.1780140              -4.8440
        73                         -0.1392171              -3.7883
        74                         -0.1230907              -3.3495
        75                         -0.1153645              -3.1392
        76                         -0.1056043              -2.8736
        77                         -0.0979470              -2.6653
        78                         -0.0887892              -2.4161
        79                         -0.0845242              -2.3000
       ...                                ...                  ...
       134                          0.7520414              20.4641
      -------------------------------------------------------------
                  HL-Gap            0.0048876 Eh            0.1330 eV
             Fermi-level           -0.2557976 Eh           -6.9606 eV

  Mulliken/CM5 charges         n(s)   n(p)   n(d)
     1C     0.17676  0.05796   0.967  2.856  0.000
     2O    -0.44253 -0.52455   1.690  4.752  0.000
     3C     0.52751  0.59085   0.978  2.495  0.000
     4O    -0.64813 -0.69106   1.739  4.909  0.000
     5C    -0.03021  0.04448   1.040  2.990  0.000
     6N    -0.40068 -0.58438   1.534  3.866  0.000
     7C     0.24149  0.39160   1.014  2.744  0.000
     8C     0.15841  0.19764   1.060  2.782  0.000
     9C    -0.07702 -0.21426   1.008  3.069  0.000
    10C    -0.10030 -0.24043   1.016  3.085  0.000
    11N    -0.44374 -0.77111   1.480  3.963  0.000
    12C     0.32378  0.40895   0.971  2.706  0.000
    13O    -0.75867 -0.80122   1.757  5.002  0.000
    14C     0.15931  0.25710   0.996  2.844  0.000
    15N    -0.42331 -0.51599   1.584  3.840  0.000
    16N     0.00447 -0.19527   1.416  3.579  0.000
    17C     0.03129 -0.04934   0.988  2.981  0.000
    18C     0.27380  0.37340   0.969  2.757  0.000
    19C    -0.10753 -0.24548   1.009  3.098  0.000
    20O    -0.46626 -0.51700   1.720  4.746  0.000
    21N    -0.32080 -0.66757   1.436  3.885  0.000
    22C     0.40835  0.51037   1.007  2.584  0.000
    23O    -0.64079 -0.67764   1.741  4.900  0.000
    24C     0.27091  0.31557   1.032  2.697  0.000
    25O    -0.66138 -0.69861   1.749  4.913  0.000
    26H     0.02550  0.08717   0.975  0.000  0.000
    27H     0.02507  0.08662   0.975  0.000  0.000
    28H     0.02648  0.08671   0.974  0.000  0.000
    29H     0.02977  0.09093   0.970  0.000  0.000
    30H     0.01227  0.07142   0.988  0.000  0.000
    31H     0.00637  0.06371   0.994  0.000  0.000
    32H     0.04057  0.10012   0.959  0.000  0.000
    33H     0.01318  0.06781   0.987  0.000  0.000
    34H     0.02156  0.07973   0.978  0.000  0.000
    35H     0.18874  0.39569   0.811  0.000  0.000
    36H     0.04983  0.11268   0.950  0.000  0.000
    37H     0.04971  0.11281   0.950  0.000  0.000
    38H     0.05942  0.12704   0.941  0.000  0.000
    39H     0.04406  0.09819   0.956  0.000  0.000
    40H     0.06217  0.11771   0.938  0.000  0.000
    41H     0.04706  0.10086   0.953  0.000  0.000
    42H     0.24351  0.44679   0.756  0.000  0.000

Wiberg/Mayer (AO) data.
largest (>0.10) Wiberg bond orders for each atom

 ---------------------------------------------------------------------------
     #   Z sym  total        # sym  WBO       # sym  WBO       # sym  WBO
 ---------------------------------------------------------------------------
     1   6 C    3.908 --    28 H    0.987    27 H    0.980    26 H    0.980
                             2 O    0.936
     2   8 O    2.131 --     3 C    1.015     1 C    0.936     4 O    0.100
     3   6 C    3.811 --     4 O    1.538     5 C    1.153     2 O    1.015
     4   8 O    1.804 --     3 C    1.538     2 O    0.100
     5   6 C    3.899 --    24 C    1.255     3 C    1.153     6 N    1.136
                            25 O    0.122
     6   7 N    3.012 --     7 C    1.639     5 C    1.136
     7   6 C    3.925 --     6 N    1.639    21 N    1.094     8 C    0.974
     8   6 C    3.967 --     9 C    0.998    10 C    0.978     7 C    0.974
                            11 N    0.964
     9   6 C    3.996 --     8 C    0.998    31 H    0.988    30 H    0.986
                            29 H    0.980
    10   6 C    3.993 --    33 H    0.988    34 H    0.984    32 H    0.980
                             8 C    0.978
    11   7 N    3.042 --     8 C    0.964    12 C    0.940    35 H    0.940
    12   6 C    3.889 --    14 C    1.488    13 O    1.304    11 N    0.940
    13   8 O    1.635 --    12 C    1.304    14 C    0.141
    14   6 C    3.662 --    12 C    1.488    15 N    1.090    20 O    0.837
                            13 O    0.141
    15   7 N    2.742 --    16 N    1.187    14 C    1.090    18 C    0.302
    16   7 N    3.634 --    18 C    1.370    15 N    1.187    17 C    0.951
    17   6 C    3.954 --    38 H    0.985    37 H    0.982    36 H    0.980
                            16 N    0.951
    18   6 C    3.833 --    16 N    1.370    20 O    1.029    19 C    1.025
                            15 N    0.302
    19   6 C    3.993 --    18 C    1.025    40 H    0.983    39 H    0.973
                            41 H    0.970
    20   8 O    2.083 --    18 C    1.029    14 C    0.837
    21   7 N    3.405 --    22 C    1.147     7 C    1.094    42 H    0.902
                            23 O    0.126
    22   6 C    3.834 --    23 O    1.532    21 N    1.147    24 C    0.998
    23   8 O    1.795 --    22 C    1.532    21 N    0.126
    24   6 C    3.911 --    25 O    1.483     5 C    1.255    22 C    0.998
    25   8 O    1.769 --    24 C    1.483     5 C    0.122
    26   1 H    1.017 --     1 C    0.980
    27   1 H    1.017 --     1 C    0.980
    28   1 H    1.017 --     1 C    0.987
    29   1 H    1.035 --     9 C    0.980
    30   1 H    1.022 --     9 C    0.986
    31   1 H    1.017 --     9 C    0.988
    32   1 H    1.023 --    10 C    0.980
    33   1 H    1.007 --    10 C    0.988
    34   1 H    1.006 --    10 C    0.984
    35   1 H    0.984 --    11 N    0.940
    36   1 H    1.003 --    17 C    0.980
    37   1 H    1.002 --    17 C    0.982
    38   1 H    1.013 --    17 C    0.985
    39   1 H    1.003 --    19 C    0.973
    40   1 H    1.002 --    19 C    0.983
    41   1 H    1.002 --    19 C    0.970
    42   1 H    0.955 --    21 N    0.902
 ---------------------------------------------------------------------------

Topologies differ in total number of bonds
Writing topology from bond orders to xtbtopo.mol

 dipole moment from electron density (au)
     X       Y       Z   
  -7.6265  -0.4094  -0.4629  total (Debye):   19.448

           -------------------------------------------------
          |                Geometry Summary                 |
           -------------------------------------------------

      molecular mass/u    :      351.3152409
   center of mass at/Å    :        0.3638500       0.1987561       0.0021693
  moments of inertia/u·Å² :        0.1120607E+04   0.5315900E+04   0.5930729E+04
rotational constants/cm⁻¹ :        0.1504331E-01   0.3171172E-02   0.2842421E-02

 * 33 selected distances

     #   Z          #   Z                                           value/Å
     1   6 C        2   8 O                                       1.4158635
     2   8 O        3   6 C                                       1.3707858
     3   6 C        4   8 O                                       1.2332645
     6   7 N        7   6 C                                       1.2816776
     8   6 C        9   6 C                                       1.5351049 (max)
     8   6 C       11   7 N                                       1.4672279
    12   6 C       14   6 C                                       1.3651433
    15   7 N       16   7 N                                       1.3247635
    16   7 N       17   6 C                                       1.4427552
    16   7 N       18   6 C                                       1.3169250
    18   6 C       19   6 C                                       1.4844430
    18   6 C       20   8 O                                       1.3690245
     7   6 C       21   7 N                                       1.3814372
    21   7 N       22   6 C                                       1.3745736
    22   6 C       23   8 O                                       1.2381821
     5   6 C       24   6 C                                       1.4248059
     1   6 C       26   1 H                                       1.0957288
     1   6 C       27   1 H                                       1.0958095
     1   6 C       28   1 H                                       1.0899144
     9   6 C       29   1 H                                       1.0887952
     9   6 C       30   1 H                                       1.0907859
     9   6 C       31   1 H                                       1.0904564
    10   6 C       32   1 H                                       1.0895227
    10   6 C       33   1 H                                       1.0901966
    10   6 C       34   1 H                                       1.0894699
    11   7 N       35   1 H                                       1.0171735
    17   6 C       36   1 H                                       1.0898965
    17   6 C       37   1 H                                       1.0889859
    17   6 C       38   1 H                                       1.0877269
    19   6 C       39   1 H                                       1.0915859
    19   6 C       40   1 H                                       1.0884368
    19   6 C       41   1 H                                       1.0925931
    21   7 N       42   1 H                                       1.0071978 (min)

 * 6 distinct bonds (by element types)

   Z      Z             #   av. dist./Å        max./Å        min./Å
   1 H    6 C          15     1.0906603     1.0958095     1.0877269
   6 C    6 C           4     1.4523743     1.5351049     1.3651433
   1 H    7 N           2     1.0121856     1.0171735     1.0071978
   6 C    7 N           6     1.3774327     1.4672279     1.2816776
   7 N    7 N           1     1.3247635     1.3247635     1.3247635
   6 C    8 O           5     1.3254241     1.4158635     1.2332645


optimized geometry written to: xtbopt.xyz


           -------------------------------------------------
          | TOTAL ENERGY              -83.587538718088 Eh   |
          | GRADIENT NORM               0.000569552156 Eh/α |
          | HOMO-LUMO GAP               0.132997369383 eV   |
           -------------------------------------------------

------------------------------------------------------------------------
 * finished run on 2023/06/21 at 17:12:34.306     
------------------------------------------------------------------------
 total:
 * wall-time:     0 d,  0 h,  0 min,  3.643 sec
 *  cpu-time:     0 d,  0 h,  0 min,  3.608 sec
 * ratio c/w:     0.990 speedup
 SCF:
 * wall-time:     0 d,  0 h,  0 min,  0.172 sec
 *  cpu-time:     0 d,  0 h,  0 min,  0.172 sec
 * ratio c/w:     1.000 speedup
 ANC optimizer:
 * wall-time:     0 d,  0 h,  0 min,  3.413 sec
 *  cpu-time:     0 d,  0 h,  0 min,  3.400 sec
 * ratio c/w:     0.996 speedup

