      -----------------------------------------------------------      
     |                   =====================                   |     
     |                           x T B                           |     
     |                   =====================                   |     
     |                         S. Grimme                         |     
     |          Mulliken Center for Theoretical Chemistry        |     
     |                    University of Bonn                     |     
      -----------------------------------------------------------      

   * xtb version 6.5.1 (579679a) compiled by 'ehlert@majestix' on 2022-07-11

   xtb is free software: you can redistribute it and/or modify it under
   the terms of the GNU Lesser General Public License as published by
   the Free Software Foundation, either version 3 of the License, or
   (at your option) any later version.
   
   xtb is distributed in the hope that it will be useful,
   but WITHOUT ANY WARRANTY; without even the implied warranty of
   MERCHANTABILITY or FITNESS FOR A PARTICULAR PURPOSE.  See the
   GNU Lesser General Public License for more details.
   
   Cite this work as:
   * C. Bannwarth, E. Caldeweyher, S. Ehlert, A. Hansen, P. Pracht,
     J. Seibert, S. Spicher, S. Grimme, WIREs Comput. Mol. Sci., 2020, 11,
     e01493. DOI: 10.1002/wcms.1493
   
   for GFN2-xTB:
   * C. Bannwarth, S. Ehlert and S. Grimme., J. Chem. Theory Comput., 2019,
     15, 1652-1671. DOI: 10.1021/acs.jctc.8b01176
   for GFN1-xTB:
   * S. Grimme, C. Bannwarth, P. Shushkov, J. Chem. Theory Comput., 2017,
     13, 1989-2009. DOI: 10.1021/acs.jctc.7b00118
   for GFN0-xTB:
   * P. Pracht, E. Caldeweyher, S. Ehlert, S. Grimme, ChemRxiv, 2019, preprint.
     DOI: 10.26434/chemrxiv.8326202.v1
   for GFN-FF:
   * S. Spicher and S. Grimme, Angew. Chem. Int. Ed., 2020, 59, 15665-15673.
     DOI: 10.1002/anie.202004239
   
   for ALPB and GBSA implicit solvation:
   * S. Ehlert, M. Stahn, S. Spicher, S. Grimme, J. Chem. Theory Comput.,
     2021, 17, 4250-4261. DOI: 10.1021/acs.jctc.1c00471
   
   for DFT-D4:
   * E. Caldeweyher, C. Bannwarth and S. Grimme, J. Chem. Phys., 2017,
     147, 034112. DOI: 10.1063/1.4993215
   * E. Caldeweyher, S. Ehlert, A. Hansen, H. Neugebauer, S. Spicher,
     C. Bannwarth and S. Grimme, J. Chem. Phys., 2019, 150, 154122.
     DOI: 10.1063/1.5090222
   * E. Caldeweyher, J.-M. Mewes, S. Ehlert and S. Grimme, Phys. Chem. Chem. Phys.
     2020, 22, 8499-8512. DOI: 10.1039/D0CP00502A
   
   for sTDA-xTB:
   * S. Grimme and C. Bannwarth, J. Chem. Phys., 2016, 145, 054103.
     DOI: 10.1063/1.4959605
   
   in the mass-spec context:
   * V. Asgeirsson, C. Bauer and S. Grimme, Chem. Sci., 2017, 8, 4879.
     DOI: 10.1039/c7sc00601b
   * J. Koopman and S. Grimme, ACS Omega 2019, 4, 12, 15120-15133.
     DOI: 10.1021/acsomega.9b02011
   
   for metadynamics refer to:
   * S. Grimme, J. Chem. Theory Comput., 2019, 155, 2847-2862
     DOI: 10.1021/acs.jctc.9b00143
   
   for SPH calculations refer to:
   * S. Spicher and S. Grimme, J. Chem. Theory Comput., 2021, 17, 1701-1714
     DOI: 10.1021/acs.jctc.0c01306
   
   with help from (in alphabetical order)
   P. Atkinson, C. Bannwarth, F. Bohle, G. Brandenburg, E. Caldeweyher
   M. Checinski, S. Dohm, S. Ehlert, S. Ehrlich, I. Gerasimov, C. Hölzer
   A. Katbashev, J. Koopman, C. Lavigne, S. Lehtola, F. März, M. Müller,
   F. Musil, H. Neugebauer, J. Pisarek, C. Plett, P. Pracht, F. Pultar,
   J. Seibert, P. Shushkov, S. Spicher, M. Stahn, M. Steiner, T. Strunk,
   J. Stückrath, T. Rose, and J. Unsleber
   
 * started run on 2023/06/20 at 14:53:31.738     

           -------------------------------------------------
          |                Calculation Setup                |
           -------------------------------------------------

          program call               : /lustre/hpc/kemi/ree/PhD/git/ReactivityQM/dep/xtb-6.5.1/bin/xtb --gfn 1 /lustre/hpc/kemi/ree/PhD/git/ReactivityQM/calculations/RaltegravirCLI/reac01prodE04/conf01/RaltegravirCLI_reac01prodE04_conf01_gfn1.xyz --opt --vfukui --chrg -1 --uhf 0 --alpb DMSO
          hostname                   : node308
          coordinate file            : /lustre/hpc/kemi/ree/PhD/git/ReactivityQM/calculations/RaltegravirCLI/reac01prodE04/conf01/RaltegravirCLI_reac01prodE04_conf01_gfn1.xyz
          omp threads                :                     1

   ID    Z sym.   atoms
    1    6 C      1, 2, 5-7
    2    7 N      3, 4
    3    8 O      8, 10
    4   17 Cl     9
    5    1 H      11-16

           -------------------------------------------------
          |                 G F N 1 - x T B                 |
           -------------------------------------------------

        Reference                      10.1021/acs.jctc.7b00118
      * Hamiltonian:
        H0-scaling (s, p, d)           1.850000    2.250000    2.000000
        zeta-weighting                 0.000000
      * Dispersion:
        s8                             2.400000
        a1                             0.630000
        a2                             5.000000
        s9                             0.000000
      * Repulsion:
        kExp                           1.500000
        rExp                           1.000000
      * Coulomb:
        alpha                          2.000000
        third order                    atomic
        anisotropic                    false
      * Halogen bond correction:
        rad-scale                      1.300000
        damping                        0.440000

      * Solvation model:               ALPB
        Solvent                        DMSO
        Parameter file                 internal GFN1-xTB/ALPB
        Dielectric constant                4.6680E+01
        Reference state                gsolv [1 M gas/solution]
        Free energy shift                  7.6243E-03 Eh       4.7843E+00 kcal/mol
        Temperature                        2.9815E+02 K
        Density                            1.1000E+00 kg/L
        Solvent mass                       7.8130E+01 g/mol
        Interaction kernel             P16
        Born radius scaling (c1)           1.7672E+00
        Born radii integrator          GBOBC
        Born offset                        0.0000E+00 a0       0.0000E+00 AA
        H-bond correction              true
        Ion screening                  false
        Surface tension                    1.0000E-05 Eh       1.5569E+01 dyn/cm
        Grid points                               230 per atom

          ...................................................
          :                      SETUP                      :
          :.................................................:
          :  # basis functions                  58          :
          :  # atomic orbitals                  57          :
          :  # shells                           33          :
          :  # electrons                        56          :
          :  # halogen bonds                     4          :
          :  max. iterations                   250          :
          :  Hamiltonian                  GFN1-xTB          :
          :  restarted?                      false          :
          :  GBSA solvation                   true          :
          :  PC potential                    false          :
          :  electronic temp.          300.0000000     K    :
          :  accuracy                    1.0000000          :
          :  -> integral cutoff          0.2500000E+02      :
          :  -> integral neglect         0.1000000E-07      :
          :  -> SCF convergence          0.1000000E-05 Eh   :
          :  -> wf. convergence          0.2000000E-04 e    :
          :  Broyden damping             0.4000000          :
          ...................................................

 iter      E             dE          RMSdq      gap      omega  full diag
   1    -34.2973383 -0.342973E+02  0.850E+00    2.75       0.0  T
   2    -34.3733570 -0.760187E-01  0.513E+00    1.84       1.0  T
   3    -34.3563355  0.170215E-01  0.162E+00    1.80       1.0  T
   4    -34.3793570 -0.230215E-01  0.332E-01    1.51       1.0  T
   5    -34.3806230 -0.126590E-02  0.654E-02    1.65       1.0  T
   6    -34.3806772 -0.542436E-04  0.123E-02    1.64       2.0  T
   7    -34.3806793 -0.208665E-05  0.377E-03    1.64       6.6  T
   8    -34.3806795 -0.195444E-06  0.131E-03    1.64      19.1  T
   9    -34.3806795 -0.155590E-07  0.399E-04    1.64      62.7  T
  10    -34.3806795 -0.676252E-09  0.914E-05    1.64     273.4  T
  11    -34.3806795 -0.641620E-11  0.395E-05    1.64     632.4  T

   *** convergence criteria satisfied after 11 iterations ***

         #    Occupation            Energy/Eh            Energy/eV
      -------------------------------------------------------------
         1        2.0000           -0.8565708             -23.3085
       ...           ...                  ...                  ...
        22        2.0000           -0.4512489             -12.2791
        23        2.0000           -0.4405760             -11.9887
        24        2.0000           -0.4296395             -11.6911
        25        2.0000           -0.4286254             -11.6635
        26        2.0000           -0.3891498             -10.5893
        27        2.0000           -0.3815371             -10.3822
        28        2.0000           -0.2835743              -7.7165 (HOMO)
        29                         -0.2231349              -6.0718 (LUMO)
        30                         -0.1419984              -3.8640
        31                         -0.1391154              -3.7855
        32                         -0.1274869              -3.4691
        33                         -0.1109407              -3.0189
       ...                                ...                  ...
        57                          0.6447704              17.5451
      -------------------------------------------------------------
                  HL-Gap            0.0604395 Eh            1.6446 eV
             Fermi-level           -0.2533546 Eh           -6.8941 eV

 SCC (total)                   0 d,  0 h,  0 min,  0.037 sec
 SCC setup                      ...        0 min,  0.001 sec (  2.216%)
 Dispersion                     ...        0 min,  0.000 sec (  0.294%)
 classical contributions        ...        0 min,  0.000 sec (  0.131%)
 integral evaluation            ...        0 min,  0.009 sec ( 24.275%)
 iterations                     ...        0 min,  0.009 sec ( 23.779%)
 molecular gradient             ...        0 min,  0.018 sec ( 48.319%)
 printout                       ...        0 min,  0.000 sec (  0.883%)

         :::::::::::::::::::::::::::::::::::::::::::::::::::::
         ::                     SUMMARY                     ::
         :::::::::::::::::::::::::::::::::::::::::::::::::::::
         :: total energy             -34.128355019841 Eh    ::
         :: total w/o Gsasa/hb       -34.119672574181 Eh    ::
         :: gradient norm              0.078307358539 Eh/a0 ::
         :: HOMO-LUMO gap              1.644641334070 eV    ::
         ::.................................................::
         :: SCC energy               -34.380679492507 Eh    ::
         :: -> electrostatic           0.235125344198 Eh    ::
         :: -> Gsolv                  -0.095888715705 Eh    ::
         ::    -> Gelec               -0.087206270046 Eh    ::
         ::    -> Gsasa               -0.015512791445 Eh    ::
         ::    -> Ghb                 -0.000793933220 Eh    ::
         ::    -> Gshift               0.007624279005 Eh    ::
         :: repulsion energy           0.259632334276 Eh    ::
         :: dispersion energy         -0.007307861609 Eh    ::
         :: halogen bond corr.         0.000000000000 Eh    ::
         :: add. restraining           0.000000000000 Eh    ::
         :: total charge              -1.000000000000 e     ::
         :::::::::::::::::::::::::::::::::::::::::::::::::::::

      ----------------------------------------------------------- 
     |                   =====================                   |
     |                        A N C O P T                        |
     |                   =====================                   |
     |               Approximate Normal Coordinate               |
     |                Rational Function Optimizer                |
      ----------------------------------------------------------- 

          ...................................................
          :                      SETUP                      :
          :.................................................:
          :   optimization level            normal          :
          :   max. optcycles                   200          :
          :   ANC micro-cycles                  20          :
          :   degrees of freedom                42          :
          :.................................................:
          :   RF solver                   davidson          :
          :   write xtbopt.log                true          :
          :   linear?                        false          :
          :   energy convergence         0.5000000E-05 Eh   :
          :   grad. convergence          0.1000000E-02 Eh/α :
          :   maximium RF displ.         1.0000000          :
          :   Hlow (freq-cutoff)         0.1000000E-01      :
          :   Hmax (freq-cutoff)         5.0000000          :
          :   S6 in model hess.         20.0000000          :
          ...................................................

generating ANC from model Hessian ...
Using Lindh-Hessian (1995)
 Shifting diagonal of input Hessian by   4.950349106297164E-003
 Lowest  eigenvalues of input Hessian
    0.000000    0.000000    0.000000    0.000000    0.000000    0.000000
    0.010000    0.010743    0.010975    0.014501    0.016032    0.018836
    0.031268    0.039852    0.049210    0.052142    0.070237    0.070990
 Highest eigenvalues
    1.432993    1.666425    1.724966    1.843782    1.958184    2.114878
 

........................................................................
.............................. CYCLE    1 ..............................
........................................................................
   1    -34.3806795 -0.343807E+02  0.414E-06    1.64       0.0  T
   2    -34.3806795 -0.568434E-13  0.203E-06    1.64   12303.3  T
   3    -34.3806795 -0.426326E-13  0.101E-06    1.64   24815.5  T
     SCC iter.                  ...        0 min,  0.002 sec
     gradient                   ...        0 min,  0.018 sec
 * total energy  :   -34.1283550 Eh     change       -0.1248424E-10 Eh
   gradient norm :     0.0783070 Eh/α   predicted     0.0000000E+00 (-100.00%)
   displ. norm   :     0.2182326 α      lambda       -0.7270918E-02
   maximum displ.:     0.1588482 α      in ANC's #5, #11, #9, ...

........................................................................
.............................. CYCLE    2 ..............................
........................................................................
   1    -34.3958450 -0.343958E+02  0.124E-01    1.85       0.0  T
   2    -34.3959371 -0.921219E-04  0.581E-02    1.86       1.0  T
   3    -34.3959651 -0.279505E-04  0.307E-02    1.88       1.0  T
   4    -34.3959692 -0.415346E-05  0.673E-03    1.87       3.7  T
   5    -34.3959693 -0.867676E-07  0.252E-03    1.87       9.9  T
   6    -34.3959693 -0.259560E-07  0.952E-04    1.87      26.2  T
   7    -34.3959693 -0.956381E-08  0.176E-04    1.87     141.7  T
   8    -34.3959693 -0.127898E-09  0.377E-05    1.87     662.4  T
     SCC iter.                  ...        0 min,  0.006 sec
     gradient                   ...        0 min,  0.018 sec
 * total energy  :   -34.1336599 Eh     change       -0.5304859E-02 Eh
   gradient norm :     0.0433435 Eh/α   predicted    -0.3808597E-02 ( -28.21%)
   displ. norm   :     0.2600088 α      lambda       -0.3922499E-02
   maximum displ.:     0.2205518 α      in ANC's #5, #9, #6, ...

........................................................................
.............................. CYCLE    3 ..............................
........................................................................
   1    -34.4070418 -0.344070E+02  0.155E-01    2.05       0.0  T
   2    -34.4072194 -0.177526E-03  0.706E-02    2.06       1.0  T
   3    -34.4072601 -0.407194E-04  0.346E-02    2.08       1.0  T
   4    -34.4072663 -0.620992E-05  0.708E-03    2.08       3.5  T
   5    -34.4072664 -0.134953E-06  0.285E-03    2.08       8.8  T
   6    -34.4072664 -0.139402E-07  0.857E-04    2.08      29.2  T
   7    -34.4072664 -0.475641E-08  0.314E-04    2.08      79.5  T
   8    -34.4072664 -0.103481E-08  0.617E-05    2.08     405.3  T
   9    -34.4072664 -0.130314E-10  0.267E-05    2.08     934.9  T
     SCC iter.                  ...        0 min,  0.019 sec
     gradient                   ...        0 min,  0.018 sec
 * total energy  :   -34.1361448 Eh     change       -0.2484893E-02 Eh
   gradient norm :     0.0274075 Eh/α   predicted    -0.2093841E-02 ( -15.74%)
   displ. norm   :     0.2197601 α      lambda       -0.1421782E-02
   maximum displ.:     0.1609500 α      in ANC's #5, #1, #2, ...

........................................................................
.............................. CYCLE    4 ..............................
........................................................................
   1    -34.4101032 -0.344101E+02  0.122E-01    2.11       0.0  T
   2    -34.4102399 -0.136769E-03  0.510E-02    2.13       1.0  T
   3    -34.4102619 -0.219697E-04  0.263E-02    2.14       1.0  T
   4    -34.4102661 -0.415855E-05  0.607E-03    2.14       4.1  T
   5    -34.4102661 -0.846047E-07  0.188E-03    2.14      13.3  T
   6    -34.4102662 -0.948052E-08  0.624E-04    2.14      40.0  T
   7    -34.4102662 -0.912799E-09  0.190E-04    2.14     131.8  T
   8    -34.4102662 -0.396227E-09  0.510E-05    2.14     489.9  T
     SCC iter.                  ...        0 min,  0.006 sec
     gradient                   ...        0 min,  0.018 sec
 * total energy  :   -34.1373363 Eh     change       -0.1191479E-02 Eh
   gradient norm :     0.0233552 Eh/α   predicted    -0.7452240E-03 ( -37.45%)
   displ. norm   :     0.5315853 α      lambda       -0.3211458E-02
   maximum displ.:     0.2805795 α      in ANC's #5, #1, #8, ...

........................................................................
.............................. CYCLE    5 ..............................
........................................................................
   1    -34.4109959 -0.344110E+02  0.342E-01    2.19       0.0  T
   2    -34.4122196 -0.122373E-02  0.149E-01    2.23       1.0  T
   3    -34.4124378 -0.218164E-03  0.727E-02    2.26       1.0  T
   4    -34.4124617 -0.238833E-04  0.202E-02    2.26       1.2  T
   5    -34.4124624 -0.782064E-06  0.591E-03    2.26       4.2  T
   6    -34.4124625 -0.827298E-07  0.159E-03    2.26      15.7  T
   7    -34.4124625 -0.816303E-08  0.182E-04    2.26     137.3  T
   8    -34.4124625 -0.387040E-09  0.898E-05    2.26     278.6  T
     SCC iter.                  ...        0 min,  0.006 sec
     gradient                   ...        0 min,  0.018 sec
 * total energy  :   -34.1402166 Eh     change       -0.2880382E-02 Eh
   gradient norm :     0.0210833 Eh/α   predicted    -0.2059489E-02 ( -28.50%)
   displ. norm   :     0.7667738 α      lambda       -0.4982974E-02
   maximum displ.:     0.3866195 α      in ANC's #1, #8, #5, ...

........................................................................
.............................. CYCLE    6 ..............................
........................................................................
   1    -34.4013581 -0.344014E+02  0.624E-01    2.43       0.0  T
   2    -34.4054475 -0.408942E-02  0.302E-01    2.51       1.0  T
   3    -34.4062032 -0.755701E-03  0.152E-01    2.56       1.0  T
   4    -34.4062562 -0.530070E-04  0.444E-02    2.56       1.0  T
   5    -34.4062619 -0.572354E-05  0.119E-02    2.56       2.1  T
   6    -34.4062625 -0.562864E-06  0.361E-03    2.56       6.9  T
   7    -34.4062625 -0.601007E-07  0.106E-03    2.56      23.5  T
   8    -34.4062625 -0.122567E-07  0.160E-04    2.56     156.0  T
   9    -34.4062625 -0.224730E-09  0.617E-05    2.56     404.9  T
     SCC iter.                  ...        0 min,  0.020 sec
     gradient                   ...        0 min,  0.031 sec
 * total energy  :   -34.1414793 Eh     change       -0.1262706E-02 Eh
   gradient norm :     0.0383353 Eh/α   predicted    -0.3956330E-02 ( 213.32%)
   displ. norm   :     0.2753839 α      lambda       -0.3888093E-02
   maximum displ.:     0.1704069 α      in ANC's #5, #8, #1, ...

........................................................................
.............................. CYCLE    7 ..............................
........................................................................
   1    -34.4177175 -0.344177E+02  0.213E-01    2.43       0.0  T
   2    -34.4180635 -0.346035E-03  0.119E-01    2.41       1.0  T
   3    -34.4181323 -0.687529E-04  0.621E-02    2.39       1.0  T
   4    -34.4181395 -0.725637E-05  0.138E-02    2.39       1.8  T
   5    -34.4181401 -0.543540E-06  0.353E-03    2.40       7.1  T
   6    -34.4181401 -0.648324E-07  0.124E-03    2.40      20.2  T
   7    -34.4181402 -0.101413E-07  0.307E-04    2.40      81.4  T
   8    -34.4181402 -0.825089E-09  0.478E-05    2.40     523.5  T
   9    -34.4181402 -0.168825E-10  0.230E-05    2.40    1087.5  T
     SCC iter.                  ...        0 min,  0.018 sec
     gradient                   ...        0 min,  0.032 sec
 * total energy  :   -34.1433570 Eh     change       -0.1877692E-02 Eh
   gradient norm :     0.0259992 Eh/α   predicted    -0.2091475E-02 (  11.39%)
   displ. norm   :     0.1949323 α      lambda       -0.1278640E-02
   maximum displ.:     0.1052014 α      in ANC's #1, #2, #3, ...

........................................................................
.............................. CYCLE    8 ..............................
........................................................................
   1    -34.4194308 -0.344194E+02  0.249E-02    2.44       0.0  T
   2    -34.4194393 -0.850299E-05  0.168E-02    2.44       1.5  T
   3    -34.4194420 -0.275582E-05  0.715E-03    2.44       3.5  T
   4    -34.4194420 -0.590003E-08  0.118E-03    2.44      21.2  T
   5    -34.4194420 -0.619512E-08  0.334E-04    2.44      74.9  T
   6    -34.4194420 -0.119082E-08  0.138E-04    2.44     181.3  T
   7    -34.4194420 -0.106063E-09  0.295E-05    2.44     847.0  T
     SCC iter.                  ...        0 min,  0.015 sec
     gradient                   ...        0 min,  0.018 sec
 * total energy  :   -34.1444457 Eh     change       -0.1088717E-02 Eh
   gradient norm :     0.0188758 Eh/α   predicted    -0.6636115E-03 ( -39.05%)
   displ. norm   :     0.5553720 α      lambda       -0.3082184E-02
   maximum displ.:     0.2957541 α      in ANC's #1, #2, #3, ...

........................................................................
.............................. CYCLE    9 ..............................
........................................................................
   1    -34.4226780 -0.344227E+02  0.156E-01    2.53       0.0  T
   2    -34.4229497 -0.271675E-03  0.840E-02    2.55       1.0  T
   3    -34.4230185 -0.688234E-04  0.397E-02    2.56       1.0  T
   4    -34.4230201 -0.162708E-05  0.981E-03    2.56       2.5  T
   5    -34.4230203 -0.167849E-06  0.222E-03    2.56      11.3  T
   6    -34.4230203 -0.293872E-07  0.732E-04    2.56      34.1  T
   7    -34.4230203 -0.265790E-08  0.210E-04    2.56     119.0  T
   8    -34.4230203 -0.414524E-09  0.360E-05    2.56     694.5  T
   9    -34.4230203 -0.737543E-11  0.150E-05    2.56    1664.7  T
     SCC iter.                  ...        0 min,  0.006 sec
     gradient                   ...        0 min,  0.018 sec
 * total energy  :   -34.1465054 Eh     change       -0.2059649E-02 Eh
   gradient norm :     0.0197941 Eh/α   predicted    -0.2016419E-02 (  -2.10%)
   displ. norm   :     0.3699255 α      lambda       -0.1532750E-02
   maximum displ.:     0.2145578 α      in ANC's #1, #2, #3, ...

........................................................................
.............................. CYCLE   10 ..............................
........................................................................
   1    -34.4209783 -0.344210E+02  0.831E-02    2.65       0.0  T
   2    -34.4210428 -0.644356E-04  0.326E-02    2.62       1.0  T
   3    -34.4210505 -0.775428E-05  0.197E-02    2.61       1.3  T
   4    -34.4210522 -0.167015E-05  0.563E-03    2.61       4.4  T
   5    -34.4210522 -0.474124E-07  0.157E-03    2.61      15.9  T
   6    -34.4210523 -0.998752E-08  0.377E-04    2.61      66.2  T
   7    -34.4210523 -0.735248E-09  0.140E-04    2.61     178.5  T
   8    -34.4210523 -0.158288E-09  0.246E-05    2.61    1016.9  T
     SCC iter.                  ...        0 min,  0.005 sec
     gradient                   ...        0 min,  0.018 sec
 * total energy  :   -34.1476331 Eh     change       -0.1127656E-02 Eh
   gradient norm :     0.0196858 Eh/α   predicted    -0.8712548E-03 ( -22.74%)
   displ. norm   :     0.3781943 α      lambda       -0.1839304E-02
   maximum displ.:     0.1624009 α      in ANC's #5, #1, #6, ...

........................................................................
.............................. CYCLE   11 ..............................
........................................................................
   1    -34.4246751 -0.344247E+02  0.164E-01    2.68       0.0  T
   2    -34.4248343 -0.159208E-03  0.668E-02    2.63       1.0  T
   3    -34.4248428 -0.846488E-05  0.300E-02    2.63       1.0  T
   4    -34.4248454 -0.261411E-05  0.670E-03    2.62       3.7  T
   5    -34.4248458 -0.370310E-06  0.292E-03    2.63       8.6  T
   6    -34.4248458 -0.320771E-07  0.782E-04    2.63      32.0  T
   7    -34.4248458 -0.383380E-08  0.231E-04    2.63     108.2  T
   8    -34.4248458 -0.555097E-09  0.541E-05    2.63     462.4  T
   9    -34.4248458 -0.119158E-10  0.191E-05    2.63    1312.0  T
     SCC iter.                  ...        0 min,  0.006 sec
     gradient                   ...        0 min,  0.031 sec
 * total energy  :   -34.1487948 Eh     change       -0.1161745E-02 Eh
   gradient norm :     0.0198652 Eh/α   predicted    -0.1051196E-02 (  -9.52%)
   displ. norm   :     0.4745097 α      lambda       -0.1487759E-02
   maximum displ.:     0.2817155 α      in ANC's #1, #3, #2, ...

........................................................................
.............................. CYCLE   12 ..............................
........................................................................
   1    -34.4170680 -0.344171E+02  0.119E-01    2.63       0.0  T
   2    -34.4171662 -0.982015E-04  0.704E-02    2.62       1.0  T
   3    -34.4171851 -0.189263E-04  0.334E-02    2.62       1.0  T
   4    -34.4171870 -0.193429E-05  0.775E-03    2.62       3.2  T
   5    -34.4171873 -0.281304E-06  0.216E-03    2.62      11.6  T
   6    -34.4171873 -0.176897E-07  0.653E-04    2.62      38.3  T
   7    -34.4171873 -0.215613E-08  0.233E-04    2.62     107.4  T
   8    -34.4171873 -0.313101E-09  0.609E-05    2.62     410.7  T
   9    -34.4171873 -0.114824E-10  0.203E-05    2.62    1230.6  T
     SCC iter.                  ...        0 min,  0.006 sec
     gradient                   ...        0 min,  0.018 sec
 * total energy  :   -34.1494100 Eh     change       -0.6151853E-03 Eh
   gradient norm :     0.0183704 Eh/α   predicted    -0.9113714E-03 (  48.15%)
   displ. norm   :     0.0914798 α      lambda       -0.8406647E-03
   maximum displ.:     0.0351493 α      in ANC's #1, #5, #8, ...

........................................................................
.............................. CYCLE   13 ..............................
........................................................................
   1    -34.4217484 -0.344217E+02  0.839E-02    2.64       0.0  T
   2    -34.4217987 -0.502983E-04  0.341E-02    2.62       1.0  T
   3    -34.4218019 -0.312610E-05  0.165E-02    2.62       1.5  T
   4    -34.4218029 -0.103060E-05  0.408E-03    2.62       6.1  T
   5    -34.4218030 -0.102358E-06  0.161E-03    2.62      15.5  T
   6    -34.4218030 -0.577227E-08  0.459E-04    2.62      54.5  T
   7    -34.4218030 -0.140654E-08  0.159E-04    2.62     157.2  T
   8    -34.4218030 -0.206327E-09  0.347E-05    2.62     720.9  T
     SCC iter.                  ...        0 min,  0.005 sec
     gradient                   ...        0 min,  0.018 sec
 * total energy  :   -34.1498983 Eh     change       -0.4883482E-03 Eh
   gradient norm :     0.0106012 Eh/α   predicted    -0.4238506E-03 ( -13.21%)
   displ. norm   :     0.0950814 α      lambda       -0.2584401E-03
   maximum displ.:     0.0546320 α      in ANC's #2, #3, #4, ...

........................................................................
.............................. CYCLE   14 ..............................
........................................................................
   1    -34.4214551 -0.344215E+02  0.349E-02    2.63       0.0  T
   2    -34.4214678 -0.126815E-04  0.225E-02    2.62       1.1  T
   3    -34.4214697 -0.190554E-05  0.114E-02    2.62       2.2  T
   4    -34.4214698 -0.615556E-07  0.256E-03    2.62       9.8  T
   5    -34.4214698 -0.167273E-07  0.645E-04    2.62      38.8  T
   6    -34.4214698 -0.139975E-08  0.238E-04    2.62     105.2  T
   7    -34.4214698 -0.311623E-09  0.814E-05    2.62     307.2  T
   8    -34.4214698 -0.386464E-10  0.194E-05    2.62    1291.0  T
     SCC iter.                  ...        0 min,  0.005 sec
     gradient                   ...        0 min,  0.018 sec
 * total energy  :   -34.1500487 Eh     change       -0.1503535E-03 Eh
   gradient norm :     0.0092969 Eh/α   predicted    -0.1303864E-03 ( -13.28%)
   displ. norm   :     0.1100942 α      lambda       -0.2192573E-03
   maximum displ.:     0.0602202 α      in ANC's #2, #5, #3, ...

........................................................................
.............................. CYCLE   15 ..............................
........................................................................
   1    -34.4217150 -0.344217E+02  0.213E-02    2.61       0.0  T
   2    -34.4217221 -0.708385E-05  0.138E-02    2.61       1.8  T
   3    -34.4217237 -0.154335E-05  0.563E-03    2.61       4.4  T
   4    -34.4217237 -0.336478E-08  0.150E-03    2.61      16.7  T
   5    -34.4217237 -0.315517E-08  0.345E-04    2.61      72.5  T
   6    -34.4217237 -0.118524E-08  0.804E-05    2.61     310.8  T
   7    -34.4217237 -0.149427E-10  0.246E-05    2.61    1014.8  T
     SCC iter.                  ...        0 min,  0.005 sec
     gradient                   ...        0 min,  0.018 sec
 * total energy  :   -34.1501785 Eh     change       -0.1298097E-03 Eh
   gradient norm :     0.0050398 Eh/α   predicted    -0.1109592E-03 ( -14.52%)
   displ. norm   :     0.1050122 α      lambda       -0.1172066E-03
   maximum displ.:     0.0720531 α      in ANC's #2, #3, #5, ...

........................................................................
.............................. CYCLE   16 ..............................
........................................................................
   1    -34.4202795 -0.344203E+02  0.105E-02    2.59       0.0  T
   2    -34.4202807 -0.116645E-05  0.542E-03    2.59       4.6  T
   3    -34.4202808 -0.163163E-06  0.281E-03    2.59       8.9  T
   4    -34.4202809 -0.165126E-07  0.873E-04    2.59      28.6  T
   5    -34.4202809 -0.153807E-08  0.176E-04    2.59     142.1  T
   6    -34.4202809 -0.958806E-10  0.408E-05    2.59     612.6  T
     SCC iter.                  ...        0 min,  0.004 sec
     gradient                   ...        0 min,  0.018 sec
 * total energy  :   -34.1502581 Eh     change       -0.7956323E-04 Eh
   gradient norm :     0.0059451 Eh/α   predicted    -0.5924986E-04 ( -25.53%)
   displ. norm   :     0.1438748 α      lambda       -0.1433727E-03
   maximum displ.:     0.1037945 α      in ANC's #2, #5, #3, ...

........................................................................
.............................. CYCLE   17 ..............................
........................................................................
   1    -34.4203273 -0.344203E+02  0.295E-02    2.59       0.0  T
   2    -34.4203334 -0.612127E-05  0.110E-02    2.60       2.3  T
   3    -34.4203339 -0.427160E-06  0.610E-03    2.60       4.1  T
   4    -34.4203340 -0.175572E-06  0.140E-03    2.60      17.9  T
   5    -34.4203340 -0.617526E-08  0.599E-04    2.60      41.7  T
   6    -34.4203340 -0.111265E-08  0.159E-04    2.60     157.6  T
   7    -34.4203340 -0.113239E-09  0.469E-05    2.60     532.9  T
     SCC iter.                  ...        0 min,  0.005 sec
     gradient                   ...        0 min,  0.018 sec
 * total energy  :   -34.1503434 Eh     change       -0.8530758E-04 Eh
   gradient norm :     0.0064615 Eh/α   predicted    -0.7316914E-04 ( -14.23%)
   displ. norm   :     0.1575663 α      lambda       -0.1308593E-03
   maximum displ.:     0.0948980 α      in ANC's #2, #3, #1, ...

........................................................................
.............................. CYCLE   18 ..............................
........................................................................
   1    -34.4202360 -0.344202E+02  0.184E-02    2.59       0.0  T
   2    -34.4202383 -0.231688E-05  0.924E-03    2.59       2.7  T
   3    -34.4202386 -0.311847E-06  0.425E-03    2.59       5.9  T
   4    -34.4202387 -0.444146E-07  0.123E-03    2.59      20.3  T
   5    -34.4202387 -0.999105E-08  0.292E-04    2.59      85.5  T
   6    -34.4202387 -0.229548E-09  0.789E-05    2.59     316.8  T
   7    -34.4202387 -0.220481E-10  0.170E-05    2.59    1469.4  T
     SCC iter.                  ...        0 min,  0.005 sec
     gradient                   ...        0 min,  0.018 sec
 * total energy  :   -34.1504281 Eh     change       -0.8473169E-04 Eh
   gradient norm :     0.0077054 Eh/α   predicted    -0.6705441E-04 ( -20.86%)
   displ. norm   :     0.2180546 α      lambda       -0.1788223E-03
   maximum displ.:     0.1652858 α      in ANC's #2, #3, #1, ...

........................................................................
.............................. CYCLE   19 ..............................
........................................................................
   1    -34.4205444 -0.344205E+02  0.871E-03    2.60       0.0  T
   2    -34.4205451 -0.761736E-06  0.457E-03    2.60       5.5  T
   3    -34.4205452 -0.832501E-07  0.234E-03    2.60      10.7  T
   4    -34.4205452 -0.113359E-07  0.850E-04    2.60      29.4  T
   5    -34.4205452 -0.154806E-08  0.201E-04    2.60     124.3  T
   6    -34.4205452 -0.106041E-09  0.557E-05    2.60     448.7  T
   7    -34.4205452 -0.198384E-10  0.158E-05    2.60    1577.4  T
     SCC iter.                  ...        0 min,  0.005 sec
     gradient                   ...        0 min,  0.018 sec
 * total energy  :   -34.1505518 Eh     change       -0.1237443E-03 Eh
   gradient norm :     0.0081167 Eh/α   predicted    -0.9366037E-04 ( -24.31%)
   displ. norm   :     0.2177629 α      lambda       -0.1956005E-03
   maximum displ.:     0.1423712 α      in ANC's #2, #3, #1, ...

........................................................................
.............................. CYCLE   20 ..............................
........................................................................
   1    -34.4223020 -0.344223E+02  0.237E-02    2.61       0.0  T
   2    -34.4223108 -0.883390E-05  0.138E-02    2.62       1.8  T
   3    -34.4223134 -0.253276E-05  0.402E-03    2.62       6.2  T
   4    -34.4223134 -0.819912E-08  0.154E-03    2.62      16.2  T
   5    -34.4223134 -0.162156E-08  0.234E-04    2.62     106.7  T
   6    -34.4223134 -0.287578E-09  0.548E-05    2.62     456.0  T
   7    -34.4223134 -0.109495E-10  0.153E-05    2.62    1632.3  T
     SCC iter.                  ...        0 min,  0.005 sec
     gradient                   ...        0 min,  0.018 sec
 * total energy  :   -34.1506818 Eh     change       -0.1299576E-03 Eh
   gradient norm :     0.0067999 Eh/α   predicted    -0.1024389E-03 ( -21.18%)
   displ. norm   :     0.2448994 α      lambda       -0.1381314E-03
   maximum displ.:     0.1638053 α      in ANC's #2, #3, #1, ...
 * RMSD in coord.:     0.8931298 α      energy gain  -0.2232678E-01 Eh

generating ANC from model Hessian ...
Using Lindh-Hessian (1995)
 Shifting diagonal of input Hessian by   6.801738742024487E-003
 Lowest  eigenvalues of input Hessian
    0.000000    0.000000    0.000000    0.000000    0.000000    0.000000
    0.010000    0.011640    0.013257    0.015843    0.017739    0.020006
    0.032101    0.042276    0.047125    0.059665    0.067431    0.076760
 Highest eigenvalues
    1.330132    1.485180    1.696245    1.836346    2.105078    2.312144
 

........................................................................
.............................. CYCLE   21 ..............................
........................................................................
   1    -34.4205191 -0.344205E+02  0.132E-02    2.63       0.0  T
   2    -34.4205204 -0.123969E-05  0.866E-03    2.63       2.9  T
   3    -34.4205207 -0.309136E-06  0.458E-03    2.63       5.5  T
   4    -34.4205207 -0.152948E-07  0.667E-04    2.63      37.5  T
   5    -34.4205207 -0.118732E-08  0.166E-04    2.63     150.7  T
   6    -34.4205207 -0.252172E-09  0.511E-05    2.63     489.5  T
     SCC iter.                  ...        0 min,  0.004 sec
     gradient                   ...        0 min,  0.018 sec
 * total energy  :   -34.1507700 Eh     change       -0.8816863E-04 Eh
   gradient norm :     0.0071928 Eh/α   predicted     0.0000000E+00 (-100.00%)
   displ. norm   :     0.0861808 α      lambda       -0.1930913E-03
   maximum displ.:     0.0773239 α      in ANC's #1, #5, #3, ...

........................................................................
.............................. CYCLE   22 ..............................
........................................................................
   1    -34.4224519 -0.344225E+02  0.111E-02    2.63       0.0  T
   2    -34.4224533 -0.133522E-05  0.685E-03    2.63       3.6  T
   3    -34.4224536 -0.371129E-06  0.296E-03    2.63       8.4  T
   4    -34.4224536 -0.254055E-08  0.526E-04    2.63      47.5  T
   5    -34.4224536 -0.108700E-08  0.151E-04    2.63     165.4  T
   6    -34.4224536 -0.805755E-10  0.413E-05    2.63     604.6  T
     SCC iter.                  ...        0 min,  0.004 sec
     gradient                   ...        0 min,  0.018 sec
 * total energy  :   -34.1509015 Eh     change       -0.1315192E-03 Eh
   gradient norm :     0.0029923 Eh/α   predicted    -0.9726135E-04 ( -26.05%)
   displ. norm   :     0.0748108 α      lambda       -0.9129789E-04
   maximum displ.:     0.0580900 α      in ANC's #1, #3, #7, ...

........................................................................
.............................. CYCLE   23 ..............................
........................................................................
   1    -34.4233637 -0.344234E+02  0.116E-02    2.63       0.0  T
   2    -34.4233655 -0.180155E-05  0.726E-03    2.63       3.4  T
   3    -34.4233660 -0.545899E-06  0.259E-03    2.63       9.7  T
   4    -34.4233660 -0.176103E-08  0.513E-04    2.63      48.7  T
   5    -34.4233660 -0.844821E-09  0.134E-04    2.63     186.0  T
   6    -34.4233660 -0.792895E-10  0.396E-05    2.63     632.0  T
     SCC iter.                  ...        0 min,  0.004 sec
     gradient                   ...        0 min,  0.018 sec
 * total energy  :   -34.1509582 Eh     change       -0.5675745E-04 Eh
   gradient norm :     0.0024221 Eh/α   predicted    -0.4590506E-04 ( -19.12%)
   displ. norm   :     0.0739409 α      lambda       -0.4283313E-04
   maximum displ.:     0.0588413 α      in ANC's #1, #3, #7, ...

........................................................................
.............................. CYCLE   24 ..............................
........................................................................
   1    -34.4232718 -0.344233E+02  0.467E-03    2.63       0.0  T
   2    -34.4232720 -0.154051E-06  0.262E-03    2.63       9.5  T
   3    -34.4232720 -0.215943E-07  0.120E-03    2.63      20.9  T
   4    -34.4232720 -0.269387E-08  0.372E-04    2.63      67.1  T
   5    -34.4232720 -0.730317E-09  0.984E-05    2.63     253.9  T
   6    -34.4232720 -0.227516E-10  0.241E-05    2.63    1039.5  T
     SCC iter.                  ...        0 min,  0.004 sec
     gradient                   ...        0 min,  0.013 sec
 * total energy  :   -34.1509923 Eh     change       -0.3406518E-04 Eh
   gradient norm :     0.0024701 Eh/α   predicted    -0.2153456E-04 ( -36.78%)
   displ. norm   :     0.1666992 α      lambda       -0.8510314E-04
   maximum displ.:     0.1077167 α      in ANC's #1, #3, #7, ...

........................................................................
.............................. CYCLE   25 ..............................
........................................................................
   1    -34.4223747 -0.344224E+02  0.111E-02    2.63       0.0  T
   2    -34.4223756 -0.885457E-06  0.618E-03    2.63       4.0  T
   3    -34.4223757 -0.952392E-07  0.340E-03    2.63       7.3  T
   4    -34.4223757 -0.210454E-07  0.750E-04    2.63      33.3  T
   5    -34.4223757 -0.406384E-08  0.199E-04    2.63     125.9  T
   6    -34.4223757 -0.104329E-09  0.383E-05    2.63     652.0  T
     SCC iter.                  ...        0 min,  0.003 sec
     gradient                   ...        0 min,  0.013 sec
 * total energy  :   -34.1510504 Eh     change       -0.5810831E-04 Eh
   gradient norm :     0.0032355 Eh/α   predicted    -0.4373402E-04 ( -24.74%)
   displ. norm   :     0.1377637 α      lambda       -0.6105431E-04
   maximum displ.:     0.1065506 α      in ANC's #3, #1, #7, ...

........................................................................
.............................. CYCLE   26 ..............................
........................................................................
   1    -34.4215014 -0.344215E+02  0.148E-02    2.63       0.0  T
   2    -34.4215043 -0.285157E-05  0.963E-03    2.63       2.6  T
   3    -34.4215051 -0.789079E-06  0.450E-03    2.63       5.5  T
   4    -34.4215051  0.117578E-08  0.557E-04    2.63      44.8  T
   5    -34.4215051 -0.280209E-08  0.915E-05    2.63     273.3  T
   6    -34.4215051 -0.447429E-10  0.344E-05    2.63     726.5  T
     SCC iter.                  ...        0 min,  0.003 sec
     gradient                   ...        0 min,  0.009 sec
 * total energy  :   -34.1510954 Eh     change       -0.4501465E-04 Eh
   gradient norm :     0.0045979 Eh/α   predicted    -0.3110579E-04 ( -30.90%)
   displ. norm   :     0.1014078 α      lambda       -0.6884094E-04
   maximum displ.:     0.0870934 α      in ANC's #3, #7, #6, ...

........................................................................
.............................. CYCLE   27 ..............................
........................................................................
   1    -34.4214764 -0.344215E+02  0.160E-02    2.63       0.0  T
   2    -34.4214802 -0.373828E-05  0.113E-02    2.64       2.2  T
   3    -34.4214813 -0.117186E-05  0.481E-03    2.63       5.2  T
   4    -34.4214813 -0.581972E-08  0.500E-04    2.63      50.0  T
   5    -34.4214813 -0.208714E-08  0.179E-04    2.63     139.8  T
   6    -34.4214813 -0.134740E-09  0.633E-05    2.63     395.1  T
     SCC iter.                  ...        0 min,  0.003 sec
     gradient                   ...        0 min,  0.010 sec
 * total energy  :   -34.1511459 Eh     change       -0.5051169E-04 Eh
   gradient norm :     0.0041277 Eh/α   predicted    -0.3477416E-04 ( -31.16%)
   displ. norm   :     0.1059033 α      lambda       -0.5007139E-04
   maximum displ.:     0.0943566 α      in ANC's #3, #7, #6, ...

........................................................................
.............................. CYCLE   28 ..............................
........................................................................
   1    -34.4215511 -0.344216E+02  0.127E-02    2.64       0.0  T
   2    -34.4215531 -0.198109E-05  0.892E-03    2.64       2.8  T
   3    -34.4215537 -0.599212E-06  0.423E-03    2.64       5.9  T
   4    -34.4215537 -0.455671E-10  0.382E-04    2.64      65.4  T
   5    -34.4215537 -0.149226E-08  0.126E-04    2.64     198.1  T
   6    -34.4215537 -0.102673E-09  0.466E-05    2.64     536.4  T
     SCC iter.                  ...        0 min,  0.003 sec
     gradient                   ...        0 min,  0.009 sec
 * total energy  :   -34.1511842 Eh     change       -0.3822800E-04 Eh
   gradient norm :     0.0028904 Eh/α   predicted    -0.2531516E-04 ( -33.78%)
   displ. norm   :     0.1258490 α      lambda       -0.4572119E-04
   maximum displ.:     0.1136057 α      in ANC's #3, #1, #7, ...

........................................................................
.............................. CYCLE   29 ..............................
........................................................................
   1    -34.4214964 -0.344215E+02  0.113E-02    2.65       0.0  T
   2    -34.4214978 -0.131043E-05  0.728E-03    2.65       3.4  T
   3    -34.4214981 -0.360285E-06  0.367E-03    2.65       6.8  T
   4    -34.4214981 -0.141336E-08  0.359E-04    2.65      69.7  T
   5    -34.4214981 -0.132977E-08  0.108E-04    2.65     231.2  T
   6    -34.4214981 -0.763691E-10  0.325E-05    2.65     769.3  T
     SCC iter.                  ...        0 min,  0.003 sec
     gradient                   ...        0 min,  0.019 sec
 * total energy  :   -34.1512206 Eh     change       -0.3639675E-04 Eh
   gradient norm :     0.0025447 Eh/α   predicted    -0.2322423E-04 ( -36.19%)
   displ. norm   :     0.1180111 α      lambda       -0.4870474E-04
   maximum displ.:     0.1091046 α      in ANC's #3, #4, #6, ...

........................................................................
.............................. CYCLE   30 ..............................
........................................................................
   1    -34.4221059 -0.344221E+02  0.822E-03    2.66       0.0  T
   2    -34.4221064 -0.479279E-06  0.390E-03    2.67       6.4  T
   3    -34.4221065 -0.725345E-07  0.215E-03    2.67      11.6  T
   4    -34.4221065 -0.195561E-07  0.436E-04    2.67      57.3  T
   5    -34.4221065 -0.377433E-09  0.147E-04    2.67     170.3  T
   6    -34.4221065 -0.558131E-10  0.400E-05    2.67     625.0  T
     SCC iter.                  ...        0 min,  0.004 sec
     gradient                   ...        0 min,  0.031 sec
 * total energy  :   -34.1512575 Eh     change       -0.3692849E-04 Eh
   gradient norm :     0.0027627 Eh/α   predicted    -0.2469264E-04 ( -33.13%)
   displ. norm   :     0.1903465 α      lambda       -0.5359907E-04
   maximum displ.:     0.1704987 α      in ANC's #3, #4, #1, ...

........................................................................
.............................. CYCLE   31 ..............................
........................................................................
   1    -34.4212680 -0.344213E+02  0.165E-02    2.68       0.0  T
   2    -34.4212704 -0.235408E-05  0.746E-03    2.68       3.4  T
   3    -34.4212707 -0.357332E-06  0.422E-03    2.68       5.9  T
   4    -34.4212708 -0.652775E-07  0.974E-04    2.68      25.7  T
   5    -34.4212708 -0.167707E-08  0.324E-04    2.68      77.2  T
   6    -34.4212708 -0.218343E-09  0.735E-05    2.68     340.2  T
   7    -34.4212708 -0.279670E-10  0.801E-06    2.68    3122.7  T
     SCC iter.                  ...        0 min,  0.005 sec
     gradient                   ...        0 min,  0.018 sec
 * total energy  :   -34.1512902 Eh     change       -0.3269877E-04 Eh
   gradient norm :     0.0040719 Eh/α   predicted    -0.2777113E-04 ( -15.07%)
   displ. norm   :     0.1182163 α      lambda       -0.5417147E-04
   maximum displ.:     0.1042533 α      in ANC's #3, #4, #2, ...

........................................................................
.............................. CYCLE   32 ..............................
........................................................................
   1    -34.4224510 -0.344225E+02  0.123E-02    2.69       0.0  T
   2    -34.4224521 -0.101876E-05  0.517E-03    2.69       4.8  T
   3    -34.4224521 -0.688190E-07  0.284E-03    2.69       8.8  T
   4    -34.4224522 -0.302439E-07  0.787E-04    2.69      31.8  T
   5    -34.4224522 -0.100401E-08  0.210E-04    2.69     118.8  T
   6    -34.4224522 -0.163453E-09  0.655E-05    2.69     381.9  T
   7    -34.4224522 -0.293241E-10  0.180E-05    2.69    1386.1  T
     SCC iter.                  ...        0 min,  0.005 sec
     gradient                   ...        0 min,  0.018 sec
 * total energy  :   -34.1513228 Eh     change       -0.3258331E-04 Eh
   gradient norm :     0.0027710 Eh/α   predicted    -0.2746380E-04 ( -15.71%)
   displ. norm   :     0.1188202 α      lambda       -0.2045919E-04
   maximum displ.:     0.1012334 α      in ANC's #3, #4, #2, ...

........................................................................
.............................. CYCLE   33 ..............................
........................................................................
   1    -34.4220848 -0.344221E+02  0.114E-02    2.70       0.0  T
   2    -34.4220864 -0.165155E-05  0.522E-03    2.70       4.8  T
   3    -34.4220868 -0.330773E-06  0.230E-03    2.70      10.9  T
   4    -34.4220868 -0.119875E-07  0.712E-04    2.70      35.1  T
   5    -34.4220868 -0.403659E-09  0.223E-04    2.70     112.3  T
   6    -34.4220868 -0.143110E-09  0.574E-05    2.70     435.7  T
   7    -34.4220868 -0.189715E-10  0.170E-05    2.70    1470.1  T
     SCC iter.                  ...        0 min,  0.005 sec
     gradient                   ...        0 min,  0.018 sec
 * total energy  :   -34.1513377 Eh     change       -0.1495938E-04 Eh
   gradient norm :     0.0023234 Eh/α   predicted    -0.1037465E-04 ( -30.65%)
   displ. norm   :     0.1309170 α      lambda       -0.3367852E-04
   maximum displ.:     0.0953059 α      in ANC's #3, #2, #4, ...

........................................................................
.............................. CYCLE   34 ..............................
........................................................................
   1    -34.4225204 -0.344225E+02  0.139E-02    2.71       0.0  T
   2    -34.4225236 -0.314784E-05  0.748E-03    2.71       3.3  T
   3    -34.4225243 -0.707651E-06  0.265E-03    2.71       9.4  T
   4    -34.4225243 -0.406195E-08  0.106E-03    2.71      23.6  T
   5    -34.4225243 -0.523961E-09  0.288E-04    2.71      86.7  T
   6    -34.4225243 -0.451685E-09  0.609E-05    2.71     410.4  T
   7    -34.4225243 -0.240377E-10  0.206E-05    2.71    1212.0  T
     SCC iter.                  ...        0 min,  0.005 sec
     gradient                   ...        0 min,  0.018 sec
 * total energy  :   -34.1513580 Eh     change       -0.2030948E-04 Eh
   gradient norm :     0.0027099 Eh/α   predicted    -0.1712904E-04 ( -15.66%)
   displ. norm   :     0.0710485 α      lambda       -0.1451517E-04
   maximum displ.:     0.0451490 α      in ANC's #3, #4, #2, ...

........................................................................
.............................. CYCLE   35 ..............................
........................................................................
   1    -34.4225667 -0.344226E+02  0.366E-03    2.71       0.0  T
   2    -34.4225670 -0.238379E-06  0.260E-03    2.71       9.6  T
   3    -34.4225670 -0.542701E-07  0.118E-03    2.71      21.3  T
   4    -34.4225670 -0.430710E-09  0.263E-04    2.71      95.2  T
   5    -34.4225670 -0.155303E-09  0.690E-05    2.71     362.1  T
   6    -34.4225670 -0.549392E-10  0.182E-05    2.71    1371.9  T
     SCC iter.                  ...        0 min,  0.004 sec
     gradient                   ...        0 min,  0.018 sec
 * total energy  :   -34.1513703 Eh     change       -0.1229376E-04 Eh
   gradient norm :     0.0027073 Eh/α   predicted    -0.7293571E-05 ( -40.67%)
   displ. norm   :     0.1475161 α      lambda       -0.4233838E-04
   maximum displ.:     0.0872607 α      in ANC's #4, #3, #2, ...

........................................................................
.............................. CYCLE   36 ..............................
........................................................................
   1    -34.4229321 -0.344229E+02  0.963E-03    2.72       0.0  T
   2    -34.4229330 -0.861948E-06  0.480E-03    2.72       5.2  T
   3    -34.4229330 -0.630201E-07  0.225E-03    2.72      11.1  T
   4    -34.4229330 -0.910764E-08  0.747E-04    2.72      33.5  T
   5    -34.4229330 -0.168652E-08  0.188E-04    2.72     133.0  T
   6    -34.4229330 -0.806608E-10  0.599E-05    2.72     417.6  T
     SCC iter.                  ...        0 min,  0.004 sec
     gradient                   ...        0 min,  0.018 sec
 * total energy  :   -34.1513959 Eh     change       -0.2553713E-04 Eh
   gradient norm :     0.0022022 Eh/α   predicted    -0.2163041E-04 ( -15.30%)
   displ. norm   :     0.1829272 α      lambda       -0.2516050E-04
   maximum displ.:     0.1201223 α      in ANC's #3, #4, #7, ...

........................................................................
.............................. CYCLE   37 ..............................
........................................................................
   1    -34.4209328 -0.344209E+02  0.110E-02    2.72       0.0  T
   2    -34.4209329 -0.148612E-06  0.594E-03    2.72       4.2  T
   3    -34.4209329  0.136709E-07  0.200E-03    2.72      12.5  T
   4    -34.4209329 -0.348762E-07  0.512E-04    2.72      48.8  T
   5    -34.4209329 -0.748884E-09  0.857E-05    2.72     291.6  T
   6    -34.4209329 -0.695266E-10  0.257E-05    2.72     972.7  T
     SCC iter.                  ...        0 min,  0.004 sec
     gradient                   ...        0 min,  0.018 sec
 * total energy  :   -34.1513736 Eh     change        0.2223105E-04 Eh
   gradient norm :     0.0055974 Eh/α   predicted    -0.1300113E-04 (-158.48%)
   displ. norm   :     0.1117954 α      lambda       -0.9248323E-04
   maximum displ.:     0.0928901 α      in ANC's #3, #2, #4, ...

........................................................................
.............................. CYCLE   38 ..............................
........................................................................
   1    -34.4226501 -0.344227E+02  0.154E-02    2.71       0.0  T
   2    -34.4226521 -0.196263E-05  0.827E-03    2.71       3.0  T
   3    -34.4226525 -0.419172E-06  0.430E-03    2.71       5.8  T
   4    -34.4226525 -0.334104E-07  0.884E-04    2.71      28.3  T
   5    -34.4226525 -0.109506E-08  0.271E-04    2.71      92.1  T
   6    -34.4226525 -0.327184E-09  0.862E-05    2.71     290.2  T
   7    -34.4226525 -0.489280E-10  0.138E-05    2.71    1806.8  T
     SCC iter.                  ...        0 min,  0.005 sec
     gradient                   ...        0 min,  0.018 sec
 * total energy  :   -34.1514173 Eh     change       -0.4367133E-04 Eh
   gradient norm :     0.0019352 Eh/α   predicted    -0.4681854E-04 (   7.21%)
   displ. norm   :     0.0498257 α      lambda       -0.1157344E-04
   maximum displ.:     0.0263121 α      in ANC's #4, #5, #7, ...

........................................................................
.............................. CYCLE   39 ..............................
........................................................................
   1    -34.4227623 -0.344228E+02  0.702E-03    2.71       0.0  T
   2    -34.4227630 -0.694796E-06  0.397E-03    2.71       6.3  T
   3    -34.4227632 -0.154264E-06  0.169E-03    2.71      14.8  T
   4    -34.4227632 -0.101839E-08  0.478E-04    2.71      52.3  T
   5    -34.4227632 -0.289589E-09  0.126E-04    2.71     199.1  T
   6    -34.4227632 -0.104514E-09  0.338E-05    2.71     740.2  T
     SCC iter.                  ...        0 min,  0.004 sec
     gradient                   ...        0 min,  0.018 sec
 * total energy  :   -34.1514309 Eh     change       -0.1356235E-04 Eh
   gradient norm :     0.0013116 Eh/α   predicted    -0.5793167E-05 ( -57.28%)
   displ. norm   :     0.1798845 α      lambda       -0.2684556E-04
   maximum displ.:     0.0965163 α      in ANC's #4, #5, #7, ...

........................................................................
.............................. CYCLE   40 ..............................
........................................................................
   1    -34.4220294 -0.344220E+02  0.212E-02    2.69       0.0  T
   2    -34.4220355 -0.605502E-05  0.116E-02    2.68       2.1  T
   3    -34.4220369 -0.143650E-05  0.478E-03    2.68       5.2  T
   4    -34.4220369 -0.122572E-07  0.133E-03    2.68      18.8  T
   5    -34.4220369 -0.217021E-08  0.372E-04    2.68      67.2  T
   6    -34.4220369 -0.789377E-09  0.990E-05    2.68     252.5  T
   7    -34.4220369 -0.579590E-10  0.265E-05    2.68     943.5  T
     SCC iter.                  ...        0 min,  0.005 sec
     gradient                   ...        0 min,  0.019 sec
 * total energy  :   -34.1514501 Eh     change       -0.1922973E-04 Eh
   gradient norm :     0.0029593 Eh/α   predicted    -0.1361728E-04 ( -29.19%)
   displ. norm   :     0.0342084 α      lambda       -0.1046164E-04
   maximum displ.:     0.0180482 α      in ANC's #4, #5, #6, ...

........................................................................
.............................. CYCLE   41 ..............................
........................................................................
   1    -34.4223410 -0.344223E+02  0.455E-03    2.68       0.0  T
   2    -34.4223411 -0.180727E-06  0.259E-03    2.68       9.7  T
   3    -34.4223412 -0.416314E-07  0.135E-03    2.68      18.5  T
   4    -34.4223412 -0.192115E-08  0.238E-04    2.68     105.2  T
   5    -34.4223412 -0.247638E-09  0.680E-05    2.68     367.9  T
   6    -34.4223412 -0.140190E-10  0.147E-05    2.68    1695.1  T
     SCC iter.                  ...        0 min,  0.014 sec
     gradient                   ...        0 min,  0.009 sec
 * total energy  :   -34.1514582 Eh     change       -0.8137107E-05 Eh
   gradient norm :     0.0017505 Eh/α   predicted    -0.5237121E-05 ( -35.64%)
   displ. norm   :     0.1302421 α      lambda       -0.1219976E-04
   maximum displ.:     0.0749963 α      in ANC's #4, #5, #6, ...

........................................................................
.............................. CYCLE   42 ..............................
........................................................................
   1    -34.4225329 -0.344225E+02  0.129E-02    2.67       0.0  T
   2    -34.4225347 -0.178954E-05  0.724E-03    2.67       3.5  T
   3    -34.4225351 -0.403454E-06  0.360E-03    2.67       7.0  T
   4    -34.4225351 -0.103196E-07  0.776E-04    2.67      32.2  T
   5    -34.4225351 -0.193022E-08  0.205E-04    2.67     121.9  T
   6    -34.4225351 -0.128622E-09  0.455E-05    2.67     549.6  T
   7    -34.4225351 -0.107434E-10  0.153E-05    2.67    1628.8  T
     SCC iter.                  ...        0 min,  0.003 sec
     gradient                   ...        0 min,  0.009 sec
 * total energy  :   -34.1514652 Eh     change       -0.6916557E-05 Eh
   gradient norm :     0.0014513 Eh/α   predicted    -0.6147435E-05 ( -11.12%)
   displ. norm   :     0.0367430 α      lambda       -0.4015096E-05
   maximum displ.:     0.0234291 α      in ANC's #4, #7, #5, ...
 * RMSD in coord.:     0.4554635 α      energy gain  -0.7833662E-03 Eh

generating ANC from model Hessian ...
Using Lindh-Hessian (1995)
 Shifting diagonal of input Hessian by   6.745225399744594E-003
 Lowest  eigenvalues of input Hessian
    0.000000    0.000000    0.000000    0.000000    0.000000    0.000000
    0.010000    0.011522    0.013376    0.015893    0.017524    0.020345
    0.032496    0.043332    0.046393    0.059495    0.066997    0.077199
 Highest eigenvalues
    1.329486    1.481700    1.685321    1.839665    2.106487    2.301178
 

........................................................................
.............................. CYCLE   43 ..............................
........................................................................
   1    -34.4232410 -0.344232E+02  0.584E-03    2.67       0.0  T
   2    -34.4232412 -0.263430E-06  0.265E-03    2.67       9.4  T
   3    -34.4232413 -0.371160E-07  0.140E-03    2.67      17.8  T
   4    -34.4232413 -0.553949E-08  0.323E-04    2.67      77.3  T
   5    -34.4232413 -0.261643E-09  0.103E-04    2.67     242.4  T
   6    -34.4232413 -0.452260E-10  0.289E-05    2.67     866.1  T
     SCC iter.                  ...        0 min,  0.003 sec
     gradient                   ...        0 min,  0.009 sec
 * total energy  :   -34.1514656 Eh     change       -0.4637586E-06 Eh
   gradient norm :     0.0010498 Eh/α   predicted     0.0000000E+00 (-100.00%)
   displ. norm   :     0.0086249 α      lambda       -0.2561910E-05
   maximum displ.:     0.0052040 α      in ANC's #3, #1, #6, ...

........................................................................
.............................. CYCLE   44 ..............................
........................................................................
   1    -34.4227866 -0.344228E+02  0.252E-03    2.67       0.0  T
   2    -34.4227866 -0.125265E-07  0.129E-03    2.67      19.5  T
   3    -34.4227866 -0.581721E-09  0.388E-04    2.67      64.4  T
   4    -34.4227866 -0.382677E-09  0.112E-04    2.67     224.0  T
   5    -34.4227866 -0.431370E-10  0.370E-05    2.67     676.3  T
     SCC iter.                  ...        0 min,  0.002 sec
     gradient                   ...        0 min,  0.009 sec
 * total energy  :   -34.1514675 Eh     change       -0.1860550E-05 Eh
   gradient norm :     0.0003282 Eh/α   predicted    -0.1279524E-05 ( -31.23%)
   displ. norm   :     0.0072445 α      lambda       -0.4411388E-06
   maximum displ.:     0.0058191 α      in ANC's #3, #6, #1, ...

   *** GEOMETRY OPTIMIZATION CONVERGED AFTER 44 ITERATIONS ***

------------------------------------------------------------------------
 total energy gain   :        -0.0231125 Eh      -14.5033 kcal/mol
 total RMSD          :         1.1327858 a0        0.5994 Å
 total power (kW/mol):        -1.3791314 (step)  -41.0401 (real)
------------------------------------------------------------------------

 ANCopt (total)                0 d,  0 h,  0 min,  1.479 sec
 optimizer setup                ...        0 min,  0.001 sec (  0.060%)
 model hessian                  ...        0 min,  0.008 sec (  0.566%)
 ANC generation                 ...        0 min,  0.001 sec (  0.074%)
 coordinate transformation      ...        0 min,  0.001 sec (  0.035%)
 single point calculation       ...        0 min,  1.440 sec ( 97.381%)
 optimization log               ...        0 min,  0.018 sec (  1.236%)
 hessian update                 ...        0 min,  0.001 sec (  0.036%)
 rational function              ...        0 min,  0.006 sec (  0.395%)

================
 final structure:
================
16
 xtb: 6.5.1 (579679a)
C            2.71493904185738       -0.35047935365596        0.01299075459652
C            1.24638896619671       -0.18089475441281       -0.15549600197808
N            0.44524432938356       -1.09581610453213       -0.54228784874341
N           -0.86638574103901       -0.51724890732668       -0.59105676382575
C           -1.73991704210600       -1.29483278697347        0.30050177991375
C           -0.66892758790039        0.85786173022463       -0.13524904187333
C           -1.57831887917801        1.82701209288418       -0.31003089981604
O           -2.78081209313949        1.82470477581953       -0.58070568990858
Cl          -0.84499993822122        3.53463176932844        0.19085715372688
O            0.71048777654357        1.02009493634943        0.11567600616917
H            3.00702229758827       -0.06848507350148        1.02406611062281
H            2.98814320063487       -1.38695083800687       -0.16906295326383
H            3.25018991058657        0.29271938689381       -0.68561794470050
H           -2.73893421963206       -0.86304907970574        0.25136347410217
H           -1.76652681588289       -2.32210842316864       -0.05878146183184
H           -1.37759120569187       -1.27715737021634        1.33283432681002
 
 Bond Distances (Angstroems)
 ---------------------------
C1-C2=1.4879         C1-H11=1.0895        C1-H12=1.0872        C1-H13=1.0901        C2-C1=1.4879         C2-N3=1.2761         
C2-O10=1.3428        N3-C2=1.2761         N3-N4=1.4344         N4-N3=1.4344         N4-C5=1.4706         N4-C6=1.4621         
C5-N4=1.4706         C5-H14=1.0894        C5-H15=1.0886        C5-H16=1.0942        C6-N4=1.4621         C6-C7=1.3404         
C6-O10=1.4114        C7-C6=1.3404         C7-O8=1.2326         C7-Cl9=1.9247        O8-C7=1.2326         Cl9-C7=1.9247        
O10-C2=1.3428        O10-C6=1.4114        H11-C1=1.0895        H12-C1=1.0872        H13-C1=1.0901        H14-C5=1.0894        
H15-C5=1.0886        H16-C5=1.0942        
 C  H  Rav=1.0899 sigma=0.0022  Rmin=1.0872  Rmax=1.0942     6
 C  C  Rav=1.4142 sigma=0.0737  Rmin=1.3404  Rmax=1.4879     2
 N  C  Rav=1.4029 sigma=0.0897  Rmin=1.2761  Rmax=1.4706     3
 N  N  Rav=1.4344 sigma=0.0000  Rmin=1.4344  Rmax=1.4344     1
 O  C  Rav=1.3289 sigma=0.0737  Rmin=1.2326  Rmax=1.4114     3
 Cl C  Rav=1.9247 sigma=0.0000  Rmin=1.9247  Rmax=1.9247     1
 
 selected bond angles (degree)
 --------------------
H11-C1-C2=109.89               H12-C1-C2=109.74               H12-C1-H11=109.56              H13-C1-C2=110.17               
H13-C1-H11=108.08              H13-C1-H12=109.38              N3-C2-C1=124.91                O10-C2-C1=118.23               
O10-C2-N3=116.87               N4-N3-C2=107.17                C5-N4-N3=108.02                C6-N4-N3=104.20                
C6-N4-C5=112.86                H14-C5-N4=107.93               H15-C5-N4=108.26               H15-C5-H14=109.68              
H16-C5-N4=111.52               H16-C5-H14=109.86              H16-C5-H15=109.55              C7-C6-N4=123.21                
O10-C6-N4=107.19               O10-C6-C7=127.09               O8-C7-C6=133.56                Cl9-C7-C6=110.43               
Cl9-C7-O8=115.50               C6-O10-C2=104.56               
 
 selected dihedral angles (degree)
 ---------------------------------
N3-C2-C1-H11=235.17           N3-C2-C1-H12=355.70           N3-C2-C1-H13=116.19           O10-C2-C1-H11= 55.20          
O10-C2-C1-H12=175.74          O10-C2-C1-H13=296.22          N4-N3-C2-C1=180.93            N4-N3-C2-O10=  0.89           
C5-N4-N3-C2=238.34            C6-N4-N3-C2=358.58            H14-C5-N4-N3=180.80           H14-C5-N4-C6= 66.15           
H15-C5-N4-N3=299.45           H15-C5-N4-C6=184.80           H16-C5-N4-N3= 60.04           H16-C5-N4-C6=305.40           
C7-C6-N4-N3=164.63            C7-C6-N4-C5=281.56            O10-C6-N4-N3=  1.47           O10-C6-N4-C5=118.40           
O8-C7-C6-N4= 17.11            O8-C7-C6-O10=176.80           Cl9-C7-C6-N4=188.30           Cl9-C7-C6-O10=347.99          
C6-O10-C2-C1=180.05           C6-O10-C2-N3=  0.08           C2-O10-C6-N4=359.00           C2-O10-C6-C7=196.70           
           -------------------------------------------------
          |                Final Singlepoint                |
           -------------------------------------------------

          ...................................................
          :                      SETUP                      :
          :.................................................:
          :  # basis functions                  58          :
          :  # atomic orbitals                  57          :
          :  # shells                           33          :
          :  # electrons                        56          :
          :  # halogen bonds                     4          :
          :  max. iterations                   250          :
          :  Hamiltonian                  GFN1-xTB          :
          :  restarted?                      false          :
          :  GBSA solvation                   true          :
          :  PC potential                    false          :
          :  electronic temp.          300.0000000     K    :
          :  accuracy                    1.0000000          :
          :  -> integral cutoff          0.2500000E+02      :
          :  -> integral neglect         0.1000000E-07      :
          :  -> SCF convergence          0.1000000E-05 Eh   :
          :  -> wf. convergence          0.2000000E-04 e    :
          :  Broyden damping             0.4000000          :
          ...................................................

 iter      E             dE          RMSdq      gap      omega  full diag
   1    -34.4227866 -0.344228E+02  0.663E-06    2.67       0.0  T
   2    -34.4227866 -0.241585E-12  0.240E-06    2.67   10400.9  T
   3    -34.4227866 -0.426326E-13  0.138E-06    2.67   18146.0  T

   *** convergence criteria satisfied after 3 iterations ***

         #    Occupation            Energy/Eh            Energy/eV
      -------------------------------------------------------------
         1        2.0000           -0.8442328             -22.9727
       ...           ...                  ...                  ...
        22        2.0000           -0.4409215             -11.9981
        23        2.0000           -0.4398237             -11.9682
        24        2.0000           -0.4367284             -11.8840
        25        2.0000           -0.4277502             -11.6397
        26        2.0000           -0.4118038             -11.2058
        27        2.0000           -0.4039396             -10.9918
        28        2.0000           -0.3199233              -8.7056 (HOMO)
        29                         -0.2216570              -6.0316 (LUMO)
        30                         -0.1787725              -4.8646
        31                         -0.1555545              -4.2329
        32                         -0.1274841              -3.4690
        33                         -0.1011849              -2.7534
       ...                                ...                  ...
        57                          0.7896957              21.4887
      -------------------------------------------------------------
                  HL-Gap            0.0982663 Eh            2.6740 eV
             Fermi-level           -0.2707902 Eh           -7.3686 eV

 SCC (total)                   0 d,  0 h,  0 min,  0.016 sec
 SCC setup                      ...        0 min,  0.000 sec (  2.138%)
 Dispersion                     ...        0 min,  0.000 sec (  0.253%)
 classical contributions        ...        0 min,  0.000 sec (  0.113%)
 integral evaluation            ...        0 min,  0.005 sec ( 29.436%)
 iterations                     ...        0 min,  0.001 sec (  8.949%)
 molecular gradient             ...        0 min,  0.009 sec ( 58.267%)
 printout                       ...        0 min,  0.000 sec (  0.693%)

         :::::::::::::::::::::::::::::::::::::::::::::::::::::
         ::                     SUMMARY                     ::
         :::::::::::::::::::::::::::::::::::::::::::::::::::::
         :: total energy             -34.151467489295 Eh    ::
         :: total w/o Gsasa/hb       -34.142995871459 Eh    ::
         :: gradient norm              0.000330802551 Eh/a0 ::
         :: HOMO-LUMO gap              2.673961991056 eV    ::
         ::.................................................::
         :: SCC energy               -34.422786636635 Eh    ::
         :: -> electrostatic           0.216235213184 Eh    ::
         :: -> Gsolv                  -0.094266877008 Eh    ::
         ::    -> Gelec               -0.085795259172 Eh    ::
         ::    -> Gsasa               -0.015314253544 Eh    ::
         ::    -> Ghb                 -0.000781643298 Eh    ::
         ::    -> Gshift               0.007624279005 Eh    ::
         :: repulsion energy           0.278746515705 Eh    ::
         :: dispersion energy         -0.007427368366 Eh    ::
         :: halogen bond corr.         0.000000000000 Eh    ::
         :: add. restraining           0.000000000000 Eh    ::
         :: total charge              -1.000000000000 e     ::
         :::::::::::::::::::::::::::::::::::::::::::::::::::::

           -------------------------------------------------
          |                Property Printout                |
           -------------------------------------------------

    * Orbital Energies and Occupations

         #    Occupation            Energy/Eh            Energy/eV
      -------------------------------------------------------------
         1        2.0000           -0.8442328             -22.9727
       ...           ...                  ...                  ...
        16        2.0000           -0.5186279             -14.1126
        17        2.0000           -0.5142393             -13.9932
        18        2.0000           -0.5112512             -13.9119
        19        2.0000           -0.4996007             -13.5948
        20        2.0000           -0.4952384             -13.4761
        21        2.0000           -0.4773980             -12.9907
        22        2.0000           -0.4409215             -11.9981
        23        2.0000           -0.4398237             -11.9682
        24        2.0000           -0.4367284             -11.8840
        25        2.0000           -0.4277502             -11.6397
        26        2.0000           -0.4118038             -11.2058
        27        2.0000           -0.4039396             -10.9918
        28        2.0000           -0.3199233              -8.7056 (HOMO)
        29                         -0.2216570              -6.0316 (LUMO)
        30                         -0.1787725              -4.8646
        31                         -0.1555545              -4.2329
        32                         -0.1274841              -3.4690
        33                         -0.1011849              -2.7534
        34                         -0.0608439              -1.6556
        35                         -0.0599130              -1.6303
        36                         -0.0489076              -1.3308
        37                         -0.0445745              -1.2129
        38                         -0.0089934              -0.2447
        39                          0.0217002               0.5905
       ...                                ...                  ...
        57                          0.7896957              21.4887
      -------------------------------------------------------------
                  HL-Gap            0.0982663 Eh            2.6740 eV
             Fermi-level           -0.2707902 Eh           -7.3686 eV

  Mulliken/CM5 charges         n(s)   n(p)   n(d)
     1C    -0.11101 -0.24792   1.009  3.102  0.000
     2C     0.39225  0.50397   0.991  2.617  0.000
     3N    -0.35406 -0.47750   1.583  3.772  0.000
     4N    -0.20969 -0.37471   1.521  3.688  0.000
     5C     0.05150 -0.03094   0.989  2.959  0.000
     6C     0.16238  0.24715   0.984  2.854  0.000
     7C     0.35949  0.39988   1.012  2.629  0.000
     8O    -0.64720 -0.68793   1.743  4.904  0.000
     9Cl   -0.45031 -0.44600   1.974  5.481 -0.005
    10O    -0.41842 -0.47011   1.703  4.715  0.000
    11H     0.05858  0.11337   0.941  0.000  0.000
    12H     0.04866  0.10485   0.951  0.000  0.000
    13H     0.05725  0.11171   0.943  0.000  0.000
    14H     0.02612  0.09069   0.974  0.000  0.000
    15H     0.01952  0.08448   0.980  0.000  0.000
    16H     0.01494  0.07899   0.985  0.000  0.000

Wiberg/Mayer (AO) data.
largest (>0.10) Wiberg bond orders for each atom

 ---------------------------------------------------------------------------
     #   Z sym  total        # sym  WBO       # sym  WBO       # sym  WBO
 ---------------------------------------------------------------------------
     1   6 C    3.994 --     2 C    1.018    12 H    0.986    11 H    0.972
                            13 H    0.970
     2   6 C    3.902 --     3 N    1.722    10 O    1.070     1 C    1.018
     3   7 N    2.956 --     2 C    1.722     4 N    0.992    10 O    0.124
     4   7 N    3.081 --     3 N    0.992     5 C    0.962     6 C    0.949
     5   6 C    3.975 --    15 H    0.989    14 H    0.987    16 H    0.984
                             4 N    0.962
     6   6 C    3.739 --     7 C    1.599     4 N    0.949    10 O    0.906
                             8 O    0.188
     7   6 C    3.885 --     6 C    1.599     8 O    1.518     9 Cl   0.645
     8   8 O    1.877 --     7 C    1.518     6 C    0.188     9 Cl   0.115
     9  17 Cl   0.812 --     7 C    0.645     8 O    0.115
    10   8 O    2.195 --     2 C    1.070     6 C    0.906     3 N    0.124
    11   1 H    1.002 --     1 C    0.972
    12   1 H    1.004 --     1 C    0.986
    13   1 H    1.002 --     1 C    0.970
    14   1 H    1.022 --     5 C    0.987
    15   1 H    1.021 --     5 C    0.989
    16   1 H    1.015 --     5 C    0.984
 ---------------------------------------------------------------------------

Topologies differ in total number of bonds
Writing topology from bond orders to xtbtopo.mol

 dipole moment from electron density (au)
     X       Y       Z   
   3.5634  -3.8354   1.1059  total (Debye):   13.600

           -------------------------------------------------
          |                Geometry Summary                 |
           -------------------------------------------------

      molecular mass/u    :      161.5664778
   center of mass at/Å    :       -0.4078928       0.9462235      -0.1132067
  moments of inertia/u·Å² :        0.2891547E+03   0.5812998E+03   0.8361829E+03
rotational constants/cm⁻¹ :        0.5829970E-01   0.2899990E-01   0.2016022E-01

 * 12 selected distances

     #   Z          #   Z                                           value/Å
     1   6 C        2   6 C                                       1.4878799 (max)
     2   6 C        3   7 N                                       1.2761356
     4   7 N        5   6 C                                       1.4705681
     6   6 C        7   6 C                                       1.3404454
     7   6 C        8   8 O                                       1.2325828
     2   6 C       10   8 O                                       1.3427959
     1   6 C       11   1 H                                       1.0895444
     1   6 C       12   1 H                                       1.0872246 (min)
     1   6 C       13   1 H                                       1.0900699
     5   6 C       14   1 H                                       1.0894436
     5   6 C       15   1 H                                       1.0886175
     5   6 C       16   1 H                                       1.0942135

 * 4 distinct bonds (by element types)

   Z      Z             #   av. dist./Å        max./Å        min./Å
   1 H    6 C           6     1.0898522     1.0942135     1.0872246
   6 C    6 C           2     1.4141626     1.4878799     1.3404454
   6 C    7 N           2     1.3733519     1.4705681     1.2761356
   6 C    8 O           2     1.2876894     1.3427959     1.2325828


optimized geometry written to: xtbopt.xyz


           -------------------------------------------------
          | TOTAL ENERGY              -34.151467489295 Eh   |
          | GRADIENT NORM               0.000330802551 Eh/α |
          | HOMO-LUMO GAP               2.673961991056 eV   |
           -------------------------------------------------

------------------------------------------------------------------------
 * finished run on 2023/06/20 at 14:53:33.323     
------------------------------------------------------------------------
 total:
 * wall-time:     0 d,  0 h,  0 min,  1.585 sec
 *  cpu-time:     0 d,  0 h,  0 min,  1.387 sec
 * ratio c/w:     0.875 speedup
 SCF:
 * wall-time:     0 d,  0 h,  0 min,  0.037 sec
 *  cpu-time:     0 d,  0 h,  0 min,  0.037 sec
 * ratio c/w:     0.988 speedup
 ANC optimizer:
 * wall-time:     0 d,  0 h,  0 min,  1.498 sec
 *  cpu-time:     0 d,  0 h,  0 min,  1.332 sec
 * ratio c/w:     0.889 speedup

