16
 energy: -34.151467489295 gnorm: 0.000330802551 xtb: 6.5.1 (579679a)
C            2.71493904185738       -0.35047935365596        0.01299075459652
C            1.24638896619671       -0.18089475441281       -0.15549600197808
N            0.44524432938356       -1.09581610453213       -0.54228784874341
N           -0.86638574103901       -0.51724890732668       -0.59105676382575
C           -1.73991704210600       -1.29483278697347        0.30050177991375
C           -0.66892758790039        0.85786173022463       -0.13524904187333
C           -1.57831887917801        1.82701209288418       -0.31003089981604
O           -2.78081209313949        1.82470477581953       -0.58070568990858
Cl          -0.84499993822122        3.53463176932844        0.19085715372688
O            0.71048777654357        1.02009493634943        0.11567600616917
H            3.00702229758827       -0.06848507350148        1.02406611062281
H            2.98814320063487       -1.38695083800687       -0.16906295326383
H            3.25018991058657        0.29271938689381       -0.68561794470050
H           -2.73893421963206       -0.86304907970574        0.25136347410217
H           -1.76652681588289       -2.32210842316864       -0.05878146183184
H           -1.37759120569187       -1.27715737021634        1.33283432681002
