      -----------------------------------------------------------      
     |                   =====================                   |     
     |                           x T B                           |     
     |                   =====================                   |     
     |                         S. Grimme                         |     
     |          Mulliken Center for Theoretical Chemistry        |     
     |                    University of Bonn                     |     
      -----------------------------------------------------------      

   * xtb version 6.5.1 (579679a) compiled by 'ehlert@majestix' on 2022-07-11

   xtb is free software: you can redistribute it and/or modify it under
   the terms of the GNU Lesser General Public License as published by
   the Free Software Foundation, either version 3 of the License, or
   (at your option) any later version.
   
   xtb is distributed in the hope that it will be useful,
   but WITHOUT ANY WARRANTY; without even the implied warranty of
   MERCHANTABILITY or FITNESS FOR A PARTICULAR PURPOSE.  See the
   GNU Lesser General Public License for more details.
   
   Cite this work as:
   * C. Bannwarth, E. Caldeweyher, S. Ehlert, A. Hansen, P. Pracht,
     J. Seibert, S. Spicher, S. Grimme, WIREs Comput. Mol. Sci., 2020, 11,
     e01493. DOI: 10.1002/wcms.1493
   
   for GFN2-xTB:
   * C. Bannwarth, S. Ehlert and S. Grimme., J. Chem. Theory Comput., 2019,
     15, 1652-1671. DOI: 10.1021/acs.jctc.8b01176
   for GFN1-xTB:
   * S. Grimme, C. Bannwarth, P. Shushkov, J. Chem. Theory Comput., 2017,
     13, 1989-2009. DOI: 10.1021/acs.jctc.7b00118
   for GFN0-xTB:
   * P. Pracht, E. Caldeweyher, S. Ehlert, S. Grimme, ChemRxiv, 2019, preprint.
     DOI: 10.26434/chemrxiv.8326202.v1
   for GFN-FF:
   * S. Spicher and S. Grimme, Angew. Chem. Int. Ed., 2020, 59, 15665-15673.
     DOI: 10.1002/anie.202004239
   
   for ALPB and GBSA implicit solvation:
   * S. Ehlert, M. Stahn, S. Spicher, S. Grimme, J. Chem. Theory Comput.,
     2021, 17, 4250-4261. DOI: 10.1021/acs.jctc.1c00471
   
   for DFT-D4:
   * E. Caldeweyher, C. Bannwarth and S. Grimme, J. Chem. Phys., 2017,
     147, 034112. DOI: 10.1063/1.4993215
   * E. Caldeweyher, S. Ehlert, A. Hansen, H. Neugebauer, S. Spicher,
     C. Bannwarth and S. Grimme, J. Chem. Phys., 2019, 150, 154122.
     DOI: 10.1063/1.5090222
   * E. Caldeweyher, J.-M. Mewes, S. Ehlert and S. Grimme, Phys. Chem. Chem. Phys.
     2020, 22, 8499-8512. DOI: 10.1039/D0CP00502A
   
   for sTDA-xTB:
   * S. Grimme and C. Bannwarth, J. Chem. Phys., 2016, 145, 054103.
     DOI: 10.1063/1.4959605
   
   in the mass-spec context:
   * V. Asgeirsson, C. Bauer and S. Grimme, Chem. Sci., 2017, 8, 4879.
     DOI: 10.1039/c7sc00601b
   * J. Koopman and S. Grimme, ACS Omega 2019, 4, 12, 15120-15133.
     DOI: 10.1021/acsomega.9b02011
   
   for metadynamics refer to:
   * S. Grimme, J. Chem. Theory Comput., 2019, 155, 2847-2862
     DOI: 10.1021/acs.jctc.9b00143
   
   for SPH calculations refer to:
   * S. Spicher and S. Grimme, J. Chem. Theory Comput., 2021, 17, 1701-1714
     DOI: 10.1021/acs.jctc.0c01306
   
   with help from (in alphabetical order)
   P. Atkinson, C. Bannwarth, F. Bohle, G. Brandenburg, E. Caldeweyher
   M. Checinski, S. Dohm, S. Ehlert, S. Ehrlich, I. Gerasimov, C. Hölzer
   A. Katbashev, J. Koopman, C. Lavigne, S. Lehtola, F. März, M. Müller,
   F. Musil, H. Neugebauer, J. Pisarek, C. Plett, P. Pracht, F. Pultar,
   J. Seibert, P. Shushkov, S. Spicher, M. Stahn, M. Steiner, T. Strunk,
   J. Stückrath, T. Rose, and J. Unsleber
   
 * started run on 2023/06/20 at 14:54:58.638     

           -------------------------------------------------
          |                Calculation Setup                |
           -------------------------------------------------

          program call               : /lustre/hpc/kemi/ree/PhD/git/ReactivityQM/dep/xtb-6.5.1/bin/xtb --gfn 1 /lustre/hpc/kemi/ree/PhD/git/ReactivityQM/calculations/RaltegravirCLI/reac01prodN05/conf02/RaltegravirCLI_reac01prodN05_conf02_gfn1.xyz --opt --vfukui --chrg 1 --uhf 0 --alpb DMSO
          hostname                   : node308
          coordinate file            : /lustre/hpc/kemi/ree/PhD/git/ReactivityQM/calculations/RaltegravirCLI/reac01prodN05/conf02/RaltegravirCLI_reac01prodN05_conf02_gfn1.xyz
          omp threads                :                     1

   ID    Z sym.   atoms
    1    6 C      1, 2, 5-7
    2    7 N      3, 4
    3    8 O      8, 10
    4   17 Cl     9
    5    1 H      11-16

           -------------------------------------------------
          |                 G F N 1 - x T B                 |
           -------------------------------------------------

        Reference                      10.1021/acs.jctc.7b00118
      * Hamiltonian:
        H0-scaling (s, p, d)           1.850000    2.250000    2.000000
        zeta-weighting                 0.000000
      * Dispersion:
        s8                             2.400000
        a1                             0.630000
        a2                             5.000000
        s9                             0.000000
      * Repulsion:
        kExp                           1.500000
        rExp                           1.000000
      * Coulomb:
        alpha                          2.000000
        third order                    atomic
        anisotropic                    false
      * Halogen bond correction:
        rad-scale                      1.300000
        damping                        0.440000

      * Solvation model:               ALPB
        Solvent                        DMSO
        Parameter file                 internal GFN1-xTB/ALPB
        Dielectric constant                4.6680E+01
        Reference state                gsolv [1 M gas/solution]
        Free energy shift                  7.6243E-03 Eh       4.7843E+00 kcal/mol
        Temperature                        2.9815E+02 K
        Density                            1.1000E+00 kg/L
        Solvent mass                       7.8130E+01 g/mol
        Interaction kernel             P16
        Born radius scaling (c1)           1.7672E+00
        Born radii integrator          GBOBC
        Born offset                        0.0000E+00 a0       0.0000E+00 AA
        H-bond correction              true
        Ion screening                  false
        Surface tension                    1.0000E-05 Eh       1.5569E+01 dyn/cm
        Grid points                               230 per atom

          ...................................................
          :                      SETUP                      :
          :.................................................:
          :  # basis functions                  58          :
          :  # atomic orbitals                  57          :
          :  # shells                           33          :
          :  # electrons                        54          :
          :  # halogen bonds                     4          :
          :  max. iterations                   250          :
          :  Hamiltonian                  GFN1-xTB          :
          :  restarted?                      false          :
          :  GBSA solvation                   true          :
          :  PC potential                    false          :
          :  electronic temp.          300.0000000     K    :
          :  accuracy                    1.0000000          :
          :  -> integral cutoff          0.2500000E+02      :
          :  -> integral neglect         0.1000000E-07      :
          :  -> SCF convergence          0.1000000E-05 Eh   :
          :  -> wf. convergence          0.2000000E-04 e    :
          :  Broyden damping             0.4000000          :
          ...................................................

 iter      E             dE          RMSdq      gap      omega  full diag
   1    -33.4773882 -0.334774E+02  0.784E+00    2.05       0.0  T
   2    -33.6311569 -0.153769E+00  0.467E+00    1.38       1.0  T
   3    -33.6307070  0.449960E-03  0.202E+00    1.56       1.0  T
   4    -33.6430269 -0.123200E-01  0.164E-01    1.44       1.0  T
   5    -33.6434008 -0.373861E-03  0.464E-02    1.48       1.0  T
   6    -33.6434094 -0.858940E-05  0.181E-02    1.49       1.4  T
   7    -33.6434103 -0.965604E-06  0.383E-03    1.49       6.5  T
   8    -33.6434105 -0.160385E-06  0.126E-03    1.49      19.8  T
   9    -33.6434105 -0.185840E-07  0.321E-04    1.49      77.8  T
  10    -33.6434105 -0.521830E-09  0.976E-05    1.49     256.1  T
  11    -33.6434105 -0.184926E-09  0.260E-05    1.49     962.1  T

   *** convergence criteria satisfied after 11 iterations ***

         #    Occupation            Energy/Eh            Energy/eV
      -------------------------------------------------------------
         1        2.0000           -0.9891538             -26.9162
       ...           ...                  ...                  ...
        21        2.0000           -0.5787369             -15.7482
        22        2.0000           -0.5727661             -15.5858
        23        2.0000           -0.5711749             -15.5425
        24        2.0000           -0.5400995             -14.6969
        25        2.0000           -0.5266515             -14.3309
        26        2.0000           -0.5237170             -14.2511
        27        2.0000           -0.5128027             -13.9541 (HOMO)
        28                         -0.4581611             -12.4672 (LUMO)
        29                         -0.3632244              -9.8838
        30                         -0.3466231              -9.4321
        31                         -0.2548026              -6.9335
        32                         -0.1842635              -5.0141
       ...                                ...                  ...
        57                          0.6177039              16.8086
      -------------------------------------------------------------
                  HL-Gap            0.0546416 Eh            1.4869 eV
             Fermi-level           -0.4854819 Eh          -13.2106 eV

 SCC (total)                   0 d,  0 h,  0 min,  0.037 sec
 SCC setup                      ...        0 min,  0.001 sec (  1.504%)
 Dispersion                     ...        0 min,  0.000 sec (  0.210%)
 classical contributions        ...        0 min,  0.000 sec (  0.103%)
 integral evaluation            ...        0 min,  0.009 sec ( 23.900%)
 iterations                     ...        0 min,  0.009 sec ( 23.632%)
 molecular gradient             ...        0 min,  0.018 sec ( 49.660%)
 printout                       ...        0 min,  0.000 sec (  0.890%)

         :::::::::::::::::::::::::::::::::::::::::::::::::::::
         ::                     SUMMARY                     ::
         :::::::::::::::::::::::::::::::::::::::::::::::::::::
         :: total energy             -33.380221690066 Eh    ::
         :: total w/o Gsasa/hb       -33.370809063250 Eh    ::
         :: gradient norm              0.115453410293 Eh/a0 ::
         :: HOMO-LUMO gap              1.486873845397 eV    ::
         ::.................................................::
         :: SCC energy               -33.643410513355 Eh    ::
         :: -> electrostatic           0.202242269164 Eh    ::
         :: -> Gsolv                  -0.086373197508 Eh    ::
         ::    -> Gelec               -0.076960570692 Eh    ::
         ::    -> Gsasa               -0.014527673366 Eh    ::
         ::    -> Ghb                 -0.002509232455 Eh    ::
         ::    -> Gshift               0.007624279005 Eh    ::
         :: repulsion energy           0.271097761409 Eh    ::
         :: dispersion energy         -0.007908938120 Eh    ::
         :: halogen bond corr.         0.000000000000 Eh    ::
         :: add. restraining           0.000000000000 Eh    ::
         :: total charge               1.000000000000 e     ::
         :::::::::::::::::::::::::::::::::::::::::::::::::::::

      ----------------------------------------------------------- 
     |                   =====================                   |
     |                        A N C O P T                        |
     |                   =====================                   |
     |               Approximate Normal Coordinate               |
     |                Rational Function Optimizer                |
      ----------------------------------------------------------- 

          ...................................................
          :                      SETUP                      :
          :.................................................:
          :   optimization level            normal          :
          :   max. optcycles                   200          :
          :   ANC micro-cycles                  20          :
          :   degrees of freedom                42          :
          :.................................................:
          :   RF solver                   davidson          :
          :   write xtbopt.log                true          :
          :   linear?                        false          :
          :   energy convergence         0.5000000E-05 Eh   :
          :   grad. convergence          0.1000000E-02 Eh/α :
          :   maximium RF displ.         1.0000000          :
          :   Hlow (freq-cutoff)         0.1000000E-01      :
          :   Hmax (freq-cutoff)         5.0000000          :
          :   S6 in model hess.         20.0000000          :
          ...................................................

generating ANC from model Hessian ...
Using Lindh-Hessian (1995)
 Shifting diagonal of input Hessian by   6.462965999103809E-003
 Lowest  eigenvalues of input Hessian
    0.000000    0.000000    0.000000    0.000000    0.000000    0.000000
    0.010000    0.013410    0.015443    0.017715    0.019010    0.023564
    0.031260    0.046030    0.048653    0.054355    0.069945    0.075296
 Highest eigenvalues
    1.431149    1.505550    1.636483    1.894826    2.047460    2.169323
 

........................................................................
.............................. CYCLE    1 ..............................
........................................................................
   1    -33.6434105 -0.336434E+02  0.130E-05    1.49       0.0  T
   2    -33.6434105 -0.186162E-11  0.357E-06    1.49    6999.9  T
   3    -33.6434105 -0.234479E-12  0.222E-06    1.49   11261.1  T
     SCC iter.                  ...        0 min,  0.002 sec
     gradient                   ...        0 min,  0.018 sec
 * total energy  :   -33.3802217 Eh     change       -0.2330580E-11 Eh
   gradient norm :     0.1154533 Eh/α   predicted     0.0000000E+00 (-100.00%)
   displ. norm   :     0.1717626 α      lambda       -0.1106368E-01
   maximum displ.:     0.0910180 α      in ANC's #10, #22, #11, ...

........................................................................
.............................. CYCLE    2 ..............................
........................................................................
   1    -33.6602104 -0.336602E+02  0.125E-01    1.69       0.0  T
   2    -33.6605341 -0.323729E-03  0.438E-02    1.73       1.0  T
   3    -33.6605426 -0.854933E-05  0.250E-02    1.73       1.0  T
   4    -33.6605428 -0.114665E-06  0.886E-03    1.73       2.8  T
   5    -33.6605428 -0.898177E-07  0.160E-03    1.73      15.6  T
   6    -33.6605429 -0.232226E-07  0.414E-04    1.73      60.5  T
   7    -33.6605429 -0.110803E-08  0.169E-04    1.73     148.0  T
   8    -33.6605429 -0.622151E-10  0.407E-05    1.73     614.3  T
     SCC iter.                  ...        0 min,  0.005 sec
     gradient                   ...        0 min,  0.018 sec
 * total energy  :   -33.3884317 Eh     change       -0.8210033E-02 Eh
   gradient norm :     0.0619178 Eh/α   predicted    -0.5695048E-02 ( -30.63%)
   displ. norm   :     0.1683535 α      lambda       -0.5841217E-02
   maximum displ.:     0.0803309 α      in ANC's #10, #22, #37, ...

........................................................................
.............................. CYCLE    3 ..............................
........................................................................
   1    -33.6719694 -0.336720E+02  0.131E-01    1.92       0.0  T
   2    -33.6722952 -0.325807E-03  0.405E-02    1.96       1.0  T
   3    -33.6723027 -0.748046E-05  0.239E-02    1.96       1.0  T
   4    -33.6723030 -0.359208E-06  0.913E-03    1.96       2.7  T
   5    -33.6723031 -0.660084E-07  0.207E-03    1.97      12.1  T
   6    -33.6723031 -0.275664E-07  0.617E-04    1.96      40.5  T
   7    -33.6723031 -0.123432E-08  0.202E-04    1.96     123.6  T
   8    -33.6723031 -0.989360E-10  0.266E-05    1.96     938.8  T
   9    -33.6723031 -0.641620E-11  0.875E-06    1.96    2858.1  T
     SCC iter.                  ...        0 min,  0.006 sec
     gradient                   ...        0 min,  0.018 sec
 * total energy  :   -33.3915223 Eh     change       -0.3090589E-02 Eh
   gradient norm :     0.0188683 Eh/α   predicted    -0.3003388E-02 (  -2.82%)
   displ. norm   :     0.0686295 α      lambda       -0.4572318E-03
   maximum displ.:     0.0348249 α      in ANC's #7, #3, #8, ...

........................................................................
.............................. CYCLE    4 ..............................
........................................................................
   1    -33.6710625 -0.336711E+02  0.350E-02    1.97       0.0  T
   2    -33.6710718 -0.936751E-05  0.120E-02    1.99       2.1  T
   3    -33.6710724 -0.586749E-06  0.558E-03    1.99       4.5  T
   4    -33.6710725 -0.844026E-07  0.249E-03    1.99      10.0  T
   5    -33.6710725 -0.371534E-08  0.735E-04    1.99      34.0  T
   6    -33.6710725 -0.757490E-08  0.171E-04    1.99     146.2  T
   7    -33.6710725 -0.973372E-10  0.803E-05    1.99     311.5  T
     SCC iter.                  ...        0 min,  0.005 sec
     gradient                   ...        0 min,  0.018 sec
 * total energy  :   -33.3918390 Eh     change       -0.3167177E-03 Eh
   gradient norm :     0.0100565 Eh/α   predicted    -0.2296938E-03 ( -27.48%)
   displ. norm   :     0.1109313 α      lambda       -0.3535984E-03
   maximum displ.:     0.0674209 α      in ANC's #3, #7, #4, ...

........................................................................
.............................. CYCLE    5 ..............................
........................................................................
   1    -33.6694382 -0.336694E+02  0.409E-02    1.99       0.0  T
   2    -33.6694526 -0.144040E-04  0.173E-02    2.01       1.4  T
   3    -33.6694541 -0.147842E-05  0.669E-03    2.01       3.7  T
   4    -33.6694544 -0.294750E-06  0.332E-03    2.01       7.5  T
   5    -33.6694544 -0.186214E-07  0.926E-04    2.01      27.0  T
   6    -33.6694544 -0.700204E-08  0.188E-04    2.01     132.8  T
   7    -33.6694544 -0.184031E-09  0.111E-04    2.01     225.1  T
     SCC iter.                  ...        0 min,  0.006 sec
     gradient                   ...        0 min,  0.018 sec
 * total energy  :   -33.3920052 Eh     change       -0.1661271E-03 Eh
   gradient norm :     0.0066130 Eh/α   predicted    -0.1789743E-03 (   7.73%)
   displ. norm   :     0.0491468 α      lambda       -0.7389464E-04
   maximum displ.:     0.0300031 α      in ANC's #1, #7, #3, ...

........................................................................
.............................. CYCLE    6 ..............................
........................................................................
   1    -33.6696295 -0.336696E+02  0.939E-03    2.01       0.0  T
   2    -33.6696306 -0.111171E-05  0.405E-03    2.01       6.2  T
   3    -33.6696308 -0.131515E-06  0.176E-03    2.02      14.2  T
   4    -33.6696308 -0.308754E-07  0.544E-04    2.02      45.9  T
   5    -33.6696308 -0.205802E-09  0.255E-04    2.02      98.1  T
   6    -33.6696308 -0.193928E-09  0.508E-05    2.02     492.3  T
   7    -33.6696308 -0.839151E-11  0.263E-05    2.02     951.6  T
     SCC iter.                  ...        0 min,  0.005 sec
     gradient                   ...        0 min,  0.035 sec
 * total energy  :   -33.3920598 Eh     change       -0.5468385E-04 Eh
   gradient norm :     0.0051342 Eh/α   predicted    -0.3703574E-04 ( -32.27%)
   displ. norm   :     0.0949584 α      lambda       -0.8705159E-04
   maximum displ.:     0.0614355 α      in ANC's #1, #7, #3, ...

........................................................................
.............................. CYCLE    7 ..............................
........................................................................
   1    -33.6700803 -0.336701E+02  0.191E-02    2.01       0.0  T
   2    -33.6700849 -0.454426E-05  0.746E-03    2.02       3.3  T
   3    -33.6700853 -0.406225E-06  0.384E-03    2.02       6.5  T
   4    -33.6700854 -0.973679E-07  0.119E-03    2.02      21.1  T
   5    -33.6700854 -0.417572E-09  0.574E-04    2.02      43.5  T
   6    -33.6700854 -0.148882E-08  0.106E-04    2.02     236.1  T
   7    -33.6700854 -0.504983E-10  0.488E-05    2.02     511.8  T
     SCC iter.                  ...        0 min,  0.005 sec
     gradient                   ...        0 min,  0.034 sec
 * total energy  :   -33.3921212 Eh     change       -0.6134549E-04 Eh
   gradient norm :     0.0029145 Eh/α   predicted    -0.4391758E-04 ( -28.41%)
   displ. norm   :     0.0934485 α      lambda       -0.4622826E-04
   maximum displ.:     0.0602381 α      in ANC's #1, #3, #7, ...

........................................................................
.............................. CYCLE    8 ..............................
........................................................................
   1    -33.6704048 -0.336704E+02  0.166E-02    2.01       0.0  T
   2    -33.6704089 -0.411177E-05  0.681E-03    2.02       3.7  T
   3    -33.6704093 -0.393668E-06  0.337E-03    2.02       7.4  T
   4    -33.6704094 -0.667086E-07  0.101E-03    2.02      24.7  T
   5    -33.6704094 -0.890346E-09  0.456E-04    2.02      54.8  T
   6    -33.6704094 -0.901665E-09  0.957E-05    2.02     261.1  T
   7    -33.6704094 -0.615543E-10  0.432E-05    2.02     579.3  T
     SCC iter.                  ...        0 min,  0.010 sec
     gradient                   ...        0 min,  0.030 sec
 * total energy  :   -33.3921514 Eh     change       -0.3026083E-04 Eh
   gradient norm :     0.0020196 Eh/α   predicted    -0.2331633E-04 ( -22.95%)
   displ. norm   :     0.0477728 α      lambda       -0.1354873E-04
   maximum displ.:     0.0311270 α      in ANC's #1, #2, #3, ...

........................................................................
.............................. CYCLE    9 ..............................
........................................................................
   1    -33.6706923 -0.336707E+02  0.681E-03    2.02       0.0  T
   2    -33.6706933 -0.970951E-06  0.304E-03    2.02       8.2  T
   3    -33.6706934 -0.107630E-06  0.135E-03    2.02      18.5  T
   4    -33.6706934 -0.613333E-08  0.484E-04    2.02      51.7  T
   5    -33.6706934 -0.508585E-09  0.164E-04    2.02     152.2  T
   6    -33.6706934 -0.102631E-09  0.415E-05    2.02     602.8  T
     SCC iter.                  ...        0 min,  0.018 sec
     gradient                   ...        0 min,  0.032 sec
 * total energy  :   -33.3921604 Eh     change       -0.8988874E-05 Eh
   gradient norm :     0.0012661 Eh/α   predicted    -0.6790229E-05 ( -24.46%)
   displ. norm   :     0.0393032 α      lambda       -0.5522070E-05
   maximum displ.:     0.0238402 α      in ANC's #2, #1, #6, ...

........................................................................
.............................. CYCLE   10 ..............................
........................................................................
   1    -33.6708414 -0.336708E+02  0.310E-03    2.02       0.0  T
   2    -33.6708416 -0.201346E-06  0.178E-03    2.02      14.1  T
   3    -33.6708417 -0.317156E-07  0.819E-04    2.02      30.5  T
   4    -33.6708417 -0.175433E-09  0.303E-04    2.02      82.6  T
   5    -33.6708417 -0.292317E-09  0.673E-05    2.02     371.5  T
   6    -33.6708417 -0.249898E-10  0.195E-05    2.02    1285.2  T
     SCC iter.                  ...        0 min,  0.004 sec
     gradient                   ...        0 min,  0.018 sec
 * total energy  :   -33.3921651 Eh     change       -0.4686827E-05 Eh
   gradient norm :     0.0009336 Eh/α   predicted    -0.2763957E-05 ( -41.03%)
   displ. norm   :     0.0163021 α      lambda       -0.2287779E-05
   maximum displ.:     0.0128933 α      in ANC's #2, #6, #7, ...

   *** GEOMETRY OPTIMIZATION CONVERGED AFTER 10 ITERATIONS ***

------------------------------------------------------------------------
 total energy gain   :        -0.0119434 Eh       -7.4946 kcal/mol
 total RMSD          :         0.1501797 a0        0.0795 Å
 total power (kW/mol):        -3.1357478 (step)  -68.4936 (real)
------------------------------------------------------------------------

 ANCopt (total)                0 d,  0 h,  0 min,  0.458 sec
 optimizer setup                ...        0 min,  0.001 sec (  0.201%)
 model hessian                  ...        0 min,  0.005 sec (  1.039%)
 ANC generation                 ...        0 min,  0.000 sec (  0.102%)
 coordinate transformation      ...        0 min,  0.000 sec (  0.026%)
 single point calculation       ...        0 min,  0.447 sec ( 97.592%)
 optimization log               ...        0 min,  0.002 sec (  0.498%)
 hessian update                 ...        0 min,  0.000 sec (  0.030%)
 rational function              ...        0 min,  0.002 sec (  0.328%)

================
 final structure:
================
16
 xtb: 6.5.1 (579679a)
C            2.69788850472932       -0.26102226432239        0.06187013950227
C            1.28589979323689       -0.16467385601888       -0.27123274032567
N            0.75551997557673       -0.29065133077617       -1.53494782683733
N           -0.49460079739831       -0.16683212744451       -1.44293027428171
C           -0.85817458476445        0.08130405886229       -0.09769725830926
C           -1.87196968974543       -0.90013068737558        0.49145793442667
C           -1.52809948844727        1.53475573284411       -0.09516305375750
O           -2.58560021235794        1.65357309182901       -0.61054218522168
Cl          -0.63948296678808        2.73428165457279        0.66501851310900
O            0.36434105585131        0.05256707611688        0.59351867479066
H            2.86619966586198       -0.06046428566553        1.11723734883278
H            3.26748210673875        0.43076787166661       -0.56382961155557
H            3.05042025196013       -1.26523489439307       -0.19320723996418
H           -2.04514028836672       -0.64909712379953        1.53534374334467
H           -1.46555492389947       -1.90635306595065        0.41800632941619
H           -2.79912640218750       -0.82278985014540       -0.07290349316932
 
 Bond Distances (Angstroems)
 ---------------------------
C1-C2=1.4539         C1-H11=1.0874        C1-H12=1.0929        C1-H13=1.0944        C2-C1=1.4539         C2-N3=1.3763         
C2-O10=1.2823        N3-C2=1.3763         N3-N4=1.2596         N4-N3=1.2596         N4-C5=1.4154         C5-N4=1.4154         
C5-C6=1.5291         C5-C7=1.6004         C5-O10=1.4047        C6-C5=1.5291         C6-H14=1.0875        C6-H15=1.0877        
C6-H16=1.0882        C7-C5=1.6004         C7-O8=1.1824         C7-Cl9=1.6752        O8-C7=1.1824         Cl9-C7=1.6752        
O10-C2=1.2823        O10-C5=1.4047        H11-C1=1.0874        H12-C1=1.0929        H13-C1=1.0944        H14-C6=1.0875        
H15-C6=1.0877        H16-C6=1.0882        
 C  H  Rav=1.0897 sigma=0.0029  Rmin=1.0874  Rmax=1.0944     6
 C  C  Rav=1.5278 sigma=0.0598  Rmin=1.4539  Rmax=1.6004     3
 N  C  Rav=1.3958 sigma=0.0196  Rmin=1.3763  Rmax=1.4154     2
 N  N  Rav=1.2596 sigma=0.0000  Rmin=1.2596  Rmax=1.2596     1
 O  C  Rav=1.2898 sigma=0.0909  Rmin=1.1824  Rmax=1.4047     3
 Cl C  Rav=1.6752 sigma=0.0000  Rmin=1.6752  Rmax=1.6752     1
 
 selected bond angles (degree)
 --------------------
H11-C1-C2=111.13               H12-C1-C2=109.45               H12-C1-H11=110.99              H13-C1-C2=108.68               
H13-C1-H11=110.22              H13-C1-H12=106.23              N3-C2-C1=125.35                O10-C2-C1=123.69               
O10-C2-N3=110.96               N4-N3-C2=107.84                C5-N4-N3=109.97                C6-C5-N4=115.09                
C7-C5-N4=105.56                C7-C5-C6=107.74                O10-C5-N4=103.92               O10-C5-C6=111.98               
O10-C5-C7=112.46               H14-C6-C5=109.10               H15-C6-C5=108.66               H15-C6-H14=109.75              
H16-C6-C5=108.63               H16-C6-H14=110.23              H16-C6-H15=110.43              O8-C7-C5=117.71                
Cl9-C7-C5=115.40               Cl9-C7-O8=126.89               C5-O10-C2=107.28               
 
 selected dihedral angles (degree)
 ---------------------------------
N3-C2-C1-H11=176.25           N3-C2-C1-H12= 53.31           N3-C2-C1-H13=297.70           O10-C2-C1-H11=356.26          
O10-C2-C1-H12=233.32          O10-C2-C1-H13=117.71          N4-N3-C2-C1=179.22            N4-N3-C2-O10=359.21           
C5-N4-N3-C2=  1.34            C6-C5-N4-N3=235.82            C7-C5-N4-N3=117.15            O10-C5-N4-N3=358.62           
H14-C6-C5-N4=177.37           H14-C6-C5-C7=294.80           H14-C6-C5-O10= 58.98          H15-C6-C5-N4= 57.74           
H15-C6-C5-C7=175.17           H15-C6-C5-O10=299.35          H16-C6-C5-N4=297.56           H16-C6-C5-C7= 54.99           
H16-C6-C5-O10=179.17          O8-C7-C5-N4= 70.01            O8-C7-C5-C6=306.56            O8-C7-C5-O10=182.67           
Cl9-C7-C5-N4=249.45           Cl9-C7-C5-C6=126.00           Cl9-C7-C5-O10=  2.11          C5-O10-C2-C1=179.88           
C5-O10-C2-N3=359.89           C2-O10-C5-N4=  0.85           C2-O10-C5-C6=125.68           C2-O10-C5-C7=247.18           
           -------------------------------------------------
          |                Final Singlepoint                |
           -------------------------------------------------

          ...................................................
          :                      SETUP                      :
          :.................................................:
          :  # basis functions                  58          :
          :  # atomic orbitals                  57          :
          :  # shells                           33          :
          :  # electrons                        54          :
          :  # halogen bonds                     4          :
          :  max. iterations                   250          :
          :  Hamiltonian                  GFN1-xTB          :
          :  restarted?                      false          :
          :  GBSA solvation                   true          :
          :  PC potential                    false          :
          :  electronic temp.          300.0000000     K    :
          :  accuracy                    1.0000000          :
          :  -> integral cutoff          0.2500000E+02      :
          :  -> integral neglect         0.1000000E-07      :
          :  -> SCF convergence          0.1000000E-05 Eh   :
          :  -> wf. convergence          0.2000000E-04 e    :
          :  Broyden damping             0.4000000          :
          ...................................................

 iter      E             dE          RMSdq      gap      omega  full diag
   1    -33.6708417 -0.336708E+02  0.816E-06    2.02       0.0  T
   2    -33.6708417 -0.163425E-12  0.367E-06    2.02    6807.6  T
   3    -33.6708417 -0.142109E-13  0.179E-06    2.02   13935.0  T

   *** convergence criteria satisfied after 3 iterations ***

         #    Occupation            Energy/Eh            Energy/eV
      -------------------------------------------------------------
         1        2.0000           -1.0042675             -27.3275
       ...           ...                  ...                  ...
        21        2.0000           -0.5755705             -15.6621
        22        2.0000           -0.5706419             -15.5280
        23        2.0000           -0.5678384             -15.4517
        24        2.0000           -0.5358631             -14.5816
        25        2.0000           -0.5336214             -14.5206
        26        2.0000           -0.5245884             -14.2748
        27        2.0000           -0.5135077             -13.9733 (HOMO)
        28                         -0.4391277             -11.9493 (LUMO)
        29                         -0.3570117              -9.7148
        30                         -0.3398569              -9.2480
        31                         -0.2508252              -6.8253
        32                         -0.1822401              -4.9590
       ...                                ...                  ...
        57                          0.7157734              19.4772
      -------------------------------------------------------------
                  HL-Gap            0.0743800 Eh            2.0240 eV
             Fermi-level           -0.4763177 Eh          -12.9613 eV

 SCC (total)                   0 d,  0 h,  0 min,  0.069 sec
 SCC setup                      ...        0 min,  0.001 sec (  0.853%)
 Dispersion                     ...        0 min,  0.000 sec (  0.092%)
 classical contributions        ...        0 min,  0.000 sec (  0.044%)
 integral evaluation            ...        0 min,  0.022 sec ( 31.931%)
 iterations                     ...        0 min,  0.002 sec (  3.153%)
 molecular gradient             ...        0 min,  0.031 sec ( 45.446%)
 printout                       ...        0 min,  0.013 sec ( 18.429%)

         :::::::::::::::::::::::::::::::::::::::::::::::::::::
         ::                     SUMMARY                     ::
         :::::::::::::::::::::::::::::::::::::::::::::::::::::
         :: total energy             -33.392165122797 Eh    ::
         :: total w/o Gsasa/hb       -33.382801578861 Eh    ::
         :: gradient norm              0.000937695505 Eh/a0 ::
         :: HOMO-LUMO gap              2.023983956446 eV    ::
         ::.................................................::
         :: SCC energy               -33.670841653777 Eh    ::
         :: -> electrostatic           0.196723585217 Eh    ::
         :: -> Gsolv                  -0.085537597631 Eh    ::
         ::    -> Gelec               -0.076174053695 Eh    ::
         ::    -> Gsasa               -0.014550610565 Eh    ::
         ::    -> Ghb                 -0.002437212376 Eh    ::
         ::    -> Gshift               0.007624279005 Eh    ::
         :: repulsion energy           0.286632048099 Eh    ::
         :: dispersion energy         -0.007955517119 Eh    ::
         :: halogen bond corr.         0.000000000000 Eh    ::
         :: add. restraining           0.000000000000 Eh    ::
         :: total charge               1.000000000000 e     ::
         :::::::::::::::::::::::::::::::::::::::::::::::::::::

           -------------------------------------------------
          |                Property Printout                |
           -------------------------------------------------

    * Orbital Energies and Occupations

         #    Occupation            Energy/Eh            Energy/eV
      -------------------------------------------------------------
         1        2.0000           -1.0042675             -27.3275
       ...           ...                  ...                  ...
        15        2.0000           -0.6379589             -17.3597
        16        2.0000           -0.6144771             -16.7208
        17        2.0000           -0.6052872             -16.4707
        18        2.0000           -0.6037157             -16.4279
        19        2.0000           -0.5864478             -15.9581
        20        2.0000           -0.5828824             -15.8610
        21        2.0000           -0.5755705             -15.6621
        22        2.0000           -0.5706419             -15.5280
        23        2.0000           -0.5678384             -15.4517
        24        2.0000           -0.5358631             -14.5816
        25        2.0000           -0.5336214             -14.5206
        26        2.0000           -0.5245884             -14.2748
        27        2.0000           -0.5135077             -13.9733 (HOMO)
        28                         -0.4391277             -11.9493 (LUMO)
        29                         -0.3570117              -9.7148
        30                         -0.3398569              -9.2480
        31                         -0.2508252              -6.8253
        32                         -0.1822401              -4.9590
        33                         -0.1644474              -4.4748
        34                         -0.1366092              -3.7173
        35                         -0.1291701              -3.5149
        36                         -0.1278275              -3.4784
        37                         -0.1141681              -3.1067
        38                         -0.1106275              -3.0103
       ...                                ...                  ...
        57                          0.7157734              19.4772
      -------------------------------------------------------------
                  HL-Gap            0.0743800 Eh            2.0240 eV
             Fermi-level           -0.4763177 Eh          -12.9613 eV

  Mulliken/CM5 charges         n(s)   n(p)   n(d)
     1C    -0.11076 -0.24726   1.025  3.086  0.000
     2C     0.48090  0.57814   1.055  2.464  0.000
     3N    -0.12841 -0.22124   1.547  3.581  0.000
     4N    -0.05929 -0.15331   1.572  3.487  0.000
     5C     0.31506  0.40005   1.057  2.628  0.000
     6C    -0.08536 -0.22223   1.033  3.053  0.000
     7C     0.47474  0.51932   1.056  2.469  0.000
     8O    -0.41929 -0.46792   1.713  4.706  0.000
     9Cl    0.12899  0.13524   1.936  4.950 -0.014
    10O    -0.30333 -0.36493   1.680  4.623  0.000
    11H     0.12036  0.17615   0.880  0.000  0.000
    12H     0.13843  0.19307   0.862  0.000  0.000
    13H     0.14575  0.20017   0.854  0.000  0.000
    14H     0.09924  0.15534   0.901  0.000  0.000
    15H     0.10101  0.15856   0.899  0.000  0.000
    16H     0.10196  0.16085   0.898  0.000  0.000

Wiberg/Mayer (AO) data.
largest (>0.10) Wiberg bond orders for each atom

 ---------------------------------------------------------------------------
     #   Z sym  total        # sym  WBO       # sym  WBO       # sym  WBO
 ---------------------------------------------------------------------------
     1   6 C    3.961 --     2 C    1.091    11 H    0.970    12 H    0.919
                            13 H    0.907
     2   6 C    3.799 --    10 O    1.291     3 N    1.182     1 C    1.091
     3   7 N    3.024 --     4 N    1.672     2 C    1.182
     4   7 N    3.012 --     3 N    1.672     5 C    1.078
     5   6 C    3.841 --     4 N    1.078     6 C    0.911    10 O    0.907
                             7 C    0.780
     6   6 C    3.942 --    14 H    0.977    15 H    0.973    16 H    0.973
                             5 C    0.911
     7   6 C    3.876 --     8 O    1.835     9 Cl   1.150     5 C    0.780
     8   8 O    2.136 --     7 C    1.835     9 Cl   0.157
     9  17 Cl   1.403 --     7 C    1.150     8 O    0.157
    10   8 O    2.380 --     2 C    1.291     5 C    0.907
    11   1 H    0.984 --     1 C    0.970
    12   1 H    0.978 --     1 C    0.919
    13   1 H    0.973 --     1 C    0.907
    14   1 H    0.989 --     6 C    0.977
    15   1 H    0.988 --     6 C    0.973
    16   1 H    0.993 --     6 C    0.973
 ---------------------------------------------------------------------------

Topologies differ in total number of bonds
Writing topology from bond orders to xtbtopo.mol

 dipole moment from electron density (au)
     X       Y       Z   
   1.9295   0.0639   1.2160  total (Debye):    5.799

           -------------------------------------------------
          |                Geometry Summary                 |
           -------------------------------------------------

      molecular mass/u    :      161.5664778
   center of mass at/Å    :       -0.3401391       0.7242005      -0.0933086
  moments of inertia/u·Å² :        0.2843417E+03   0.5038065E+03   0.6379354E+03
rotational constants/cm⁻¹ :        0.5928654E-01   0.3346053E-01   0.2642530E-01

 * 15 selected distances

     #   Z          #   Z                                           value/Å
     1   6 C        2   6 C                                       1.4539440
     2   6 C        3   7 N                                       1.3762809
     3   7 N        4   7 N                                       1.2596034
     4   7 N        5   6 C                                       1.4154186
     5   6 C        6   6 C                                       1.5290844
     7   6 C        8   8 O                                       1.1823879
     7   6 C        9  17 Cl                                      1.6752248 (max)
     2   6 C       10   8 O                                       1.2822868
     5   6 C       10   8 O                                       1.4046886
     1   6 C       11   1 H                                       1.0873603 (min)
     1   6 C       12   1 H                                       1.0929368
     1   6 C       13   1 H                                       1.0944343
     6   6 C       14   1 H                                       1.0875218
     6   6 C       15   1 H                                       1.0876818
     6   6 C       16   1 H                                       1.0881660

 * 6 distinct bonds (by element types)

   Z      Z             #   av. dist./Å        max./Å        min./Å
   1 H    6 C           6     1.0896835     1.0944343     1.0873603
   6 C    6 C           2     1.4915142     1.5290844     1.4539440
   6 C    7 N           2     1.3958498     1.4154186     1.3762809
   7 N    7 N           1     1.2596034     1.2596034     1.2596034
   6 C    8 O           3     1.2897878     1.4046886     1.1823879
   6 C   17 Cl          1     1.6752248     1.6752248     1.6752248


optimized geometry written to: xtbopt.xyz


           -------------------------------------------------
          | TOTAL ENERGY              -33.392165122797 Eh   |
          | GRADIENT NORM               0.000937695505 Eh/α |
          | HOMO-LUMO GAP               2.023983956446 eV   |
           -------------------------------------------------

------------------------------------------------------------------------
 * finished run on 2023/06/20 at 14:54:59.290     
------------------------------------------------------------------------
 total:
 * wall-time:     0 d,  0 h,  0 min,  0.652 sec
 *  cpu-time:     0 d,  0 h,  0 min,  0.427 sec
 * ratio c/w:     0.655 speedup
 SCF:
 * wall-time:     0 d,  0 h,  0 min,  0.037 sec
 *  cpu-time:     0 d,  0 h,  0 min,  0.037 sec
 * ratio c/w:     0.992 speedup
 ANC optimizer:
 * wall-time:     0 d,  0 h,  0 min,  0.544 sec
 *  cpu-time:     0 d,  0 h,  0 min,  0.367 sec
 * ratio c/w:     0.674 speedup

