42
 energy: -83.001628834746 gnorm: 0.000378287516 xtb: 6.5.1 (579679a)
C           -6.03162416373974       -0.83275940946364       -1.07204592145281
O           -5.08432117165626       -0.15011439821159       -0.23450393545096
C           -3.81221755146008       -0.43154749409000       -0.41049010437206
O           -3.37492417476897       -1.22267087676069       -1.20280923360450
C           -2.90043539950858        0.36866814906339        0.56707709898317
C           -3.58173724314157        1.64059410223828        1.07126720601500
N           -1.72637711299886        0.71306204459040       -0.20052588514884
C           -0.72757097327872       -0.06410843482944       -0.24054268654063
C            0.42647171745073        0.23082112815149       -1.17449107343873
C            0.34213071809501       -0.76434862801292       -2.34172676912773
C            0.35065404274618        1.67580548817814       -1.67438366655695
N            1.66385640382471        0.02801508222233       -0.41409257945572
C            2.89435519071257        0.14737541403435       -0.96806861575759
O            3.12836242561482        0.27279504532313       -2.15491111225743
C            3.94651520351695        0.09195047735607        0.07817810918780
N            3.74707687104837        0.00905893996249        1.35959893111310
N            4.97459816579060        0.01082633166258        1.94913170847958
C            5.84576146845177        0.09731425351393        0.98917492781514
C            7.31958817275374        0.14124598599558        1.10896766834039
O            5.25776403897125        0.15266316681969       -0.21471388859875
N           -0.62181480237976       -1.23799662008352        0.49672962631681
C           -1.49200847298695       -1.60511913380668        1.47798810398762
O           -1.35335073451210       -2.61301894020120        2.13242978793795
C           -2.64083088498122       -0.61206994240532        1.69769575981888
O           -3.31236520200220       -0.64616161870198        2.69499842478282
H           -5.75648046032544       -0.70588539157392       -2.12042830349348
H           -6.99927660231028       -0.37900374087828       -0.87173346739000
H           -6.04622534550363       -1.89503696098067       -0.82167139245162
H           -2.87773698656548        2.20448390431397        1.68029791324351
H           -4.45101120624089        1.38332392033029        1.67319555998266
H           -3.89151641529562        2.25101166962534        0.22643348841863
H           -0.65288639437149       -0.71270275622523       -2.78217455603158
H            0.52114873832652       -1.77704740877869       -1.98539873618972
H            1.08140362182606       -0.51868878690410       -3.10115149233355
H            1.17374050405606        1.87421239551244       -2.35808594940845
H            0.40569590039612        2.36497860420148       -0.83356235027421
H           -0.59305752537414        1.82987669297337       -2.19458033437562
H            1.60725790956098        0.05762116427029        0.59339726192021
H            7.69807960638231        1.07671349470863        0.69680812942854
H            7.60356612800360        0.06334360932017        2.15554413345391
H            7.76458361824203       -0.67896923378203        0.54612835907065
H            0.17516337762676       -1.83850928867810        0.34773985541465
