42
 energy: -82.967292677553 gnorm: 0.000629698603 xtb: 6.5.1 (579679a)
C           -2.56504673011779        3.75039901390469       -1.79468143814251
O           -3.39270291012654        2.61343271271050       -2.10470951828969
C           -3.27598524398038        1.51936705982897       -1.44272567503534
C           -4.19015482297009        0.42091718593986       -1.80998413570507
O           -2.38465602253937        1.45682597248036       -0.53032793356558
C           -2.23986619344326        0.38495354742908        0.39761733627223
N           -0.97896385266789       -0.05334606855883        0.53383358236012
C           -0.79703668341410       -1.01120116962039        1.43821231624852
C            0.60900890817248       -1.56134563784164        1.61580799226945
C            0.60298114446990       -3.05666609394041        1.26515032481321
C            1.05036506074243       -1.34194559116477        3.06989949575096
N            1.49592231000056       -0.83974351796922        0.70591490848005
C            2.81377920547034       -1.06174738311225        0.60010205655644
O            3.45814181974669       -1.87408089774644        1.24601314541087
C            3.42844800002421       -0.17516345520491       -0.42796869969931
N            2.81087107247834        0.70187697480865       -1.16086446474971
N            3.75308805904088        1.28046590919541       -1.96026487716102
C            4.88464265688107        0.71748524464405       -1.66362340869759
C            6.21327200660671        0.99408813846456       -2.25359743531743
O            4.74569573051556       -0.20924561281976       -0.70391584453295
N           -1.71797692089447       -1.55360913429542        2.21542854989168
C           -3.00757961837773       -1.13058974220121        2.12890325782827
O           -3.94066371938301       -1.56246815167785        2.81789636772224
C           -3.27735405240080       -0.09063994388936        1.13381952962567
O           -4.55842006696665        0.35553449147828        1.03798604697745
H           -2.93448768112961        4.56373665979890       -2.41378046344583
H           -1.52801578444339        3.51961884237689       -2.03803129805252
H           -2.65591897170038        3.99021906485700       -0.73471855323696
H           -5.06160501690893        0.45814534582814       -1.15043535325860
H           -4.52489418100111        0.54883302517925       -2.83633838712832
H           -3.70383085035693       -0.54200760890803       -1.66411943877151
H            1.58009248740681       -3.49737749643099        1.45579896691759
H            0.34975621378231       -3.18966105977003        0.21424511829784
H           -0.14464137917206       -3.56069372991315        1.87639804624631
H            2.02238306744524       -1.79889245369516        3.24742196470647
H            0.31426290083231       -1.79399330893217        3.73387756002402
H            1.11260246290573       -0.27538263701892        3.28257812871612
H            1.05647138129400       -0.14666714565522        0.11029997057903
H            6.90573581862519        1.31957272975998       -1.47749095769282
H            6.61576738608615        0.08825756372572       -2.70667350354462
H            6.12275232258108        1.76970670108964       -3.00983763411894
H           -5.06623731311317       -0.12697034316416        1.72349035450407
