47
 energy: -79.541893970824 gnorm: 0.000268296242 xtb: 6.5.1 (579679a)
C           -1.94193063860569       -0.99372594199674       -2.26426383423403
N           -2.37047985238674       -1.82147699881523       -1.11154242418566
C           -3.18227498385681       -1.12176823768205       -0.04666226351930
C           -4.31867779132202       -0.36466288407204       -0.73095540527892
C           -3.71158973403087       -2.24548539007640        0.85230064445033
C           -2.16559194018168       -0.28112889651622        0.72030733050624
N           -0.93486990457214       -0.61160656064443        0.50115979625556
C            0.11730361646781        0.00259962672087        1.12485259489135
C            1.44392407082404       -0.54698023099192        0.68770724417629
O            1.49935586973159       -1.42801112630067       -0.16311578924964
N            2.52642208528443       -0.03108629853133        1.28911221572799
C            3.86728345766214       -0.49721722438214        0.93741645801130
C            4.41876858959851        0.28303760594879       -0.23698192467071
C            5.26765829428998        1.36694339709243       -0.02796073502670
C            5.76699688426439        2.09070195752947       -1.10263235594208
C            5.39615311723716        1.70855552717363       -2.37898513694001
F            5.87491410469129        2.40274453887782       -3.42395047216119
C            4.55255184326126        0.63935909277284       -2.62241544496075
C            4.06473114277339       -0.07342456287249       -1.53691321335959
C           -0.14762083361442        0.99979546436185        2.01479901723892
O            0.79231875956769        1.68367059251434        2.68493738931779
C           -1.51895273556913        1.39335262320215        2.30057943393878
O           -1.77823257875835        2.28473004948208        3.09721308517157
N           -2.50756425834739        0.68840812179457        1.61855741320396
C           -3.88447308819418        1.07493635327185        1.93381782008615
H           -2.80932259933541       -0.71649661217373       -2.85453907722694
H           -1.26146807101191       -1.59939059006065       -2.85859025386486
H           -1.43087247063416       -0.11296849874051       -1.88417869838333
H           -2.88510666779941       -2.62748675248029       -1.45150892694991
H           -1.51031316288185       -2.13938502970234       -0.64159021686776
H           -4.72730305658781       -0.97852249525411       -1.53230203943117
H           -3.97247879539845        0.58008951887531       -1.14575413272618
H           -5.12276671974031       -0.17029343871293       -0.02597197205181
H           -4.25227472350393       -1.82870648122597        1.69907013285743
H           -4.38980923418631       -2.88194428028782        0.28650837905643
H           -2.88327511357079       -2.84496289713072        1.22703016507407
H            2.44785178923130        0.73448773525132        1.93767640337952
H            3.79662612746085       -1.56015440971264        0.68662437681410
H            4.50314756819422       -0.37402948265688        1.81684514143632
H            5.54498624198649        1.64980186592533        0.98070674854318
H            6.42819924813743        2.93461511727409       -0.95407599884762
H            4.28569551509485        0.37230223037788       -3.63669166043365
H            3.40103315229773       -0.91396674984240       -1.70044023044225
H            0.35679636889346        2.33988595039456        3.26326937563597
H           -4.28014436416239        1.70559745822072        1.13967575831777
H           -4.50077143363144        0.19064675844326        2.05991609694211
H           -3.86455409506038        1.63862148535827        2.86649218574356
