      -----------------------------------------------------------      
     |                   =====================                   |     
     |                           x T B                           |     
     |                   =====================                   |     
     |                         S. Grimme                         |     
     |          Mulliken Center for Theoretical Chemistry        |     
     |                    University of Bonn                     |     
      -----------------------------------------------------------      

   * xtb version 6.5.1 (579679a) compiled by 'ehlert@majestix' on 2022-07-11

   xtb is free software: you can redistribute it and/or modify it under
   the terms of the GNU Lesser General Public License as published by
   the Free Software Foundation, either version 3 of the License, or
   (at your option) any later version.
   
   xtb is distributed in the hope that it will be useful,
   but WITHOUT ANY WARRANTY; without even the implied warranty of
   MERCHANTABILITY or FITNESS FOR A PARTICULAR PURPOSE.  See the
   GNU Lesser General Public License for more details.
   
   Cite this work as:
   * C. Bannwarth, E. Caldeweyher, S. Ehlert, A. Hansen, P. Pracht,
     J. Seibert, S. Spicher, S. Grimme, WIREs Comput. Mol. Sci., 2020, 11,
     e01493. DOI: 10.1002/wcms.1493
   
   for GFN2-xTB:
   * C. Bannwarth, S. Ehlert and S. Grimme., J. Chem. Theory Comput., 2019,
     15, 1652-1671. DOI: 10.1021/acs.jctc.8b01176
   for GFN1-xTB:
   * S. Grimme, C. Bannwarth, P. Shushkov, J. Chem. Theory Comput., 2017,
     13, 1989-2009. DOI: 10.1021/acs.jctc.7b00118
   for GFN0-xTB:
   * P. Pracht, E. Caldeweyher, S. Ehlert, S. Grimme, ChemRxiv, 2019, preprint.
     DOI: 10.26434/chemrxiv.8326202.v1
   for GFN-FF:
   * S. Spicher and S. Grimme, Angew. Chem. Int. Ed., 2020, 59, 15665-15673.
     DOI: 10.1002/anie.202004239
   
   for ALPB and GBSA implicit solvation:
   * S. Ehlert, M. Stahn, S. Spicher, S. Grimme, J. Chem. Theory Comput.,
     2021, 17, 4250-4261. DOI: 10.1021/acs.jctc.1c00471
   
   for DFT-D4:
   * E. Caldeweyher, C. Bannwarth and S. Grimme, J. Chem. Phys., 2017,
     147, 034112. DOI: 10.1063/1.4993215
   * E. Caldeweyher, S. Ehlert, A. Hansen, H. Neugebauer, S. Spicher,
     C. Bannwarth and S. Grimme, J. Chem. Phys., 2019, 150, 154122.
     DOI: 10.1063/1.5090222
   * E. Caldeweyher, J.-M. Mewes, S. Ehlert and S. Grimme, Phys. Chem. Chem. Phys.
     2020, 22, 8499-8512. DOI: 10.1039/D0CP00502A
   
   for sTDA-xTB:
   * S. Grimme and C. Bannwarth, J. Chem. Phys., 2016, 145, 054103.
     DOI: 10.1063/1.4959605
   
   in the mass-spec context:
   * V. Asgeirsson, C. Bauer and S. Grimme, Chem. Sci., 2017, 8, 4879.
     DOI: 10.1039/c7sc00601b
   * J. Koopman and S. Grimme, ACS Omega 2019, 4, 12, 15120-15133.
     DOI: 10.1021/acsomega.9b02011
   
   for metadynamics refer to:
   * S. Grimme, J. Chem. Theory Comput., 2019, 155, 2847-2862
     DOI: 10.1021/acs.jctc.9b00143
   
   for SPH calculations refer to:
   * S. Spicher and S. Grimme, J. Chem. Theory Comput., 2021, 17, 1701-1714
     DOI: 10.1021/acs.jctc.0c01306
   
   with help from (in alphabetical order)
   P. Atkinson, C. Bannwarth, F. Bohle, G. Brandenburg, E. Caldeweyher
   M. Checinski, S. Dohm, S. Ehlert, S. Ehrlich, I. Gerasimov, C. Hölzer
   A. Katbashev, J. Koopman, C. Lavigne, S. Lehtola, F. März, M. Müller,
   F. Musil, H. Neugebauer, J. Pisarek, C. Plett, P. Pracht, F. Pultar,
   J. Seibert, P. Shushkov, S. Spicher, M. Stahn, M. Steiner, T. Strunk,
   J. Stückrath, T. Rose, and J. Unsleber
   
 * started run on 2023/06/20 at 15:08:37.536     

           -------------------------------------------------
          |                Calculation Setup                |
           -------------------------------------------------

          program call               : /lustre/hpc/kemi/ree/PhD/git/ReactivityQM/dep/xtb-6.5.1/bin/xtb --gfn 1 /lustre/hpc/kemi/ree/PhD/git/ReactivityQM/calculations/R01/reac02prodN08/conf19/R01_reac02prodN08_conf19_gfn1.xyz --opt --vfukui --chrg 1 --uhf 0 --alpb DMSO
          hostname                   : node312
          coordinate file            : /lustre/hpc/kemi/ree/PhD/git/ReactivityQM/calculations/R01/reac02prodN08/conf19/R01_reac02prodN08_conf19_gfn1.xyz
          omp threads                :                     1

   ID    Z sym.   atoms
    1    6 C      1, 3, 5, 6, 8, 9, 12-15
    2    8 O      2, 4, 7, 10
    3    7 N      11, 16, 17
    4    1 H      18-33

           -------------------------------------------------
          |                 G F N 1 - x T B                 |
           -------------------------------------------------

        Reference                      10.1021/acs.jctc.7b00118
      * Hamiltonian:
        H0-scaling (s, p, d)           1.850000    2.250000    2.000000
        zeta-weighting                 0.000000
      * Dispersion:
        s8                             2.400000
        a1                             0.630000
        a2                             5.000000
        s9                             0.000000
      * Repulsion:
        kExp                           1.500000
        rExp                           1.000000
      * Coulomb:
        alpha                          2.000000
        third order                    atomic
        anisotropic                    false
      * Halogen bond correction:
        rad-scale                      1.300000
        damping                        0.440000

      * Solvation model:               ALPB
        Solvent                        DMSO
        Parameter file                 internal GFN1-xTB/ALPB
        Dielectric constant                4.6680E+01
        Reference state                gsolv [1 M gas/solution]
        Free energy shift                  7.6243E-03 Eh       4.7843E+00 kcal/mol
        Temperature                        2.9815E+02 K
        Density                            1.1000E+00 kg/L
        Solvent mass                       7.8130E+01 g/mol
        Interaction kernel             P16
        Born radius scaling (c1)           1.7672E+00
        Born radii integrator          GBOBC
        Born offset                        0.0000E+00 a0       0.0000E+00 AA
        H-bond correction              true
        Ion screening                  false
        Surface tension                    1.0000E-05 Eh       1.5569E+01 dyn/cm
        Grid points                               230 per atom

          ...................................................
          :                      SETUP                      :
          :.................................................:
          :  # basis functions                 100          :
          :  # atomic orbitals                 100          :
          :  # shells                           66          :
          :  # electrons                        94          :
          :  # halogen bonds                     0          :
          :  max. iterations                   250          :
          :  Hamiltonian                  GFN1-xTB          :
          :  restarted?                      false          :
          :  GBSA solvation                   true          :
          :  PC potential                    false          :
          :  electronic temp.          300.0000000     K    :
          :  accuracy                    1.0000000          :
          :  -> integral cutoff          0.2500000E+02      :
          :  -> integral neglect         0.1000000E-07      :
          :  -> SCF convergence          0.1000000E-05 Eh   :
          :  -> wf. convergence          0.2000000E-04 e    :
          :  Broyden damping             0.4000000          :
          ...................................................

 iter      E             dE          RMSdq      gap      omega  full diag
   1    -57.9189115 -0.579189E+02  0.802E+00    0.49       0.0  T
   2    -57.7686107  0.150301E+00  0.564E+00    0.27       1.0  T
   3    -57.8176676 -0.490569E-01  0.424E+00    0.38       1.0  T
   4    -58.0221509 -0.204483E+00  0.277E+00    0.74       1.0  T
   5    -58.0858819 -0.637310E-01  0.192E+00    0.12       1.0  T
   6    -58.1750424 -0.891605E-01  0.133E+00    0.35       1.0  T
   7    -58.0257008  0.149342E+00  0.193E+00    0.26       1.0  T
   8    -58.2379187 -0.212218E+00  0.504E-01    0.05       1.0  T
   9    -58.2239707  0.139480E-01  0.772E-01    0.10       1.0  T
  10    -58.0737809  0.150190E+00  0.172E+00    0.07       1.0  T
  11    -58.2380249 -0.164244E+00  0.574E-01    0.06       1.0  T
  12    -58.2403473 -0.232236E-02  0.492E-01    0.05       1.0  T
  13    -58.2443682 -0.402090E-02  0.413E-01    0.05       1.0  T
  14    -58.2481007 -0.373255E-02  0.313E-01    0.04       1.0  T
  15    -58.2539773 -0.587661E-02  0.623E-02    0.04       1.0  T
  16    -58.2534601  0.517263E-03  0.108E-01    0.04       1.0  T
  17    -58.2539665 -0.506435E-03  0.602E-02    0.04       1.0  T
  18    -58.2539912 -0.246573E-04  0.579E-02    0.04       1.0  T
  19    -58.2541935 -0.202317E-03  0.173E-02    0.04       1.0  T
  20    -58.2541979 -0.438632E-05  0.147E-02    0.04       1.2  T
  21    -58.2542102 -0.123380E-04  0.368E-03    0.04       4.7  T
  22    -58.2542109 -0.663802E-06  0.138E-03    0.04      12.6  T
  23    -58.2542110 -0.108107E-06  0.503E-04    0.04      34.6  T
  24    -58.2542110 -0.164036E-07  0.340E-05    0.04     512.6  T
  25    -58.2542110  0.257501E-10  0.393E-05    0.04     443.0  T

   *** convergence criteria satisfied after 25 iterations ***

         #    Occupation            Energy/Eh            Energy/eV
      -------------------------------------------------------------
         1        2.0000           -0.8744653             -23.7954
       ...           ...                  ...                  ...
        41        2.0000           -0.5230851             -14.2339
        42        2.0000           -0.5173899             -14.0789
        43        2.0000           -0.5117124             -13.9244
        44        2.0000           -0.5094225             -13.8621
        45        2.0000           -0.4915794             -13.3766
        46        1.8063           -0.4730582             -12.8726
        47        1.4890           -0.4719529             -12.8425 (HOMO)
        48        0.7047           -0.4703584             -12.7991 (LUMO)
        49                         -0.3673611              -9.9964
        50                         -0.3257378              -8.8638
        51                         -0.2391492              -6.5076
        52                         -0.1617947              -4.4027
       ...                                ...                  ...
       100                          0.6422102              17.4754
      -------------------------------------------------------------
                  HL-Gap            0.0015944 Eh            0.0434 eV
             Fermi-level           -0.4709368 Eh          -12.8148 eV

 SCC (total)                   0 d,  0 h,  0 min,  0.135 sec
 SCC setup                      ...        0 min,  0.002 sec (  1.425%)
 Dispersion                     ...        0 min,  0.000 sec (  0.223%)
 classical contributions        ...        0 min,  0.000 sec (  0.071%)
 integral evaluation            ...        0 min,  0.024 sec ( 18.095%)
 iterations                     ...        0 min,  0.052 sec ( 38.612%)
 molecular gradient             ...        0 min,  0.055 sec ( 40.995%)
 printout                       ...        0 min,  0.001 sec (  0.535%)

         :::::::::::::::::::::::::::::::::::::::::::::::::::::
         ::                     SUMMARY                     ::
         :::::::::::::::::::::::::::::::::::::::::::::::::::::
         :: total energy             -57.711297160083 Eh    ::
         :: total w/o Gsasa/hb       -57.690582574370 Eh    ::
         :: gradient norm              0.154059951473 Eh/a0 ::
         :: HOMO-LUMO gap              0.043386328181 eV    ::
         ::.................................................::
         :: SCC energy               -58.254210982348 Eh    ::
         :: -> electrostatic           0.307947583116 Eh    ::
         :: -> Gsolv                  -0.098597872810 Eh    ::
         ::    -> Gelec               -0.077883287096 Eh    ::
         ::    -> Gsasa               -0.018434632206 Eh    ::
         ::    -> Ghb                 -0.009904232513 Eh    ::
         ::    -> Gshift               0.007624279005 Eh    ::
         :: repulsion energy           0.561645905493 Eh    ::
         :: dispersion energy         -0.018732083228 Eh    ::
         :: halogen bond corr.         0.000000000000 Eh    ::
         :: add. restraining           0.000000000000 Eh    ::
         :: total charge               1.000000000000 e     ::
         :::::::::::::::::::::::::::::::::::::::::::::::::::::

      ----------------------------------------------------------- 
     |                   =====================                   |
     |                        A N C O P T                        |
     |                   =====================                   |
     |               Approximate Normal Coordinate               |
     |                Rational Function Optimizer                |
      ----------------------------------------------------------- 

          ...................................................
          :                      SETUP                      :
          :.................................................:
          :   optimization level            normal          :
          :   max. optcycles                   200          :
          :   ANC micro-cycles                  20          :
          :   degrees of freedom                93          :
          :.................................................:
          :   RF solver                   davidson          :
          :   write xtbopt.log                true          :
          :   linear?                        false          :
          :   energy convergence         0.5000000E-05 Eh   :
          :   grad. convergence          0.1000000E-02 Eh/α :
          :   maximium RF displ.         1.0000000          :
          :   Hlow (freq-cutoff)         0.1000000E-01      :
          :   Hmax (freq-cutoff)         5.0000000          :
          :   S6 in model hess.         20.0000000          :
          ...................................................

generating ANC from model Hessian ...
Using Lindh-Hessian (1995)
 Shifting diagonal of input Hessian by   9.347432771858561E-003
 Lowest  eigenvalues of input Hessian
    0.000000    0.000000    0.000000    0.000000    0.000000    0.000000
    0.010000    0.010848    0.011020    0.011860    0.013782    0.014012
    0.016799    0.017304    0.018343    0.018929    0.018972    0.020096
 Highest eigenvalues
    1.646605    1.743139    1.848126    2.050876    2.128337    2.329645
 

........................................................................
.............................. CYCLE    1 ..............................
........................................................................
   1    -58.2542110 -0.582542E+02  0.640E-06    0.04       0.0  T
   2    -58.2542110  0.101479E-08  0.124E-04    0.04     140.0  T
   3    -58.2542110 -0.101603E-08  0.479E-06    0.04    3631.2  T
     SCC iter.                  ...        0 min,  0.007 sec
     gradient                   ...        0 min,  0.055 sec
 * total energy  :   -57.7112972 Eh     change       -0.9320900E-10 Eh
   gradient norm :     0.1540613 Eh/α   predicted     0.0000000E+00 (-100.00%)
   displ. norm   :     0.2926195 α      lambda       -0.2164133E-01
   maximum displ.:     0.1438243 α      in ANC's #17, #24, #52, ...

........................................................................
.............................. CYCLE    2 ..............................
........................................................................
   1    -58.2516121 -0.582516E+02  0.661E-01    0.18       0.0  T
   2    -58.1099805  0.141632E+00  0.180E+00    0.08       1.0  T
   3    -58.2442345 -0.134254E+00  0.743E-01    0.05       1.0  T
   4    -58.2561390 -0.119046E-01  0.563E-01    0.07       1.0  T
   5    -58.2669465 -0.108075E-01  0.390E-01    0.06       1.0  T
   6    -58.2638661  0.308037E-02  0.459E-01    0.05       1.0  T
   7    -58.2752549 -0.113888E-01  0.845E-02    0.07       1.0  T
   8    -58.2753398 -0.849092E-04  0.737E-02    0.09       1.0  T
   9    -58.2756548 -0.314950E-03  0.113E-02    0.08       1.5  T
  10    -58.2756600 -0.521966E-05  0.412E-03    0.08       4.2  T
  11    -58.2756607 -0.720040E-06  0.239E-03    0.08       7.3  T
  12    -58.2756610 -0.315388E-06  0.996E-04    0.08      17.5  T
  13    -58.2756611 -0.568312E-07  0.296E-04    0.08      58.7  T
  14    -58.2756611 -0.444088E-08  0.929E-05    0.08     187.3  T
  15    -58.2756611 -0.530825E-09  0.593E-06    0.08    2934.9  T
     SCC iter.                  ...        0 min,  0.031 sec
     gradient                   ...        0 min,  0.056 sec
 * total energy  :   -57.7286279 Eh     change       -0.1733075E-01 Eh
   gradient norm :     0.0952685 Eh/α   predicted    -0.1175682E-01 ( -32.16%)
   displ. norm   :     0.4736829 α      lambda       -0.2220482E-01
   maximum displ.:     0.1865633 α      in ANC's #17, #24, #12, ...

........................................................................
.............................. CYCLE    3 ..............................
........................................................................
   1    -58.2885087 -0.582885E+02  0.509E-01    0.40       0.0  T
   2    -57.8417486  0.446760E+00  0.285E+00    0.32       1.0  T
   3    -58.2273509 -0.385602E+00  0.106E+00    0.31       1.0  T
   4    -58.2943090 -0.669581E-01  0.377E-01    0.29       1.0  T
   5    -58.2956245 -0.131553E-02  0.318E-01    0.25       1.0  T
   6    -58.2994943 -0.386981E-02  0.147E-01    0.16       1.0  T
   7    -58.2995637 -0.693525E-04  0.146E-01    0.11       1.0  T
   8    -58.3004506 -0.886936E-03  0.743E-02    0.15       1.0  T
   9    -58.3007038 -0.253215E-03  0.312E-02    0.14       1.0  T
  10    -58.3007558 -0.519894E-04  0.618E-03    0.13       2.8  T
  11    -58.3007562 -0.399991E-06  0.575E-03    0.13       3.0  T
  12    -58.3007580 -0.176447E-05  0.803E-04    0.13      21.7  T
  13    -58.3007580 -0.139506E-07  0.608E-04    0.13      28.6  T
  14    -58.3007580 -0.198365E-07  0.191E-04    0.13      91.3  T
  15    -58.3007580 -0.169586E-08  0.916E-05    0.13     190.0  T
     SCC iter.                  ...        0 min,  0.029 sec
     gradient                   ...        0 min,  0.055 sec
 * total energy  :   -57.7401707 Eh     change       -0.1154280E-01 Eh
   gradient norm :     0.0458612 Eh/α   predicted    -0.1359352E-01 (  17.77%)
   displ. norm   :     0.2874915 α      lambda       -0.4189001E-02
   maximum displ.:     0.1115469 α      in ANC's #12, #9, #8, ...

........................................................................
.............................. CYCLE    4 ..............................
........................................................................
   1    -58.2989266 -0.582989E+02  0.155E-01    0.21       0.0  T
   2    -58.0829569  0.215970E+00  0.193E+00    0.11       1.0  T
   3    -58.2975430 -0.214586E+00  0.225E-01    0.21       1.0  T
   4    -58.2996502 -0.210724E-02  0.116E-01    0.20       1.0  T
   5    -58.2999453 -0.295086E-03  0.875E-02    0.19       1.0  T
   6    -58.3002075 -0.262180E-03  0.485E-02    0.18       1.0  T
   7    -58.3003256 -0.118120E-03  0.108E-02    0.17       1.6  T
   8    -58.3003307 -0.511089E-05  0.427E-03    0.17       4.1  T
   9    -58.3003317 -0.969896E-06  0.299E-04    0.17      58.1  T
  10    -58.3003317 -0.257693E-09  0.270E-04    0.17      64.5  T
  11    -58.3003317 -0.277039E-08  0.127E-04    0.17     137.1  T
  12    -58.3003317 -0.515847E-09  0.721E-05    0.17     241.6  T
     SCC iter.                  ...        0 min,  0.023 sec
     gradient                   ...        0 min,  0.055 sec
 * total energy  :   -57.7435950 Eh     change       -0.3424326E-02 Eh
   gradient norm :     0.0285099 Eh/α   predicted    -0.2267616E-02 ( -33.78%)
   displ. norm   :     0.5411771 α      lambda       -0.5240683E-02
   maximum displ.:     0.2415266 α      in ANC's #8, #12, #9, ...

........................................................................
.............................. CYCLE    5 ..............................
........................................................................
   1    -58.2948998 -0.582949E+02  0.193E-01    0.31       0.0  T
   2    -58.2583798  0.365200E-01  0.806E-01    0.16       1.0  T
   3    -58.2936986 -0.353189E-01  0.260E-01    0.34       1.0  T
   4    -58.2968728 -0.317410E-02  0.973E-02    0.29       1.0  T
   5    -58.2972363 -0.363542E-03  0.414E-02    0.27       1.0  T
   6    -58.2972925 -0.561577E-04  0.184E-02    0.25       1.0  T
   7    -58.2973015 -0.907337E-05  0.122E-02    0.25       1.4  T
   8    -58.2973093 -0.780844E-05  0.303E-03    0.25       5.8  T
   9    -58.2973098 -0.462296E-06  0.693E-04    0.25      25.1  T
  10    -58.2973098 -0.195744E-07  0.367E-04    0.25      47.4  T
  11    -58.2973098 -0.668556E-08  0.139E-05    0.25    1247.9  T
  12    -58.2973098 -0.468248E-11  0.642E-06    0.25    2710.0  T
     SCC iter.                  ...        0 min,  0.024 sec
     gradient                   ...        0 min,  0.055 sec
 * total energy  :   -57.7470921 Eh     change       -0.3497036E-02 Eh
   gradient norm :     0.0225184 Eh/α   predicted    -0.3387787E-02 (  -3.12%)
   displ. norm   :     0.4124152 α      lambda       -0.2119559E-02
   maximum displ.:     0.2314177 α      in ANC's #8, #12, #9, ...

........................................................................
.............................. CYCLE    6 ..............................
........................................................................
   1    -58.2973746 -0.582974E+02  0.926E-02    0.32       0.0  T
   2    -58.2953373  0.203728E-02  0.206E-01    0.27       1.0  T
   3    -58.2978359 -0.249858E-02  0.478E-02    0.32       1.0  T
   4    -58.2979523 -0.116404E-03  0.135E-02    0.30       1.3  T
   5    -58.2979543 -0.205511E-05  0.882E-03    0.30       2.0  T
   6    -58.2979566 -0.231546E-05  0.297E-03    0.30       5.9  T
   7    -58.2979570 -0.346394E-06  0.615E-04    0.31      28.3  T
   8    -58.2979570 -0.149219E-07  0.158E-04    0.31     110.0  T
   9    -58.2979570 -0.889528E-10  0.547E-05    0.31     318.0  T
     SCC iter.                  ...        0 min,  0.018 sec
     gradient                   ...        0 min,  0.055 sec
 * total energy  :   -57.7487952 Eh     change       -0.1703139E-02 Eh
   gradient norm :     0.0233426 Eh/α   predicted    -0.1240147E-02 ( -27.18%)
   displ. norm   :     0.5433835 α      lambda       -0.2825857E-02
   maximum displ.:     0.3195477 α      in ANC's #8, #12, #3, ...

........................................................................
.............................. CYCLE    7 ..............................
........................................................................
   1    -58.3023416 -0.583023E+02  0.113E-01    0.36       0.0  T
   2    -58.3005601  0.178146E-02  0.206E-01    0.31       1.0  T
   3    -58.3031012 -0.254109E-02  0.374E-02    0.36       1.0  T
   4    -58.3031545 -0.532428E-04  0.275E-02    0.33       1.0  T
   5    -58.3031784 -0.239358E-04  0.104E-02    0.34       1.7  T
   6    -58.3031811 -0.268932E-05  0.262E-03    0.34       6.6  T
   7    -58.3031813 -0.231540E-06  0.803E-04    0.34      21.7  T
   8    -58.3031814 -0.232818E-07  0.258E-04    0.34      67.5  T
   9    -58.3031814 -0.161447E-08  0.547E-05    0.34     318.4  T
  10    -58.3031814 -0.463274E-10  0.103E-05    0.34    1688.5  T
     SCC iter.                  ...        0 min,  0.020 sec
     gradient                   ...        0 min,  0.055 sec
 * total energy  :   -57.7510585 Eh     change       -0.2263277E-02 Eh
   gradient norm :     0.0178083 Eh/α   predicted    -0.1830156E-02 ( -19.14%)
   displ. norm   :     0.5776233 α      lambda       -0.2503474E-02
   maximum displ.:     0.3283121 α      in ANC's #8, #3, #12, ...

........................................................................
.............................. CYCLE    8 ..............................
........................................................................
   1    -58.3076770 -0.583077E+02  0.101E-01    0.39       0.0  T
   2    -58.3063584  0.131866E-02  0.177E-01    0.33       1.0  T
   3    -58.3082034 -0.184500E-02  0.340E-02    0.39       1.0  T
   4    -58.3082587 -0.553351E-04  0.216E-02    0.36       1.0  T
   5    -58.3082707 -0.119604E-04  0.924E-03    0.37       1.9  T
   6    -58.3082724 -0.171825E-05  0.252E-03    0.37       6.9  T
   7    -58.3082726 -0.236424E-06  0.646E-04    0.37      26.9  T
   8    -58.3082726 -0.995348E-08  0.262E-04    0.37      66.4  T
   9    -58.3082726 -0.166477E-08  0.381E-05    0.37     456.5  T
  10    -58.3082726 -0.382627E-10  0.662E-06    0.37    2630.3  T
     SCC iter.                  ...        0 min,  0.020 sec
     gradient                   ...        0 min,  0.055 sec
 * total energy  :   -57.7530268 Eh     change       -0.1968313E-02 Eh
   gradient norm :     0.0180855 Eh/α   predicted    -0.1669385E-02 ( -15.19%)
   displ. norm   :     0.5600746 α      lambda       -0.2028640E-02
   maximum displ.:     0.3113544 α      in ANC's #8, #3, #12, ...

........................................................................
.............................. CYCLE    9 ..............................
........................................................................
   1    -58.3139155 -0.583139E+02  0.906E-02    0.41       0.0  T
   2    -58.3122244  0.169104E-02  0.196E-01    0.32       1.0  T
   3    -58.3143922 -0.216771E-02  0.329E-02    0.39       1.0  T
   4    -58.3144494 -0.572427E-04  0.125E-02    0.37       1.4  T
   5    -58.3144501 -0.652397E-06  0.882E-03    0.37       2.0  T
   6    -58.3144513 -0.120367E-05  0.420E-03    0.37       4.1  T
   7    -58.3144521 -0.809889E-06  0.964E-04    0.38      18.1  T
   8    -58.3144521 -0.417343E-07  0.213E-04    0.38      81.7  T
   9    -58.3144521 -0.891660E-09  0.397E-05    0.38     438.8  T
  10    -58.3144521 -0.374030E-10  0.121E-05    0.38    1444.0  T
     SCC iter.                  ...        0 min,  0.020 sec
     gradient                   ...        0 min,  0.056 sec
 * total energy  :   -57.7546867 Eh     change       -0.1659931E-02 Eh
   gradient norm :     0.0194644 Eh/α   predicted    -0.1332500E-02 ( -19.73%)
   displ. norm   :     0.6565522 α      lambda       -0.2068319E-02
   maximum displ.:     0.3429367 α      in ANC's #8, #3, #12, ...

........................................................................
.............................. CYCLE   10 ..............................
........................................................................
   1    -58.3139317 -0.583139E+02  0.791E-02    0.44       0.0  T
   2    -58.3128817  0.104998E-02  0.157E-01    0.32       1.0  T
   3    -58.3142225 -0.134084E-02  0.213E-02    0.40       1.0  T
   4    -58.3142412 -0.187049E-04  0.786E-03    0.39       2.2  T
   5    -58.3142417 -0.506963E-06  0.505E-03    0.39       3.4  T
   6    -58.3142425 -0.757720E-06  0.355E-03    0.39       4.9  T
   7    -58.3142430 -0.548660E-06  0.874E-04    0.39      19.9  T
   8    -58.3142431 -0.357840E-07  0.204E-04    0.39      85.3  T
   9    -58.3142431 -0.663505E-09  0.931E-05    0.39     186.9  T
  10    -58.3142431 -0.285596E-09  0.187E-05    0.39     930.9  T
     SCC iter.                  ...        0 min,  0.020 sec
     gradient                   ...        0 min,  0.056 sec
 * total energy  :   -57.7563053 Eh     change       -0.1618532E-02 Eh
   gradient norm :     0.0242139 Eh/α   predicted    -0.1479953E-02 (  -8.56%)
   displ. norm   :     0.5551615 α      lambda       -0.2565968E-02
   maximum displ.:     0.2480353 α      in ANC's #8, #3, #16, ...

........................................................................
.............................. CYCLE   11 ..............................
........................................................................
   1    -58.3253844 -0.583254E+02  0.109E-01    0.46       0.0  T
   2    -58.3230745  0.230987E-02  0.238E-01    0.29       1.0  T
   3    -58.3261385 -0.306394E-02  0.330E-02    0.40       1.0  T
   4    -58.3261646 -0.261489E-04  0.153E-02    0.38       1.1  T
   5    -58.3261645  0.729314E-07  0.155E-02    0.38       1.1  T
   6    -58.3261661 -0.154222E-05  0.101E-02    0.38       1.7  T
   7    -58.3261711 -0.500495E-05  0.208E-03    0.38       8.4  T
   8    -58.3261713 -0.225832E-06  0.230E-04    0.38      75.5  T
   9    -58.3261713  0.148433E-08  0.217E-04    0.38      80.3  T
  10    -58.3261713 -0.198521E-08  0.700E-05    0.38     248.8  T
  11    -58.3261713 -0.252463E-09  0.324E-06    0.38    5374.5  T
     SCC iter.                  ...        0 min,  0.022 sec
     gradient                   ...        0 min,  0.056 sec
 * total energy  :   -57.7574078 Eh     change       -0.1102540E-02 Eh
   gradient norm :     0.0247002 Eh/α   predicted    -0.1678412E-02 (  52.23%)
   displ. norm   :     0.5149141 α      lambda       -0.1797584E-02
   maximum displ.:     0.2640786 α      in ANC's #3, #8, #9, ...

........................................................................
.............................. CYCLE   12 ..............................
........................................................................
   1    -58.3143320 -0.583143E+02  0.553E-02    0.43       0.0  T
   2    -58.3142439  0.880786E-04  0.614E-02    0.36       1.0  T
   3    -58.3144163 -0.172399E-03  0.195E-02    0.41       1.0  T
   4    -58.3144255 -0.913426E-05  0.693E-03    0.40       2.5  T
   5    -58.3144259 -0.433923E-06  0.264E-03    0.40       6.6  T
   6    -58.3144262 -0.267348E-06  0.805E-04    0.40      21.6  T
   7    -58.3144262 -0.377599E-07  0.276E-04    0.40      63.1  T
   8    -58.3144262 -0.913822E-09  0.130E-04    0.40     133.7  T
   9    -58.3144262 -0.496989E-09  0.313E-05    0.40     556.8  T
     SCC iter.                  ...        0 min,  0.018 sec
     gradient                   ...        0 min,  0.056 sec
 * total energy  :   -57.7582566 Eh     change       -0.8488158E-03 Eh
   gradient norm :     0.0177060 Eh/α   predicted    -0.1137096E-02 (  33.96%)
   displ. norm   :     0.1572446 α      lambda       -0.7488523E-03
   maximum displ.:     0.1001409 α      in ANC's #3, #1, #6, ...

........................................................................
.............................. CYCLE   13 ..............................
........................................................................
   1    -58.3201704 -0.583202E+02  0.373E-02    0.42       0.0  T
   2    -58.3201561  0.143370E-04  0.466E-02    0.37       1.0  T
   3    -58.3202433 -0.871571E-04  0.108E-02    0.39       1.6  T
   4    -58.3202408  0.249212E-05  0.987E-03    0.39       1.8  T
   5    -58.3202439 -0.310448E-05  0.473E-03    0.39       3.7  T
   6    -58.3202445 -0.599870E-06  0.568E-04    0.39      30.7  T
   7    -58.3202445 -0.130548E-07  0.152E-04    0.39     114.7  T
   8    -58.3202445  0.280217E-09  0.120E-04    0.39     145.4  T
     SCC iter.                  ...        0 min,  0.017 sec
     gradient                   ...        0 min,  0.056 sec
 * total energy  :   -57.7586329 Eh     change       -0.3763012E-03 Eh
   gradient norm :     0.0198463 Eh/α   predicted    -0.3836923E-03 (   1.96%)
   displ. norm   :     0.1892915 α      lambda       -0.6952574E-03
   maximum displ.:     0.0856598 α      in ANC's #1, #3, #16, ...

........................................................................
.............................. CYCLE   14 ..............................
........................................................................
   1    -58.3245136 -0.583245E+02  0.608E-02    0.44       0.0  T
   2    -58.3243923  0.121327E-03  0.878E-02    0.35       1.0  T
   3    -58.3247758 -0.383554E-03  0.131E-02    0.40       1.3  T
   4    -58.3247756  0.287731E-06  0.115E-02    0.39       1.5  T
   5    -58.3247774 -0.184134E-05  0.747E-03    0.39       2.3  T
   6    -58.3247788 -0.136678E-05  0.144E-03    0.40      12.0  T
   7    -58.3247789 -0.974319E-07  0.232E-04    0.40      75.1  T
   8    -58.3247789 -0.197140E-09  0.121E-04    0.40     143.7  T
   9    -58.3247789 -0.518710E-09  0.232E-05    0.40     749.8  T
     SCC iter.                  ...        0 min,  0.018 sec
     gradient                   ...        0 min,  0.056 sec
 * total energy  :   -57.7590675 Eh     change       -0.4346157E-03 Eh
   gradient norm :     0.0078011 Eh/α   predicted    -0.3600930E-03 ( -17.15%)
   displ. norm   :     0.4207511 α      lambda       -0.5068744E-03
   maximum displ.:     0.2180395 α      in ANC's #3, #1, #8, ...

........................................................................
.............................. CYCLE   15 ..............................
........................................................................
   1    -58.3233841 -0.583234E+02  0.640E-02    0.47       0.0  T
   2    -58.3233859 -0.178679E-05  0.690E-02    0.36       1.0  T
   3    -58.3236174 -0.231516E-03  0.728E-03    0.41       2.4  T
   4    -58.3236172  0.177775E-06  0.691E-03    0.40       2.5  T
   5    -58.3236178 -0.591625E-06  0.375E-03    0.41       4.6  T
   6    -58.3236183 -0.432188E-06  0.124E-03    0.41      14.0  T
   7    -58.3236183 -0.616965E-07  0.263E-04    0.41      66.1  T
   8    -58.3236183 -0.134120E-08  0.965E-05    0.41     180.4  T
   9    -58.3236183 -0.227587E-09  0.123E-05    0.41    1417.5  T
     SCC iter.                  ...        0 min,  0.018 sec
     gradient                   ...        0 min,  0.056 sec
 * total energy  :   -57.7594036 Eh     change       -0.3361103E-03 Eh
   gradient norm :     0.0079004 Eh/α   predicted    -0.2983087E-03 ( -11.25%)
   displ. norm   :     0.2837865 α      lambda       -0.3436393E-03
   maximum displ.:     0.1486550 α      in ANC's #1, #3, #14, ...

........................................................................
.............................. CYCLE   16 ..............................
........................................................................
   1    -58.3241527 -0.583242E+02  0.545E-02    0.48       0.0  T
   2    -58.3242170 -0.642954E-04  0.431E-02    0.40       1.0  T
   3    -58.3243026 -0.856428E-04  0.597E-03    0.43       2.9  T
   4    -58.3243029 -0.228449E-06  0.490E-03    0.43       3.6  T
   5    -58.3243033 -0.416654E-06  0.141E-03    0.43      12.3  T
   6    -58.3243033 -0.286510E-07  0.431E-04    0.43      40.4  T
   7    -58.3243033 -0.753521E-08  0.170E-04    0.43     102.6  T
   8    -58.3243033 -0.225221E-09  0.610E-05    0.43     285.5  T
     SCC iter.                  ...        0 min,  0.019 sec
     gradient                   ...        0 min,  0.056 sec
 * total energy  :   -57.7596836 Eh     change       -0.2799614E-03 Eh
   gradient norm :     0.0084533 Eh/α   predicted    -0.1856668E-03 ( -33.68%)
   displ. norm   :     0.4598879 α      lambda       -0.6144213E-03
   maximum displ.:     0.2570303 α      in ANC's #1, #3, #14, ...

........................................................................
.............................. CYCLE   17 ..............................
........................................................................
   1    -58.3254967 -0.583255E+02  0.946E-02    0.57       0.0  T
   2    -58.3258099 -0.313195E-03  0.511E-02    0.47       1.0  T
   3    -58.3259174 -0.107507E-03  0.118E-02    0.49       1.5  T
   4    -58.3259191 -0.172028E-05  0.795E-03    0.49       2.2  T
   5    -58.3259201 -0.962360E-06  0.190E-03    0.49       9.2  T
   6    -58.3259201 -0.168884E-07  0.470E-04    0.49      37.0  T
   7    -58.3259201 -0.241577E-08  0.226E-04    0.49      77.1  T
   8    -58.3259201 -0.168498E-09  0.482E-05    0.49     361.4  T
   9    -58.3259201 -0.263753E-10  0.127E-05    0.49    1374.8  T
     SCC iter.                  ...        0 min,  0.019 sec
     gradient                   ...        0 min,  0.057 sec
 * total energy  :   -57.7602538 Eh     change       -0.5701423E-03 Eh
   gradient norm :     0.0132704 Eh/α   predicted    -0.3721853E-03 ( -34.72%)
   displ. norm   :     0.8346212 α      lambda       -0.1432333E-02
   maximum displ.:     0.4579770 α      in ANC's #1, #3, #14, ...

........................................................................
.............................. CYCLE   18 ..............................
........................................................................
   1    -58.3232724 -0.583233E+02  0.183E-01    0.72       0.0  T
   2    -58.3245089 -0.123650E-02  0.624E-02    0.65       1.0  T
   3    -58.3246218 -0.112832E-03  0.241E-02    0.65       1.0  T
   4    -58.3246264 -0.460132E-05  0.129E-02    0.64       1.4  T
   5    -58.3246267 -0.306180E-06  0.334E-03    0.64       5.2  T
   6    -58.3246270 -0.342631E-06  0.864E-04    0.64      20.2  T
   7    -58.3246270 -0.565942E-08  0.362E-04    0.64      48.1  T
   8    -58.3246270 -0.100043E-08  0.504E-05    0.64     345.4  T
   9    -58.3246270 -0.431939E-10  0.118E-05    0.64    1472.2  T
     SCC iter.                  ...        0 min,  0.018 sec
     gradient                   ...        0 min,  0.057 sec
 * total energy  :   -57.7621056 Eh     change       -0.1851851E-02 Eh
   gradient norm :     0.0376991 Eh/α   predicted    -0.1215044E-02 ( -34.39%)
   displ. norm   :     0.7320770 α      lambda       -0.2987642E-02
   maximum displ.:     0.3610567 α      in ANC's #1, #3, #14, ...

........................................................................
.............................. CYCLE   19 ..............................
........................................................................
   1    -58.3234097 -0.583234E+02  0.200E-01    0.75       0.0  T
   2    -58.3248020 -0.139228E-02  0.513E-02    0.75       1.0  T
   3    -58.3248651 -0.631647E-04  0.263E-02    0.75       1.0  T
   4    -58.3248687 -0.355381E-05  0.125E-02    0.75       1.4  T
   5    -58.3248687 -0.215787E-07  0.241E-03    0.75       7.2  T
   6    -58.3248688 -0.153217E-06  0.629E-04    0.75      27.7  T
   7    -58.3248688 -0.269790E-08  0.275E-04    0.75      63.4  T
   8    -58.3248688 -0.415781E-09  0.694E-05    0.75     250.9  T
   9    -58.3248688 -0.684750E-10  0.145E-05    0.75    1203.4  T
     SCC iter.                  ...        0 min,  0.016 sec
     gradient                   ...        0 min,  0.049 sec
 * total energy  :   -57.7661720 Eh     change       -0.4066376E-02 Eh
   gradient norm :     0.0646608 Eh/α   predicted    -0.2294398E-02 ( -43.58%)
   displ. norm   :     0.5495090 α      lambda       -0.6665616E-02
   maximum displ.:     0.2117496 α      in ANC's #1, #3, #14, ...

........................................................................
.............................. CYCLE   20 ..............................
........................................................................
   1    -58.3314432 -0.583314E+02  0.210E-01    0.72       0.0  T
   2    -58.3329373 -0.149414E-02  0.542E-02    0.75       1.0  T
   3    -58.3329987 -0.613678E-04  0.285E-02    0.75       1.0  T
   4    -58.3330033 -0.463023E-05  0.129E-02    0.75       1.4  T
   5    -58.3330034 -0.123195E-06  0.333E-03    0.76       5.2  T
   6    -58.3330037 -0.286815E-06  0.854E-04    0.76      20.4  T
   7    -58.3330037 -0.457190E-08  0.287E-04    0.76      60.7  T
   8    -58.3330037 -0.305903E-09  0.854E-05    0.76     203.9  T
   9    -58.3330037 -0.463487E-10  0.174E-05    0.76    1002.3  T
     SCC iter.                  ...        0 min,  0.013 sec
     gradient                   ...        0 min,  0.042 sec
 * total energy  :   -57.7736573 Eh     change       -0.7485360E-02 Eh
   gradient norm :     0.0783427 Eh/α   predicted    -0.4339164E-02 ( -42.03%)
   displ. norm   :     0.5534863 α      lambda       -0.8983481E-02
   maximum displ.:     0.2459094 α      in ANC's #3, #1, #14, ...
 * RMSD in coord.:     1.3163606 α      energy gain  -0.6236018E-01 Eh

generating ANC from model Hessian ...
Using Lindh-Hessian (1995)
 Shifting diagonal of input Hessian by   9.402978181784077E-003
 Lowest  eigenvalues of input Hessian
    0.000000    0.000000    0.000000    0.000000    0.000000    0.000000
    0.010000    0.010676    0.011297    0.011707    0.013535    0.014649
    0.015593    0.018374    0.019095    0.019593    0.020331    0.021329
 Highest eigenvalues
    1.783890    1.894005    2.039360    2.165585    2.422045    2.464655
 

........................................................................
.............................. CYCLE   21 ..............................
........................................................................
   1    -58.3419536 -0.583420E+02  0.192E-01    0.69       0.0  T
   2    -58.3432780 -0.132436E-02  0.542E-02    0.71       1.0  T
   3    -58.3433289 -0.509187E-04  0.260E-02    0.71       1.0  T
   4    -58.3433326 -0.370775E-05  0.123E-02    0.72       1.4  T
   5    -58.3433332 -0.584369E-06  0.263E-03    0.72       6.6  T
   6    -58.3433334 -0.149151E-06  0.100E-03    0.72      17.4  T
   7    -58.3433334 -0.412934E-08  0.254E-04    0.72      68.6  T
   8    -58.3433334 -0.298193E-09  0.757E-05    0.72     229.8  T
   9    -58.3433334 -0.276117E-10  0.183E-05    0.72     952.4  T
     SCC iter.                  ...        0 min,  0.015 sec
     gradient                   ...        0 min,  0.053 sec
 * total energy  :   -57.7818426 Eh     change       -0.8185213E-02 Eh
   gradient norm :     0.0819891 Eh/α   predicted     0.0000000E+00 (-100.00%)
   displ. norm   :     0.3972540 α      lambda       -0.1706722E-01
   maximum displ.:     0.1556512 α      in ANC's #22, #28, #23, ...

........................................................................
.............................. CYCLE   22 ..............................
........................................................................
   1    -58.3607433 -0.583607E+02  0.882E-02    0.65       0.0  T
   2    -58.3609906 -0.247286E-03  0.374E-02    0.67       1.0  T
   3    -58.3610022 -0.116155E-04  0.196E-02    0.67       1.0  T
   4    -58.3610031 -0.931908E-06  0.723E-03    0.67       2.4  T
   5    -58.3610036 -0.543150E-06  0.139E-03    0.67      12.5  T
   6    -58.3610037 -0.138294E-07  0.717E-04    0.67      24.3  T
   7    -58.3610037 -0.188945E-08  0.160E-04    0.67     109.1  T
   8    -58.3610037 -0.318948E-09  0.560E-05    0.67     310.7  T
     SCC iter.                  ...        0 min,  0.016 sec
     gradient                   ...        0 min,  0.053 sec
 * total energy  :   -57.7948001 Eh     change       -0.1295750E-01 Eh
   gradient norm :     0.0411252 Eh/α   predicted    -0.9880410E-02 ( -23.75%)
   displ. norm   :     0.4835874 α      lambda       -0.1180375E-01
   maximum displ.:     0.1946817 α      in ANC's #22, #14, #20, ...

........................................................................
.............................. CYCLE   23 ..............................
........................................................................
   1    -58.3708525 -0.583709E+02  0.103E-01    0.57       0.0  T
   2    -58.3712608 -0.408213E-03  0.515E-02    0.65       1.0  T
   3    -58.3712943 -0.335165E-04  0.234E-02    0.63       1.0  T
   4    -58.3712954 -0.117439E-05  0.131E-02    0.64       1.3  T
   5    -58.3712967 -0.127441E-05  0.230E-03    0.64       7.6  T
   6    -58.3712968 -0.452284E-07  0.988E-04    0.64      17.6  T
   7    -58.3712968 -0.475786E-08  0.307E-04    0.64      56.7  T
   8    -58.3712968 -0.101723E-08  0.749E-05    0.64     232.4  T
   9    -58.3712968 -0.216147E-10  0.169E-05    0.64    1027.3  T
     SCC iter.                  ...        0 min,  0.019 sec
     gradient                   ...        0 min,  0.055 sec
 * total energy  :   -57.8022884 Eh     change       -0.7488356E-02 Eh
   gradient norm :     0.0279144 Eh/α   predicted    -0.7282067E-02 (  -2.75%)
   displ. norm   :     0.3591778 α      lambda       -0.3329515E-02
   maximum displ.:     0.1723755 α      in ANC's #14, #6, #22, ...

........................................................................
.............................. CYCLE   24 ..............................
........................................................................
   1    -58.3721880 -0.583722E+02  0.564E-02    0.58       0.0  T
   2    -58.3723043 -0.116265E-03  0.311E-02    0.65       1.0  T
   3    -58.3723266 -0.223571E-04  0.114E-02    0.63       1.5  T
   4    -58.3723270 -0.386916E-06  0.642E-03    0.63       2.7  T
   5    -58.3723272 -0.183982E-06  0.116E-03    0.63      15.1  T
   6    -58.3723272 -0.144185E-07  0.376E-04    0.63      46.3  T
   7    -58.3723272 -0.779451E-09  0.161E-04    0.63     108.3  T
   8    -58.3723272 -0.144510E-09  0.437E-05    0.63     398.7  T
     SCC iter.                  ...        0 min,  0.015 sec
     gradient                   ...        0 min,  0.054 sec
 * total energy  :   -57.8046977 Eh     change       -0.2409248E-02 Eh
   gradient norm :     0.0208919 Eh/α   predicted    -0.1879970E-02 ( -21.97%)
   displ. norm   :     0.3527039 α      lambda       -0.2004001E-02
   maximum displ.:     0.2019740 α      in ANC's #6, #14, #22, ...

........................................................................
.............................. CYCLE   25 ..............................
........................................................................
   1    -58.3730734 -0.583731E+02  0.448E-02    0.60       0.0  T
   2    -58.3731359 -0.625312E-04  0.246E-02    0.66       1.0  T
   3    -58.3731544 -0.184670E-04  0.762E-03    0.63       2.3  T
   4    -58.3731547 -0.294876E-06  0.415E-03    0.64       4.2  T
   5    -58.3731547 -0.460943E-07  0.733E-04    0.64      23.8  T
   6    -58.3731547 -0.640802E-08  0.226E-04    0.64      76.9  T
   7    -58.3731547 -0.383515E-09  0.112E-04    0.64     155.1  T
   8    -58.3731547 -0.509601E-10  0.358E-05    0.64     485.9  T
     SCC iter.                  ...        0 min,  0.015 sec
     gradient                   ...        0 min,  0.030 sec
 * total energy  :   -57.8060537 Eh     change       -0.1356014E-02 Eh
   gradient norm :     0.0124394 Eh/α   predicted    -0.1126657E-02 ( -16.91%)
   displ. norm   :     0.2609470 α      lambda       -0.7401910E-03
   maximum displ.:     0.1678148 α      in ANC's #6, #14, #12, ...

........................................................................
.............................. CYCLE   26 ..............................
........................................................................
   1    -58.3752073 -0.583752E+02  0.216E-02    0.64       0.0  T
   2    -58.3752215 -0.141512E-04  0.118E-02    0.67       1.5  T
   3    -58.3752258 -0.427146E-05  0.387E-03    0.66       4.5  T
   4    -58.3752259 -0.101304E-06  0.204E-03    0.66       8.5  T
   5    -58.3752259 -0.912658E-08  0.418E-04    0.66      41.7  T
   6    -58.3752259 -0.173361E-08  0.130E-04    0.66     133.4  T
   7    -58.3752259 -0.191015E-09  0.597E-05    0.66     291.5  T
     SCC iter.                  ...        0 min,  0.010 sec
     gradient                   ...        0 min,  0.031 sec
 * total energy  :   -57.8065477 Eh     change       -0.4940263E-03 Eh
   gradient norm :     0.0069085 Eh/α   predicted    -0.3952972E-03 ( -19.98%)
   displ. norm   :     0.1985512 α      lambda       -0.2787275E-03
   maximum displ.:     0.1216989 α      in ANC's #6, #1, #11, ...

........................................................................
.............................. CYCLE   27 ..............................
........................................................................
   1    -58.3760693 -0.583761E+02  0.995E-03    0.67       0.0  T
   2    -58.3760727 -0.349005E-05  0.436E-03    0.68       4.0  T
   3    -58.3760732 -0.505674E-06  0.193E-03    0.67       9.0  T
   4    -58.3760733 -0.474830E-07  0.967E-04    0.68      18.0  T
   5    -58.3760733 -0.261588E-08  0.254E-04    0.68      68.6  T
   6    -58.3760733 -0.350624E-09  0.719E-05    0.68     242.2  T
   7    -58.3760733 -0.750546E-10  0.305E-05    0.68     570.0  T
     SCC iter.                  ...        0 min,  0.010 sec
     gradient                   ...        0 min,  0.030 sec
 * total energy  :   -57.8067402 Eh     change       -0.1925354E-03 Eh
   gradient norm :     0.0051268 Eh/α   predicted    -0.1448588E-03 ( -24.76%)
   displ. norm   :     0.1967261 α      lambda       -0.1894731E-03
   maximum displ.:     0.1038369 α      in ANC's #6, #1, #11, ...

........................................................................
.............................. CYCLE   28 ..............................
........................................................................
   1    -58.3765948 -0.583766E+02  0.932E-03    0.69       0.0  T
   2    -58.3765977 -0.286432E-05  0.374E-03    0.70       4.7  T
   3    -58.3765980 -0.383485E-06  0.182E-03    0.70       9.6  T
   4    -58.3765981 -0.514299E-07  0.867E-04    0.70      20.1  T
   5    -58.3765981 -0.963553E-09  0.193E-04    0.70      90.3  T
   6    -58.3765981 -0.275463E-09  0.578E-05    0.70     301.1  T
     SCC iter.                  ...        0 min,  0.008 sec
     gradient                   ...        0 min,  0.030 sec
 * total energy  :   -57.8068882 Eh     change       -0.1479499E-03 Eh
   gradient norm :     0.0046753 Eh/α   predicted    -0.9840570E-04 ( -33.49%)
   displ. norm   :     0.3067521 α      lambda       -0.2658592E-03
   maximum displ.:     0.1542883 α      in ANC's #1, #6, #3, ...

........................................................................
.............................. CYCLE   29 ..............................
........................................................................
   1    -58.3759332 -0.583759E+02  0.145E-02    0.72       0.0  T
   2    -58.3759385 -0.523618E-05  0.650E-03    0.73       2.7  T
   3    -58.3759396 -0.114606E-05  0.327E-03    0.73       5.3  T
   4    -58.3759397 -0.108619E-06  0.148E-03    0.73      11.8  T
   5    -58.3759397 -0.914333E-09  0.214E-04    0.73      81.4  T
   6    -58.3759397 -0.727752E-09  0.775E-05    0.73     224.5  T
   7    -58.3759397 -0.911768E-10  0.292E-05    0.73     595.5  T
     SCC iter.                  ...        0 min,  0.010 sec
     gradient                   ...        0 min,  0.030 sec
 * total energy  :   -57.8070922 Eh     change       -0.2039691E-03 Eh
   gradient norm :     0.0073782 Eh/α   predicted    -0.1454385E-03 ( -28.70%)
   displ. norm   :     0.3542569 α      lambda       -0.2929004E-03
   maximum displ.:     0.1952881 α      in ANC's #1, #3, #11, ...

........................................................................
.............................. CYCLE   30 ..............................
........................................................................
   1    -58.3747907 -0.583748E+02  0.176E-02    0.75       0.0  T
   2    -58.3747977 -0.703550E-05  0.900E-03    0.77       1.9  T
   3    -58.3748003 -0.260077E-05  0.371E-03    0.76       4.7  T
   4    -58.3748004 -0.807207E-07  0.165E-03    0.76      10.5  T
   5    -58.3748004 -0.830795E-09  0.265E-04    0.76      65.6  T
   6    -58.3748004 -0.129181E-08  0.958E-05    0.76     181.7  T
   7    -58.3748004 -0.147679E-09  0.317E-05    0.76     549.5  T
     SCC iter.                  ...        0 min,  0.010 sec
     gradient                   ...        0 min,  0.051 sec
 * total energy  :   -57.8073188 Eh     change       -0.2266035E-03 Eh
   gradient norm :     0.0113174 Eh/α   predicted    -0.1648303E-03 ( -27.26%)
   displ. norm   :     0.3748529 α      lambda       -0.3715082E-03
   maximum displ.:     0.2251481 α      in ANC's #1, #3, #11, ...

........................................................................
.............................. CYCLE   31 ..............................
........................................................................
   1    -58.3739292 -0.583739E+02  0.201E-02    0.78       0.0  T
   2    -58.3739390 -0.980546E-05  0.111E-02    0.81       1.6  T
   3    -58.3739433 -0.436544E-05  0.336E-03    0.80       5.2  T
   4    -58.3739434 -0.451554E-07  0.161E-03    0.80      10.8  T
   5    -58.3739434 -0.196278E-08  0.340E-04    0.80      51.1  T
   6    -58.3739434 -0.161594E-08  0.120E-04    0.80     145.5  T
   7    -58.3739434 -0.194603E-09  0.409E-05    0.80     425.8  T
     SCC iter.                  ...        0 min,  0.014 sec
     gradient                   ...        0 min,  0.053 sec
 * total energy  :   -57.8076245 Eh     change       -0.3057097E-03 Eh
   gradient norm :     0.0120403 Eh/α   predicted    -0.2118630E-03 ( -30.70%)
   displ. norm   :     0.4651669 α      lambda       -0.5649430E-03
   maximum displ.:     0.2950377 α      in ANC's #1, #3, #11, ...

........................................................................
.............................. CYCLE   32 ..............................
........................................................................
   1    -58.3738586 -0.583739E+02  0.297E-02    0.80       0.0  T
   2    -58.3738810 -0.224680E-04  0.173E-02    0.85       1.0  T
   3    -58.3738914 -0.103338E-04  0.438E-03    0.83       4.0  T
   4    -58.3738914 -0.766227E-07  0.222E-03    0.83       7.8  T
   5    -58.3738915 -0.105622E-07  0.494E-04    0.83      35.2  T
   6    -58.3738915 -0.245745E-08  0.180E-04    0.83      96.5  T
   7    -58.3738915 -0.455358E-09  0.644E-05    0.83     270.4  T
     SCC iter.                  ...        0 min,  0.014 sec
     gradient                   ...        0 min,  0.053 sec
 * total energy  :   -57.8080734 Eh     change       -0.4489795E-03 Eh
   gradient norm :     0.0093594 Eh/α   predicted    -0.3435987E-03 ( -23.47%)
   displ. norm   :     0.5613774 α      lambda       -0.5678162E-03
   maximum displ.:     0.3622694 α      in ANC's #1, #3, #11, ...

........................................................................
.............................. CYCLE   33 ..............................
........................................................................
   1    -58.3715737 -0.583716E+02  0.386E-02    0.84       0.0  T
   2    -58.3716089 -0.352444E-04  0.233E-02    0.89       1.0  T
   3    -58.3716287 -0.197436E-04  0.456E-03    0.87       3.8  T
   4    -58.3716288 -0.121157E-06  0.235E-03    0.87       7.4  T
   5    -58.3716288 -0.160790E-07  0.594E-04    0.87      29.3  T
   6    -58.3716288 -0.186186E-08  0.206E-04    0.87      84.5  T
   7    -58.3716288 -0.469768E-09  0.778E-05    0.87     223.9  T
   8    -58.3716288 -0.510525E-10  0.211E-05    0.87     825.2  T
     SCC iter.                  ...        0 min,  0.016 sec
     gradient                   ...        0 min,  0.053 sec
 * total energy  :   -57.8085328 Eh     change       -0.4593656E-03 Eh
   gradient norm :     0.0125990 Eh/α   predicted    -0.3733794E-03 ( -18.72%)
   displ. norm   :     0.4931865 α      lambda       -0.8419426E-03
   maximum displ.:     0.3475879 α      in ANC's #1, #3, #11, ...

........................................................................
.............................. CYCLE   34 ..............................
........................................................................
   1    -58.3797256 -0.583797E+02  0.439E-02    0.87       0.0  T
   2    -58.3797736 -0.480443E-04  0.281E-02    0.93       1.0  T
   3    -58.3797955 -0.218679E-04  0.919E-03    0.90       1.9  T
   4    -58.3797956 -0.126379E-06  0.489E-03    0.91       3.6  T
   5    -58.3797958 -0.138627E-06  0.706E-04    0.90      24.7  T
   6    -58.3797958 -0.610076E-08  0.262E-04    0.90      66.5  T
   7    -58.3797958 -0.977892E-09  0.104E-04    0.90     166.8  T
   8    -58.3797958 -0.970886E-10  0.224E-05    0.90     778.3  T
     SCC iter.                  ...        0 min,  0.016 sec
     gradient                   ...        0 min,  0.053 sec
 * total energy  :   -57.8089672 Eh     change       -0.4343678E-03 Eh
   gradient norm :     0.0157070 Eh/α   predicted    -0.5233880E-03 (  20.49%)
   displ. norm   :     0.6158437 α      lambda       -0.8441358E-03
   maximum displ.:     0.3946749 α      in ANC's #1, #3, #11, ...

........................................................................
.............................. CYCLE   35 ..............................
........................................................................
   1    -58.3718298 -0.583718E+02  0.476E-02    0.91       0.0  T
   2    -58.3718738 -0.439257E-04  0.301E-02    0.98       1.0  T
   3    -58.3719043 -0.305765E-04  0.906E-03    0.95       1.9  T
   4    -58.3719047 -0.366667E-06  0.422E-03    0.95       4.1  T
   5    -58.3719047 -0.412737E-07  0.722E-04    0.95      24.1  T
   6    -58.3719047 -0.433400E-08  0.248E-04    0.95      70.1  T
   7    -58.3719048 -0.583761E-09  0.820E-05    0.95     212.2  T
   8    -58.3719048 -0.812008E-10  0.260E-05    0.95     670.5  T
     SCC iter.                  ...        0 min,  0.016 sec
     gradient                   ...        0 min,  0.053 sec
 * total energy  :   -57.8094850 Eh     change       -0.5178248E-03 Eh
   gradient norm :     0.0181517 Eh/α   predicted    -0.5821472E-03 (  12.42%)
   displ. norm   :     0.2140158 α      lambda       -0.7975058E-03
   maximum displ.:     0.1208972 α      in ANC's #1, #6, #3, ...

........................................................................
.............................. CYCLE   36 ..............................
........................................................................
   1    -58.3759606 -0.583760E+02  0.240E-02    0.97       0.0  T
   2    -58.3759717 -0.111174E-04  0.134E-02    0.98       1.3  T
   3    -58.3759737 -0.198027E-05  0.714E-03    0.97       2.4  T
   4    -58.3759741 -0.451770E-06  0.328E-03    0.98       5.3  T
   5    -58.3759742 -0.902436E-07  0.376E-04    0.98      46.3  T
   6    -58.3759742 -0.182645E-08  0.139E-04    0.98     125.6  T
   7    -58.3759742 -0.199229E-09  0.581E-05    0.98     299.4  T
     SCC iter.                  ...        0 min,  0.014 sec
     gradient                   ...        0 min,  0.053 sec
 * total energy  :   -57.8099482 Eh     change       -0.4632163E-03 Eh
   gradient norm :     0.0172892 Eh/α   predicted    -0.4170174E-03 (  -9.97%)
   displ. norm   :     0.4480366 α      lambda       -0.7916233E-03
   maximum displ.:     0.3171060 α      in ANC's #1, #3, #6, ...

........................................................................
.............................. CYCLE   37 ..............................
........................................................................
   1    -58.3778246 -0.583778E+02  0.315E-02    1.00       0.0  T
   2    -58.3778434 -0.188101E-04  0.191E-02    1.04       1.0  T
   3    -58.3778553 -0.118994E-04  0.622E-03    1.02       2.8  T
   4    -58.3778555 -0.243438E-06  0.287E-03    1.02       6.1  T
   5    -58.3778556 -0.184563E-07  0.408E-04    1.02      42.7  T
   6    -58.3778556 -0.327422E-08  0.173E-04    1.02     100.4  T
   7    -58.3778556 -0.462194E-09  0.576E-05    1.02     302.0  T
     SCC iter.                  ...        0 min,  0.014 sec
     gradient                   ...        0 min,  0.052 sec
 * total energy  :   -57.8105034 Eh     change       -0.5551497E-03 Eh
   gradient norm :     0.0155895 Eh/α   predicted    -0.4752692E-03 ( -14.39%)
   displ. norm   :     0.4931840 α      lambda       -0.1045486E-02
   maximum displ.:     0.3617070 α      in ANC's #1, #3, #7, ...

........................................................................
.............................. CYCLE   38 ..............................
........................................................................
   1    -58.3815697 -0.583816E+02  0.349E-02    1.04       0.0  T
   2    -58.3815889 -0.192772E-04  0.206E-02    1.08       1.0  T
   3    -58.3815996 -0.106403E-04  0.954E-03    1.06       1.8  T
   4    -58.3816001 -0.574498E-06  0.335E-03    1.07       5.2  T
   5    -58.3816002 -0.332903E-07  0.559E-04    1.07      31.1  T
   6    -58.3816002 -0.491702E-08  0.162E-04    1.07     107.6  T
   7    -58.3816002 -0.473136E-09  0.596E-05    1.07     292.0  T
     SCC iter.                  ...        0 min,  0.014 sec
     gradient                   ...        0 min,  0.041 sec
 * total energy  :   -57.8110301 Eh     change       -0.5267361E-03 Eh
   gradient norm :     0.0176648 Eh/α   predicted    -0.6498914E-03 (  23.38%)
   displ. norm   :     0.5634762 α      lambda       -0.9507509E-03
   maximum displ.:     0.3957123 α      in ANC's #1, #3, #11, ...

........................................................................
.............................. CYCLE   39 ..............................
........................................................................
   1    -58.3753277 -0.583753E+02  0.397E-02    1.09       0.0  T
   2    -58.3753522 -0.244660E-04  0.228E-02    1.14       1.0  T
   3    -58.3753702 -0.180317E-04  0.894E-03    1.12       1.9  T
   4    -58.3753707 -0.484874E-06  0.321E-03    1.12       5.4  T
   5    -58.3753707 -0.131506E-07  0.451E-04    1.12      38.6  T
   6    -58.3753707 -0.232989E-08  0.203E-04    1.12      85.6  T
   7    -58.3753707 -0.467779E-09  0.727E-05    1.12     239.3  T
   8    -58.3753707 -0.569429E-10  0.153E-05    1.12    1138.2  T
     SCC iter.                  ...        0 min,  0.016 sec
     gradient                   ...        0 min,  0.053 sec
 * total energy  :   -57.8117151 Eh     change       -0.6849611E-03 Eh
   gradient norm :     0.0122886 Eh/α   predicted    -0.6263117E-03 (  -8.56%)
   displ. norm   :     0.3244177 α      lambda       -0.1120855E-02
   maximum displ.:     0.1729223 α      in ANC's #1, #3, #26, ...

........................................................................
.............................. CYCLE   40 ..............................
........................................................................
   1    -58.3862276 -0.583862E+02  0.396E-02    1.16       0.0  T
   2    -58.3862589 -0.312872E-04  0.201E-02    1.16       1.0  T
   3    -58.3862607 -0.179883E-05  0.110E-02    1.16       1.6  T
   4    -58.3862609 -0.180685E-06  0.393E-03    1.16       4.4  T
   5    -58.3862611 -0.261611E-06  0.974E-04    1.16      17.9  T
   6    -58.3862612 -0.277594E-07  0.278E-04    1.16      62.6  T
   7    -58.3862612 -0.172301E-08  0.690E-05    1.16     252.2  T
   8    -58.3862612 -0.352571E-10  0.241E-05    1.16     721.2  T
     SCC iter.                  ...        0 min,  0.016 sec
     gradient                   ...        0 min,  0.053 sec
 * total energy  :   -57.8117302 Eh     change       -0.1517051E-04 Eh
   gradient norm :     0.0336793 Eh/α   predicted    -0.6194163E-03 (3983.03%)
   displ. norm   :     0.4469283 α      lambda       -0.1468974E-02
   maximum displ.:     0.3182373 α      in ANC's #1, #3, #11, ...

........................................................................
.............................. CYCLE   41 ..............................
........................................................................
   1    -58.3761568 -0.583762E+02  0.513E-02    1.17       0.0  T
   2    -58.3762063 -0.494324E-04  0.258E-02    1.22       1.0  T
   3    -58.3762288 -0.225412E-04  0.119E-02    1.20       1.5  T
   4    -58.3762299 -0.113004E-05  0.485E-03    1.20       3.6  T
   5    -58.3762300 -0.232600E-07  0.613E-04    1.20      28.4  T
   6    -58.3762300 -0.628329E-08  0.210E-04    1.20      83.1  T
   7    -58.3762300 -0.617462E-09  0.537E-05    1.20     324.2  T
   8    -58.3762300 -0.326565E-10  0.212E-05    1.20     823.1  T
     SCC iter.                  ...        0 min,  0.011 sec
     gradient                   ...        0 min,  0.030 sec
 * total energy  :   -57.8125595 Eh     change       -0.8292311E-03 Eh
   gradient norm :     0.0174808 Eh/α   predicted    -0.8811984E-03 (   6.27%)
   displ. norm   :     0.2044594 α      lambda       -0.6635940E-03
   maximum displ.:     0.1555443 α      in ANC's #1, #3, #7, ...

........................................................................
.............................. CYCLE   42 ..............................
........................................................................
   1    -58.3777631 -0.583778E+02  0.330E-02    1.21       0.0  T
   2    -58.3777810 -0.179133E-04  0.202E-02    1.24       1.0  T
   3    -58.3777916 -0.105595E-04  0.828E-03    1.23       2.1  T
   4    -58.3777919 -0.311600E-06  0.298E-03    1.23       5.8  T
   5    -58.3777919 -0.418469E-07  0.480E-04    1.23      36.3  T
   6    -58.3777919 -0.240458E-08  0.164E-04    1.23     106.3  T
   7    -58.3777919 -0.340009E-09  0.566E-05    1.23     307.5  T
     SCC iter.                  ...        0 min,  0.010 sec
     gradient                   ...        0 min,  0.030 sec
 * total energy  :   -57.8129052 Eh     change       -0.3456836E-03 Eh
   gradient norm :     0.0127179 Eh/α   predicted    -0.3456707E-03 (  -0.00%)
   displ. norm   :     0.4753566 α      lambda       -0.6672343E-03
   maximum displ.:     0.3361013 α      in ANC's #1, #3, #7, ...
 * RMSD in coord.:     1.1753715 α      energy gain  -0.3924781E-01 Eh

generating ANC from model Hessian ...
Using Lindh-Hessian (1995)
 Shifting diagonal of input Hessian by   9.385204627036304E-003
 Lowest  eigenvalues of input Hessian
    0.000000    0.000000    0.000000    0.000000    0.000000    0.000000
    0.010000    0.010478    0.011036    0.011674    0.013154    0.013663
    0.015375    0.018236    0.018520    0.019083    0.019482    0.020023
 Highest eigenvalues
    1.781606    1.850361    2.024497    2.124445    2.400776    2.426986
 

........................................................................
.............................. CYCLE   43 ..............................
........................................................................
   1    -58.3783771 -0.583784E+02  0.374E-02    1.26       0.0  T
   2    -58.3784071 -0.299459E-04  0.261E-02    1.31       1.0  T
   3    -58.3784317 -0.246412E-04  0.363E-03    1.29       4.8  T
   4    -58.3784317 -0.434145E-07  0.207E-03    1.29       8.4  T
   5    -58.3784318 -0.172572E-07  0.301E-04    1.29      57.8  T
   6    -58.3784318 -0.772935E-09  0.132E-04    1.29     131.8  T
   7    -58.3784318 -0.162004E-09  0.567E-05    1.29     307.1  T
     SCC iter.                  ...        0 min,  0.010 sec
     gradient                   ...        0 min,  0.030 sec
 * total energy  :   -57.8134583 Eh     change       -0.5531386E-03 Eh
   gradient norm :     0.0130944 Eh/α   predicted     0.0000000E+00 (-100.00%)
   displ. norm   :     0.1352466 α      lambda       -0.5769659E-03
   maximum displ.:     0.0656883 α      in ANC's #4, #9, #1, ...

........................................................................
.............................. CYCLE   44 ..............................
........................................................................
   1    -58.3836973 -0.583837E+02  0.120E-02    1.29       0.0  T
   2    -58.3836995 -0.221728E-05  0.946E-03    1.31       1.8  T
   3    -58.3837009 -0.140052E-05  0.429E-03    1.30       4.1  T
   4    -58.3837009 -0.499717E-08  0.117E-03    1.30      14.9  T
   5    -58.3837010 -0.131622E-07  0.231E-04    1.30      75.5  T
   6    -58.3837010 -0.297810E-09  0.575E-05    1.30     302.7  T
   7    -58.3837010 -0.401599E-10  0.231E-05    1.30     753.4  T
     SCC iter.                  ...        0 min,  0.010 sec
     gradient                   ...        0 min,  0.030 sec
 * total energy  :   -57.8139129 Eh     change       -0.4546414E-03 Eh
   gradient norm :     0.0054973 Eh/α   predicted    -0.2937612E-03 ( -35.39%)
   displ. norm   :     0.3466969 α      lambda       -0.8133900E-03
   maximum displ.:     0.1691583 α      in ANC's #4, #9, #1, ...

........................................................................
.............................. CYCLE   45 ..............................
........................................................................
   1    -58.3880209 -0.583880E+02  0.297E-02    1.30       0.0  T
   2    -58.3880439 -0.229927E-04  0.261E-02    1.34       1.0  T
   3    -58.3880635 -0.195463E-04  0.718E-03    1.32       2.4  T
   4    -58.3880636 -0.142392E-06  0.283E-03    1.32       6.1  T
   5    -58.3880637 -0.565790E-07  0.391E-04    1.32      44.6  T
   6    -58.3880637 -0.672230E-09  0.129E-04    1.32     135.4  T
   7    -58.3880637 -0.188408E-09  0.425E-05    1.32     409.8  T
     SCC iter.                  ...        0 min,  0.010 sec
     gradient                   ...        0 min,  0.030 sec
 * total energy  :   -57.8145630 Eh     change       -0.6500359E-03 Eh
   gradient norm :     0.0059839 Eh/α   predicted    -0.4556082E-03 ( -29.91%)
   displ. norm   :     0.5819824 α      lambda       -0.9982830E-03
   maximum displ.:     0.2816429 α      in ANC's #4, #1, #9, ...

........................................................................
.............................. CYCLE   46 ..............................
........................................................................
   1    -58.3852738 -0.583853E+02  0.591E-02    1.32       0.0  T
   2    -58.3853529 -0.790476E-04  0.480E-02    1.39       1.0  T
   3    -58.3854287 -0.758294E-04  0.969E-03    1.36       1.8  T
   4    -58.3854290 -0.297258E-06  0.431E-03    1.36       4.0  T
   5    -58.3854291 -0.902522E-07  0.610E-04    1.36      28.5  T
   6    -58.3854291 -0.375148E-08  0.227E-04    1.36      76.6  T
   7    -58.3854291 -0.452495E-09  0.686E-05    1.36     253.7  T
   8    -58.3854291 -0.378790E-10  0.199E-05    1.36     875.4  T
     SCC iter.                  ...        0 min,  0.015 sec
     gradient                   ...        0 min,  0.035 sec
 * total energy  :   -57.8152870 Eh     change       -0.7240597E-03 Eh
   gradient norm :     0.0133837 Eh/α   predicted    -0.6688601E-03 (  -7.62%)
   displ. norm   :     0.4328631 α      lambda       -0.6808296E-03
   maximum displ.:     0.2465252 α      in ANC's #1, #4, #9, ...

........................................................................
.............................. CYCLE   47 ..............................
........................................................................
   1    -58.3827417 -0.583827E+02  0.543E-02    1.36       0.0  T
   2    -58.3828008 -0.590385E-04  0.409E-02    1.43       1.0  T
   3    -58.3828617 -0.608865E-04  0.520E-03    1.40       3.3  T
   4    -58.3828617 -0.782735E-07  0.269E-03    1.40       6.5  T
   5    -58.3828618 -0.262738E-07  0.380E-04    1.40      45.8  T
   6    -58.3828618 -0.116400E-08  0.141E-04    1.40     123.5  T
   7    -58.3828618 -0.119400E-09  0.590E-05    1.40     295.2  T
     SCC iter.                  ...        0 min,  0.010 sec
     gradient                   ...        0 min,  0.030 sec
 * total energy  :   -57.8158150 Eh     change       -0.5279940E-03 Eh
   gradient norm :     0.0131686 Eh/α   predicted    -0.4041989E-03 ( -23.45%)
   displ. norm   :     0.3979663 α      lambda       -0.9835074E-03
   maximum displ.:     0.2711443 α      in ANC's #1, #4, #2, ...

........................................................................
.............................. CYCLE   48 ..............................
........................................................................
   1    -58.3848995 -0.583849E+02  0.670E-02    1.42       0.0  T
   2    -58.3849759 -0.764068E-04  0.472E-02    1.49       1.0  T
   3    -58.3850547 -0.788406E-04  0.958E-03    1.46       1.8  T
   4    -58.3850549 -0.152135E-06  0.407E-03    1.46       4.3  T
   5    -58.3850549 -0.222727E-07  0.703E-04    1.46      24.8  T
   6    -58.3850549 -0.534484E-08  0.218E-04    1.46      80.0  T
   7    -58.3850549 -0.332882E-09  0.991E-05    1.46     175.7  T
   8    -58.3850549 -0.839648E-10  0.283E-05    1.46     614.2  T
     SCC iter.                  ...        0 min,  0.011 sec
     gradient                   ...        0 min,  0.030 sec
 * total energy  :   -57.8163852 Eh     change       -0.5701758E-03 Eh
   gradient norm :     0.0107242 Eh/α   predicted    -0.5696374E-03 (  -0.09%)
   displ. norm   :     0.4973391 α      lambda       -0.6226230E-03
   maximum displ.:     0.2927359 α      in ANC's #1, #4, #2, ...

........................................................................
.............................. CYCLE   49 ..............................
........................................................................
   1    -58.3807538 -0.583808E+02  0.671E-02    1.48       0.0  T
   2    -58.3808498 -0.959889E-04  0.509E-02    1.56       1.0  T
   3    -58.3809406 -0.907636E-04  0.683E-03    1.53       2.5  T
   4    -58.3809407 -0.147152E-06  0.379E-03    1.53       4.6  T
   5    -58.3809408 -0.688641E-07  0.550E-04    1.53      31.6  T
   6    -58.3809408 -0.328338E-08  0.167E-04    1.53     103.9  T
   7    -58.3809408 -0.806040E-10  0.538E-05    1.53     323.7  T
     SCC iter.                  ...        0 min,  0.010 sec
     gradient                   ...        0 min,  0.030 sec
 * total energy  :   -57.8168359 Eh     change       -0.4506742E-03 Eh
   gradient norm :     0.0120622 Eh/α   predicted    -0.3883135E-03 ( -13.84%)
   displ. norm   :     0.4149512 α      lambda       -0.6265129E-03
   maximum displ.:     0.2669663 α      in ANC's #1, #4, #7, ...

........................................................................
.............................. CYCLE   50 ..............................
........................................................................
   1    -58.3829469 -0.583829E+02  0.607E-02    1.57       0.0  T
   2    -58.3830342 -0.872920E-04  0.461E-02    1.64       1.0  T
   3    -58.3831059 -0.717122E-04  0.647E-03    1.61       2.7  T
   4    -58.3831060 -0.140384E-06  0.379E-03    1.61       4.6  T
   5    -58.3831061 -0.945403E-07  0.478E-04    1.61      36.4  T
   6    -58.3831061 -0.231110E-08  0.144E-04    1.61     121.1  T
   7    -58.3831061 -0.184116E-09  0.575E-05    1.61     302.6  T
     SCC iter.                  ...        0 min,  0.010 sec
     gradient                   ...        0 min,  0.030 sec
 * total energy  :   -57.8173403 Eh     change       -0.5044801E-03 Eh
   gradient norm :     0.0115967 Eh/α   predicted    -0.3672033E-03 ( -27.21%)
   displ. norm   :     0.4713960 α      lambda       -0.8572013E-03
   maximum displ.:     0.3229666 α      in ANC's #1, #4, #7, ...

........................................................................
.............................. CYCLE   51 ..............................
........................................................................
   1    -58.3885781 -0.583886E+02  0.800E-02    1.67       0.0  T
   2    -58.3887457 -0.167552E-03  0.591E-02    1.75       1.0  T
   3    -58.3888561 -0.110375E-03  0.106E-02    1.72       1.6  T
   4    -58.3888563 -0.253711E-06  0.591E-03    1.72       2.9  T
   5    -58.3888565 -0.188459E-06  0.773E-04    1.72      22.5  T
   6    -58.3888565 -0.588835E-08  0.216E-04    1.72      80.7  T
   7    -58.3888565 -0.425970E-09  0.970E-05    1.72     179.4  T
   8    -58.3888565 -0.451195E-10  0.293E-05    1.72     594.8  T
     SCC iter.                  ...        0 min,  0.012 sec
     gradient                   ...        0 min,  0.031 sec
 * total energy  :   -57.8179363 Eh     change       -0.5959732E-03 Eh
   gradient norm :     0.0092826 Eh/α   predicted    -0.5238516E-03 ( -12.10%)
   displ. norm   :     0.6803450 α      lambda       -0.7561452E-03
   maximum displ.:     0.4673575 α      in ANC's #1, #4, #2, ...

........................................................................
.............................. CYCLE   52 ..............................
........................................................................
   1    -58.3865617 -0.583866E+02  0.111E-01    1.81       0.0  T
   2    -58.3868961 -0.334347E-03  0.749E-02    1.90       1.0  T
   3    -58.3870772 -0.181132E-03  0.113E-02    1.87       1.5  T
   4    -58.3870776 -0.400981E-06  0.648E-03    1.87       2.7  T
   5    -58.3870778 -0.239664E-06  0.929E-04    1.86      18.7  T
   6    -58.3870778 -0.877861E-08  0.241E-04    1.86      72.2  T
   7    -58.3870778 -0.775174E-09  0.975E-05    1.86     178.6  T
   8    -58.3870778 -0.402736E-10  0.372E-05    1.86     467.4  T
     SCC iter.                  ...        0 min,  0.012 sec
     gradient                   ...        0 min,  0.031 sec
 * total energy  :   -57.8185170 Eh     change       -0.5806330E-03 Eh
   gradient norm :     0.0112704 Eh/α   predicted    -0.5530710E-03 (  -4.75%)
   displ. norm   :     0.5427575 α      lambda       -0.6751321E-03
   maximum displ.:     0.3933261 α      in ANC's #1, #4, #2, ...

........................................................................
.............................. CYCLE   53 ..............................
........................................................................
   1    -58.3889673 -0.583890E+02  0.101E-01    1.96       0.0  T
   2    -58.3892879 -0.320526E-03  0.679E-02    2.03       1.0  T
   3    -58.3894197 -0.131845E-03  0.134E-02    2.00       1.3  T
   4    -58.3894200 -0.304621E-06  0.801E-03    2.00       2.2  T
   5    -58.3894204 -0.422512E-06  0.916E-04    2.00      19.0  T
   6    -58.3894204 -0.537438E-08  0.304E-04    2.00      57.2  T
   7    -58.3894204 -0.103319E-08  0.127E-04    2.00     137.2  T
   8    -58.3894204 -0.694769E-10  0.337E-05    2.00     516.7  T
     SCC iter.                  ...        0 min,  0.011 sec
     gradient                   ...        0 min,  0.030 sec
 * total energy  :   -57.8190922 Eh     change       -0.5752625E-03 Eh
   gradient norm :     0.0139695 Eh/α   predicted    -0.4370094E-03 ( -24.03%)
   displ. norm   :     0.5631946 α      lambda       -0.1155576E-02
   maximum displ.:     0.4180569 α      in ANC's #1, #4, #2, ...

........................................................................
.............................. CYCLE   54 ..............................
........................................................................
   1    -58.3959356 -0.583959E+02  0.146E-01    2.15       0.0  T
   2    -58.3966823 -0.746724E-03  0.917E-02    2.21       1.0  T
   3    -58.3968982 -0.215874E-03  0.217E-02    2.19       1.0  T
   4    -58.3968987 -0.525927E-06  0.129E-02    2.19       1.4  T
   5    -58.3968997 -0.915499E-06  0.149E-03    2.19      11.6  T
   6    -58.3968997 -0.162063E-07  0.563E-04    2.19      30.9  T
   7    -58.3968997 -0.322697E-08  0.201E-04    2.19      86.7  T
   8    -58.3968997 -0.190255E-09  0.549E-05    2.19     316.8  T
   9    -58.3968997 -0.205915E-10  0.140E-05    2.19    1243.5  T
     SCC iter.                  ...        0 min,  0.013 sec
     gradient                   ...        0 min,  0.031 sec
 * total energy  :   -57.8201605 Eh     change       -0.1068306E-02 Eh
   gradient norm :     0.0208868 Eh/α   predicted    -0.7610578E-03 ( -28.76%)
   displ. norm   :     0.7854514 α      lambda       -0.2381348E-02
   maximum displ.:     0.5612898 α      in ANC's #1, #4, #7, ...

........................................................................
.............................. CYCLE   55 ..............................
........................................................................
[...]
C9-H23=1.0888        C9-H24=1.0870        O10-C8=1.2037        N11-C8=1.3740        N11-C12=1.4123       N11-H25=1.0059       
C12-N11=1.4123       C12-C13=1.4892       C12-N16=1.4862       C12-N17=1.4029       C13-C12=1.4892       C13-C14=1.5091       
C13-C15=1.5070       C13-N16=1.4853       C14-C13=1.5091       C14-H26=1.0896       C14-H27=1.0885       C14-H28=1.0891       
C15-C13=1.5070       C15-H29=1.0900       C15-H30=1.0893       C15-H31=1.0874       N16-C12=1.4862       N16-C13=1.4853       
N16-H32=1.0107       N16-H33=1.0084       N17-C5=1.2744        N17-C12=1.4029       H18-C1=1.0875        H19-C1=1.0914        
H20-C1=1.0918        H21-O7=0.9714        H22-C9=1.0883        H23-C9=1.0888        H24-C9=1.0870        H25-N11=1.0059       
H26-C14=1.0896       H27-C14=1.0885       H28-C14=1.0891       H29-C15=1.0900       H30-C15=1.0893       H31-C15=1.0874       
H32-N16=1.0107       H33-N16=1.0084       
 C  H  Rav=1.0891 sigma=0.0014  Rmin=1.0870  Rmax=1.0918    12
 C  C  Rav=1.5166 sigma=0.0175  Rmin=1.4892  Rmax=1.5466     7
 N  H  Rav=1.0084 sigma=0.0020  Rmin=1.0059  Rmax=1.0107     3
 N  C  Rav=1.4058 sigma=0.0720  Rmin=1.2744  Rmax=1.4862     6
 O  H  Rav=0.9714 sigma=0.0000  Rmin=0.9714  Rmax=0.9714     1
 O  C  Rav=1.3115 sigma=0.0952  Rmin=1.2037  Rmax=1.4378     5
 
 selected bond angles (degree)
 --------------------
H18-C1-O2=106.26               H19-C1-O2=109.53               H19-C1-H18=110.72              H20-C1-O2=109.74               
H20-C1-H18=110.86              H20-C1-H19=109.67              C3-O2-C1=116.90                O4-C3-O2=125.08                
C5-C3-O2=112.72                C5-C3-O4=122.18                C6-C5-C3=118.30                N17-C5-C3=117.90               
N17-C5-C6=123.52               O7-C6-C5=112.68                C8-C6-C5=109.21                C8-C6-O7=107.88                
C9-C6-C5=107.88                C9-C6-O7=111.22                C9-C6-C8=107.85                H21-O7-C6=110.63               
O10-C8-C6=124.88               N11-C8-C6=113.60               N11-C8-O10=121.43              H22-C9-C6=109.02               
H23-C9-C6=108.81               H23-C9-H22=109.35              H24-C9-C6=110.37               H24-C9-H22=109.58              
H24-C9-H23=109.70              
 
 selected dihedral angles (degree)
 ---------------------------------
C3-O2-C1-H18=179.41           C3-O2-C1-H19=299.06           C3-O2-C1-H20= 59.50           O4-C3-O2-C1=359.39            
C5-C3-O2-C1=177.88            C6-C5-C3-O2=164.81            C6-C5-C3-O4=343.35            N17-C5-C3-O2=338.85           
N17-C5-C3-O4=157.38           O7-C6-C5-C3=325.38            O7-C6-C5-N17=151.70           C8-C6-C5-C3=205.51            
C8-C6-C5-N17= 31.84           C9-C6-C5-C3= 88.54            C9-C6-C5-N17=274.86           H21-O7-C6-C5= 60.13           
H21-O7-C6-C8=180.76           H21-O7-C6-C9=298.85           O10-C8-C6-C5=147.58           O10-C8-C6-O7= 24.80           
O10-C8-C6-C9=264.57           N11-C8-C6-C5=324.03           N11-C8-C6-O7=201.24           N11-C8-C6-C9= 81.02           
H22-C9-C6-C5=297.76           H22-C9-C6-O7= 61.81           H22-C9-C6-C8=179.91           H23-C9-C6-C5=178.58           
H23-C9-C6-O7=302.62           H23-C9-C6-C8= 60.73           H24-C9-C6-C5= 58.16           H24-C9-C6-O7=182.21           
H24-C9-C6-C8=300.31           
           -------------------------------------------------
          |                Final Singlepoint                |
           -------------------------------------------------

          ...................................................
          :                      SETUP                      :
          :.................................................:
          :  # basis functions                 100          :
          :  # atomic orbitals                 100          :
          :  # shells                           66          :
          :  # electrons                        94          :
          :  # halogen bonds                     0          :
          :  max. iterations                   250          :
          :  Hamiltonian                  GFN1-xTB          :
          :  restarted?                      false          :
          :  GBSA solvation                   true          :
          :  PC potential                    false          :
          :  electronic temp.          300.0000000     K    :
          :  accuracy                    1.0000000          :
          :  -> integral cutoff          0.2500000E+02      :
          :  -> integral neglect         0.1000000E-07      :
          :  -> SCF convergence          0.1000000E-05 Eh   :
          :  -> wf. convergence          0.2000000E-04 e    :
          :  Broyden damping             0.4000000          :
          ...................................................

 iter      E             dE          RMSdq      gap      omega  full diag
   1    -58.4064942 -0.584065E+02  0.422E-06    2.76       0.0  T
   2    -58.4064942 -0.639488E-13  0.189E-06    2.76    9200.3  T
   3    -58.4064942 -0.497380E-13  0.734E-07    2.76   23729.3  T

   *** convergence criteria satisfied after 3 iterations ***

         #    Occupation            Energy/Eh            Energy/eV
      -------------------------------------------------------------
         1        2.0000           -0.8962776             -24.3890
       ...           ...                  ...                  ...
        41        2.0000           -0.5250241             -14.2866
        42        2.0000           -0.5200740             -14.1519
        43        2.0000           -0.5151028             -14.0167
        44        2.0000           -0.5115532             -13.9201
        45        2.0000           -0.4869459             -13.2505
        46        2.0000           -0.4782518             -13.0139
        47        2.0000           -0.4668410             -12.7034 (HOMO)
        48                         -0.3652527              -9.9390 (LUMO)
        49                         -0.2908887              -7.9155
        50                         -0.2545599              -6.9269
        51                         -0.2041962              -5.5565
        52                         -0.1789682              -4.8700
       ...                                ...                  ...
       100                          0.7171818              19.5155
      -------------------------------------------------------------
                  HL-Gap            0.1015883 Eh            2.7644 eV
             Fermi-level           -0.4160469 Eh          -11.3212 eV

 SCC (total)                   0 d,  0 h,  0 min,  0.051 sec
 SCC setup                      ...        0 min,  0.001 sec (  1.850%)
 Dispersion                     ...        0 min,  0.000 sec (  0.296%)
 classical contributions        ...        0 min,  0.000 sec (  0.112%)
 integral evaluation            ...        0 min,  0.014 sec ( 28.260%)
 iterations                     ...        0 min,  0.005 sec (  8.976%)
 molecular gradient             ...        0 min,  0.031 sec ( 59.846%)
 printout                       ...        0 min,  0.000 sec (  0.576%)

         :::::::::::::::::::::::::::::::::::::::::::::::::::::
         ::                     SUMMARY                     ::
         :::::::::::::::::::::::::::::::::::::::::::::::::::::
         :: total energy             -57.839879739067 Eh    ::
         :: total w/o Gsasa/hb       -57.817739841678 Eh    ::
         :: gradient norm              0.000525880528 Eh/a0 ::
         :: HOMO-LUMO gap              2.764357018731 eV    ::
         ::.................................................::
         :: SCC energy               -58.406494210992 Eh    ::
         :: -> electrostatic           0.341078450985 Eh    ::
         :: -> Gsolv                  -0.120830332629 Eh    ::
         ::    -> Gelec               -0.098690435240 Eh    ::
         ::    -> Gsasa               -0.017758453283 Eh    ::
         ::    -> Ghb                 -0.012005723111 Eh    ::
         ::    -> Gshift               0.007624279005 Eh    ::
         :: repulsion energy           0.586097295821 Eh    ::
         :: dispersion energy         -0.019482823896 Eh    ::
         :: halogen bond corr.         0.000000000000 Eh    ::
         :: add. restraining           0.000000000000 Eh    ::
         :: total charge               1.000000000000 e     ::
         :::::::::::::::::::::::::::::::::::::::::::::::::::::

           -------------------------------------------------
          |                Property Printout                |
           -------------------------------------------------

    * Orbital Energies and Occupations

         #    Occupation            Energy/Eh            Energy/eV
      -------------------------------------------------------------
         1        2.0000           -0.8962776             -24.3890
       ...           ...                  ...                  ...
        35        2.0000           -0.5524234             -15.0322
        36        2.0000           -0.5506998             -14.9853
        37        2.0000           -0.5446469             -14.8206
        38        2.0000           -0.5433300             -14.7848
        39        2.0000           -0.5396631             -14.6850
        40        2.0000           -0.5310876             -14.4516
        41        2.0000           -0.5250241             -14.2866
        42        2.0000           -0.5200740             -14.1519
        43        2.0000           -0.5151028             -14.0167
        44        2.0000           -0.5115532             -13.9201
        45        2.0000           -0.4869459             -13.2505
        46        2.0000           -0.4782518             -13.0139
        47        2.0000           -0.4668410             -12.7034 (HOMO)
        48                         -0.3652527              -9.9390 (LUMO)
        49                         -0.2908887              -7.9155
        50                         -0.2545599              -6.9269
        51                         -0.2041962              -5.5565
        52                         -0.1789682              -4.8700
        53                         -0.1674433              -4.5564
        54                         -0.1614329              -4.3928
        55                         -0.1483720              -4.0374
        56                         -0.1404551              -3.8220
        57                         -0.1357088              -3.6928
        58                         -0.1126322              -3.0649
       ...                                ...                  ...
       100                          0.7171818              19.5155
      -------------------------------------------------------------
                  HL-Gap            0.1015883 Eh            2.7644 eV
             Fermi-level           -0.4160469 Eh          -11.3212 eV

  Mulliken/CM5 charges         n(s)   n(p)   n(d)
     1C     0.15786  0.03645   0.988  2.854  0.000
     2O    -0.39294 -0.47610   1.682  4.711  0.000
     3C     0.58916  0.65643   0.963  2.448  0.000
     4O    -0.53229 -0.58979   1.722  4.811  0.000
     5C     0.16269  0.25616   1.092  2.745  0.000
     6C     0.21451  0.23397   1.039  2.747  0.000
     7O    -0.56988 -0.76676   1.693  4.877  0.000
     8C     0.48787  0.59109   0.998  2.514  0.000
     9C    -0.11287 -0.25418   1.030  3.083  0.000
    10O    -0.52308 -0.56406   1.719  4.804  0.000
    11N    -0.37256 -0.71809   1.426  3.947  0.000
    12C     0.35744  0.52180   0.999  2.644  0.000
    13C     0.12951  0.16115   1.087  2.784  0.000
    14C    -0.11138 -0.25184   1.021  3.091  0.000
    15C    -0.11654 -0.25806   1.022  3.095  0.000
    16N    -0.24485 -0.73975   1.455  3.790  0.000
    17N    -0.32635 -0.51436   1.536  3.790  0.000
    18H     0.06664  0.12699   0.933  0.000  0.000
    19H     0.06642  0.12805   0.934  0.000  0.000
    20H     0.06686  0.12852   0.933  0.000  0.000
    21H     0.38802  0.57045   0.612  0.000  0.000
    22H     0.07325  0.13049   0.927  0.000  0.000
    23H     0.07907  0.13527   0.921  0.000  0.000
    24H     0.04661  0.10485   0.953  0.000  0.000
    25H     0.29682  0.50107   0.703  0.000  0.000
    26H     0.08220  0.13596   0.918  0.000  0.000
    27H     0.06953  0.13097   0.930  0.000  0.000
    28H     0.08127  0.13532   0.919  0.000  0.000
    29H     0.08558  0.13915   0.914  0.000  0.000
    30H     0.08645  0.14038   0.914  0.000  0.000
    31H     0.07177  0.13085   0.928  0.000  0.000
    32H     0.32200  0.51938   0.678  0.000  0.000
    33H     0.32122  0.51824   0.679  0.000  0.000

Wiberg/Mayer (AO) data.
largest (>0.10) Wiberg bond orders for each atom

 ---------------------------------------------------------------------------
     #   Z sym  total        # sym  WBO       # sym  WBO       # sym  WBO
 ---------------------------------------------------------------------------
     1   6 C    3.849 --    18 H    0.985    19 H    0.978    20 H    0.977
                             2 O    0.875
     2   8 O    2.236 --     3 C    1.165     1 C    0.875     4 O    0.147
     3   6 C    3.855 --     4 O    1.666     2 O    1.165     5 C    0.952
     4   8 O    1.964 --     3 C    1.666     2 O    0.147
     5   6 C    3.932 --    17 N    1.791     6 C    0.965     3 C    0.952
     6   6 C    3.935 --     7 O    0.990     5 C    0.965     9 C    0.933
                             8 C    0.926
     7   8 O    1.909 --     6 C    0.990    21 H    0.826
     8   6 C    3.880 --    10 O    1.698    11 N    1.154     6 C    0.926
     9   6 C    3.984 --    24 H    0.986    22 H    0.980    23 H    0.978
                             6 C    0.933
    10   8 O    1.963 --     8 C    1.698    11 N    0.145
    11   7 N    3.281 --     8 C    1.154    12 C    0.997    25 H    0.875
                            10 O    0.145
    12   6 C    3.870 --    17 N    1.039    11 N    0.997    13 C    0.894
                            16 N    0.836
    13   6 C    3.846 --    15 C    1.011    14 C    1.009    12 C    0.894
                            16 N    0.834
    14   6 C    3.978 --    13 C    1.009    27 H    0.979    28 H    0.975
                            26 H    0.972
    15   6 C    3.979 --    13 C    1.011    31 H    0.979    30 H    0.973
                            29 H    0.971
    16   7 N    3.505 --    33 H    0.870    32 H    0.866    12 C    0.836
                            13 C    0.834
    17   7 N    3.059 --     5 C    1.791    12 C    1.039
    18   1 H    1.007 --     1 C    0.985
    19   1 H    1.002 --     1 C    0.978
    20   1 H    1.003 --     1 C    0.977
    21   1 H    0.865 --     7 O    0.826
    22   1 H    1.000 --     9 C    0.980
    23   1 H    0.997 --     9 C    0.978
    24   1 H    0.999 --     9 C    0.986
    25   1 H    0.915 --    11 N    0.875
    26   1 H    0.994 --    14 C    0.972
    27   1 H    1.004 --    14 C    0.979
    28   1 H    0.993 --    14 C    0.975
    29   1 H    0.994 --    15 C    0.971
    30   1 H    0.990 --    15 C    0.973
    31   1 H    0.993 --    15 C    0.979
    32   1 H    0.903 --    16 N    0.866
    33   1 H    0.897 --    16 N    0.870
 ---------------------------------------------------------------------------

Topologies differ in total number of bonds
Writing topology from bond orders to xtbtopo.mol

 dipole moment from electron density (au)
     X       Y       Z   
  -4.2003   2.2449   2.8558  total (Debye):   14.115

           -------------------------------------------------
          |                Geometry Summary                 |
           -------------------------------------------------

      molecular mass/u    :      242.2521403
   center of mass at/Å    :        0.4017361       0.1033514      -0.3509324
  moments of inertia/u·Å² :        0.8076144E+03   0.1252512E+04   0.1756193E+04
rotational constants/cm⁻¹ :        0.2087337E-01   0.1345905E-01   0.9598962E-02

 * 30 selected distances

     #   Z          #   Z                                           value/Å
     1   6 C        2   8 O                                       1.4378068
     2   8 O        3   6 C                                       1.3143978
     3   6 C        4   8 O                                       1.2070995
     6   6 C        7   8 O                                       1.3944259
     8   6 C       10   8 O                                       1.2037402
     8   6 C       11   7 N                                       1.3740329
    11   7 N       12   6 C                                       1.4122523
    12   6 C       13   6 C                                       1.4892447
    13   6 C       14   6 C                                       1.5090925 (max)
    13   6 C       15   6 C                                       1.5070078
    12   6 C       16   7 N                                       1.4862165
    13   6 C       16   7 N                                       1.4852933
     5   6 C       17   7 N                                       1.2743678
    12   6 C       17   7 N                                       1.4028511
     1   6 C       18   1 H                                       1.0874700
     1   6 C       19   1 H                                       1.0914403
     1   6 C       20   1 H                                       1.0917710
     7   8 O       21   1 H                                       0.9713597 (min)
     9   6 C       22   1 H                                       1.0883351
     9   6 C       23   1 H                                       1.0887596
     9   6 C       24   1 H                                       1.0869626
    11   7 N       25   1 H                                       1.0058935
    14   6 C       26   1 H                                       1.0896039
    14   6 C       27   1 H                                       1.0885045
    14   6 C       28   1 H                                       1.0891443
    15   6 C       29   1 H                                       1.0899753
    15   6 C       30   1 H                                       1.0892561
    15   6 C       31   1 H                                       1.0873971
    16   7 N       32   1 H                                       1.0107403
    16   7 N       33   1 H                                       1.0084430

 * 6 distinct bonds (by element types)

   Z      Z             #   av. dist./Å        max./Å        min./Å
   1 H    6 C          12     1.0890516     1.0917710     1.0869626
   6 C    6 C           3     1.5017817     1.5090925     1.4892447
   1 H    7 N           3     1.0083589     1.0107403     1.0058935
   6 C    7 N           6     1.4058357     1.4862165     1.2743678
   1 H    8 O           1     0.9713597     0.9713597     0.9713597
   6 C    8 O           5     1.3114940     1.4378068     1.2037402


optimized geometry written to: xtbopt.xyz


           -------------------------------------------------
          | TOTAL ENERGY              -57.839879739067 Eh   |
          | GRADIENT NORM               0.000525880528 Eh/α |
          | HOMO-LUMO GAP               2.764357018731 eV   |
           -------------------------------------------------

------------------------------------------------------------------------
 * finished run on 2023/06/20 at 15:08:44.800     
------------------------------------------------------------------------
 total:
 * wall-time:     0 d,  0 h,  0 min,  7.263 sec
 *  cpu-time:     0 d,  0 h,  0 min,  7.180 sec
 * ratio c/w:     0.989 speedup
 SCF:
 * wall-time:     0 d,  0 h,  0 min,  0.136 sec
 *  cpu-time:     0 d,  0 h,  0 min,  0.135 sec
 * ratio c/w:     0.993 speedup
 ANC optimizer:
 * wall-time:     0 d,  0 h,  0 min,  7.030 sec
 *  cpu-time:     0 d,  0 h,  0 min,  7.014 sec
 * ratio c/w:     0.998 speedup

