42
 energy: -83.651543609438 gnorm: 0.000935795463 xtb: 6.5.1 (579679a)
C           -6.11498348307840       -1.63606005791943       -0.12465289643749
O           -4.86194811656186       -0.97342996161209       -0.15334105637880
C           -4.82769872887658        0.19314715591107       -0.87898854541927
O           -5.83735489821981        0.58159676816591       -1.45174913333262
C           -3.52668531028410        0.83028448338531       -0.85265196111342
N           -2.55349512358328        0.16321664344444       -0.12404504730462
C           -1.36852799438721        0.64606531766752       -0.03287868051841
C           -0.29078785920493       -0.03693303696372        0.80208245009786
C           -0.51589519345785       -1.55834023423738        0.73614798535162
C           -0.45768688917003        0.47692832582230        2.24189780864765
N            0.99671490028207        0.37193155421144        0.23433560913487
C            2.26915732584240       -0.05322143468694        1.00535599122932
C            2.91245376165724        1.29077076070781        1.48662100576858
O            2.12272250033168       -0.95078301467121        1.93586796245444
C            3.18713675590495       -0.58716534370365       -0.14610692875778
N            2.82262598589943       -1.27314890766327       -1.18447392146671
N            3.97558202594568       -1.65380631953807       -1.84409131076213
C            4.95712276640573       -1.17793442002245       -1.15575727282482
C            6.40656319114909       -1.29984848941461       -1.44581231286793
O            4.53541983203781       -0.49644175788055       -0.07137567734548
N           -1.02679634911281        1.83931861336946       -0.63118008119906
C           -1.87641806129499        2.59846144942707       -1.38070717571305
O           -1.48220694405960        3.65140422278539       -1.88823339135890
C           -3.28114578176529        2.05769481214080       -1.52329337647629
O           -4.10781612754189        2.70456039298483       -2.19855896423771
H           -6.42218444167200       -1.93740569738638       -1.13182883884801
H           -6.89024187941719       -0.98816511571849        0.29820218461461
H           -5.99725207196249       -2.52014043695507        0.50104658008050
H            0.16992258427030       -2.07609468679869        1.40451307133911
H           -1.54183498552883       -1.78840445766023        1.02681629430322
H           -0.35280787597766       -1.91487285898667       -0.28169636616131
H            0.24519143207933       -0.01526025836960        2.91271933788063
H           -0.28545424076512        1.55293548915760        2.27492500292063
H           -1.47288180958047        0.27452704177189        2.58530288543943
H            1.05962045851088       -0.04740139917762       -0.69466415203208
H            3.88684442566231        1.07924863929404        1.92392489769349
H            3.02661396743192        1.98562131025569        0.65654426892615
H            2.27285968202443        1.73611363122504        2.24637734228057
H            6.84314390715245       -0.31310726639926       -1.60428691213959
H            6.54866688274326       -1.90336357440012       -2.33943410046268
H            6.92378335212110       -1.76636030855931       -0.60739928289481
H           -0.07003857194552        2.15582642699874       -0.52547429211828
