47
 energy: -80.232384177105 gnorm: 0.000543936934 xtb: 6.5.1 (579679a)
C           -4.30698602456525       -2.33633394602312       -1.05448406996040
N           -3.17379578983136       -1.44674291146805       -0.79577085282961
C           -3.26960965267293       -0.28938551272416       -0.06330941073132
C           -4.59147347683650        0.19831854986257        0.51758419048016
C           -5.38187892254053        0.91224813627416       -0.58939255399628
C           -4.30516838110126        1.19487712012356        1.65379351262619
N           -5.37651452597541       -0.92024426371803        1.02999374137744
N           -2.24703065825062        0.48168872914604        0.13266793427348
C           -1.01451439699405        0.18425822779643       -0.37594125533009
C            0.06388778633396        1.17681453965506       -0.03723823293549
O           -0.02219981265582        1.91512629668872        0.93601187325954
N            1.10627517529662        1.19506854071113       -0.88823031394286
C            2.25700441222725        2.05525540670869       -0.66536347899926
C            3.45763630074953        1.29417552242791       -0.13908923116272
C            4.66617007794170        1.97077269299720        0.01926368312229
C            5.78512988897416        1.31171784974776        0.50344915631245
C            5.72843857359416       -0.04080321594209        0.84332352181855
C            6.94876820695054       -0.75745051282808        1.33646521673587
F            8.63820090487840       -1.69687220790823       -1.00662205981920
C            4.51641268871078       -0.71032902465656        0.68490794503309
C            3.39425940161054       -0.05266624812977        0.20066293294681
C           -0.84317782502019       -0.97194100860188       -1.07760181920887
O            0.34094024543216       -1.38275792244939       -1.58522056403020
C           -1.96049138660068       -1.86469209274140       -1.31201732541924
O           -1.82979375703841       -2.91455644640280       -1.94111695688978
H           -5.19258056989584       -1.75838773770315       -1.29593823063100
H           -4.50516036189343       -2.94490189436028       -0.17396291869022
H           -4.04742356787750       -2.97955498877452       -1.89489342995993
H           -4.78519002430232        1.72204474856154       -1.00842762198189
H           -5.64958072705474        0.22492307128243       -1.38956644198238
H           -6.29696392765278        1.32888531668679       -0.17176685549051
H           -5.24589869636146        1.50168503022867        2.10637450698652
H           -3.79081402923495        2.07465442509455        1.26867326674796
H           -3.68144830307300        0.72797543226535        2.41476423685192
H           -4.99899104614851       -1.22695096866456        1.91743096673837
H           -6.32412699383036       -0.61316656373399        1.19334997835496
H            1.12347603959178        0.58856687674153       -1.69040915410177
H            2.51176721507004        2.54768713083141       -1.61006289461375
H            1.96282201379310        2.83066076732412        0.05214849075136
H            4.72961750581745        3.02324036945711       -0.23617424225600
H            6.71362086401190        1.86121780063429        0.62393142076321
H            6.67717935690952       -1.63545416714077        1.92242868628634
H            7.55497608386204       -1.09206737471507        0.47826865921844
H            7.56636997992640       -0.09909950701753        1.94758148143740
H            4.44050967280335       -1.76130061200561        0.94598960984375
H            2.46368975765556       -0.59758809196327        0.08533757623595
H            0.19366270470176       -2.22861836191723       -2.04865667361672
