42
 energy: -83.585679501946 gnorm: 0.000714684447 xtb: 6.5.1 (579679a)
C           -5.45268211212469        1.85725033955882        0.97508895828155
O           -4.74288167547597        0.85704656078772        0.27374679264042
C           -3.38579023078375        1.08862426981653        0.12207964455471
O           -2.90177745416153        2.12578118355570        0.60018760617347
C           -2.67665516702388        0.08578495288181       -0.59511486272426
C           -3.21301251335062       -1.11929759706507       -1.09498577294299
O           -4.40071447895583       -1.51204264528298       -0.98448441718876
C           -2.20637747844021       -2.04131861999986       -1.76681460381143
O           -2.52197980583261       -2.92368760242996       -2.59319145760305
N           -0.92693455719343       -1.90620766608038       -1.35905769946204
C           -0.37143930447452       -0.73898321802729       -0.73763947634233
C            0.20946878166805       -0.97020777815529        0.66514839413453
C           -0.63084202495457       -0.36596735769739        1.80582479397683
C            0.46291496477973       -2.46037408976600        0.93403171884021
N            1.53061420246626       -0.26866741739149        0.64001047969569
C            2.46536870619566       -0.33016374738530        1.60983252007756
O            2.27896584238880       -0.74223729759815        2.76255506606496
C            3.77985702100901        0.18538864507341        1.19471467346285
N            4.84798465293409        0.33542604712284        1.94301418670041
N            5.82701855247079        0.84210234770180        1.13356644758000
C            5.31149074794842        0.97207381247630       -0.04641360309235
C            5.97840989931641        1.47284943714247       -1.27076936461090
O            4.02171880411941        0.58191818342406       -0.08846786658130
N           -1.26785333777599        0.39673945443139       -0.80866928190570
C           -1.07173916922139        1.14122340746122       -2.06518617200156
H           -5.06067815530376        1.98723140532072        1.99115515628281
H           -5.39591444697985        2.82252668939457        0.45771569572533
H           -6.49479087606577        1.53997195797142        1.02964430279080
H           -0.27017132612425       -2.53752248194883       -1.79116018131529
H           -0.13885793351764       -0.50494237695370        2.76842346399052
H           -0.77897826333547        0.70123692593731        1.63322563615345
H           -1.60421400790607       -0.85717036176694        1.83686010470842
H           -0.47798388667035       -3.00927166672398        0.88579901058124
H            1.14537318067088       -2.86898563855966        0.19001648536607
H            0.89924548157765       -2.60683967884225        1.92200349523202
H            1.84468188082461       -0.03288088378997       -0.29096417763183
H            5.97996753280977        0.70071665420018       -2.04006679980514
H            7.00303862669671        1.75144073471398       -1.03808905861747
H            5.44689322541345        2.33945024779911       -1.66383607101500
H           -1.61880545109782        2.08612204606179       -2.01767579591800
H           -0.00705217115708        1.34997108595133       -2.17775767036062
H           -1.41488327535191        0.57589273670229       -2.94430030010359
