      -----------------------------------------------------------      
     |                   =====================                   |     
     |                           x T B                           |     
     |                   =====================                   |     
     |                         S. Grimme                         |     
     |          Mulliken Center for Theoretical Chemistry        |     
     |                    University of Bonn                     |     
      -----------------------------------------------------------      

   * xtb version 6.5.1 (579679a) compiled by 'ehlert@majestix' on 2022-07-11

   xtb is free software: you can redistribute it and/or modify it under
   the terms of the GNU Lesser General Public License as published by
   the Free Software Foundation, either version 3 of the License, or
   (at your option) any later version.
   
   xtb is distributed in the hope that it will be useful,
   but WITHOUT ANY WARRANTY; without even the implied warranty of
   MERCHANTABILITY or FITNESS FOR A PARTICULAR PURPOSE.  See the
   GNU Lesser General Public License for more details.
   
   Cite this work as:
   * C. Bannwarth, E. Caldeweyher, S. Ehlert, A. Hansen, P. Pracht,
     J. Seibert, S. Spicher, S. Grimme, WIREs Comput. Mol. Sci., 2020, 11,
     e01493. DOI: 10.1002/wcms.1493
   
   for GFN2-xTB:
   * C. Bannwarth, S. Ehlert and S. Grimme., J. Chem. Theory Comput., 2019,
     15, 1652-1671. DOI: 10.1021/acs.jctc.8b01176
   for GFN1-xTB:
   * S. Grimme, C. Bannwarth, P. Shushkov, J. Chem. Theory Comput., 2017,
     13, 1989-2009. DOI: 10.1021/acs.jctc.7b00118
   for GFN0-xTB:
   * P. Pracht, E. Caldeweyher, S. Ehlert, S. Grimme, ChemRxiv, 2019, preprint.
     DOI: 10.26434/chemrxiv.8326202.v1
   for GFN-FF:
   * S. Spicher and S. Grimme, Angew. Chem. Int. Ed., 2020, 59, 15665-15673.
     DOI: 10.1002/anie.202004239
   
   for ALPB and GBSA implicit solvation:
   * S. Ehlert, M. Stahn, S. Spicher, S. Grimme, J. Chem. Theory Comput.,
     2021, 17, 4250-4261. DOI: 10.1021/acs.jctc.1c00471
   
   for DFT-D4:
   * E. Caldeweyher, C. Bannwarth and S. Grimme, J. Chem. Phys., 2017,
     147, 034112. DOI: 10.1063/1.4993215
   * E. Caldeweyher, S. Ehlert, A. Hansen, H. Neugebauer, S. Spicher,
     C. Bannwarth and S. Grimme, J. Chem. Phys., 2019, 150, 154122.
     DOI: 10.1063/1.5090222
   * E. Caldeweyher, J.-M. Mewes, S. Ehlert and S. Grimme, Phys. Chem. Chem. Phys.
     2020, 22, 8499-8512. DOI: 10.1039/D0CP00502A
   
   for sTDA-xTB:
   * S. Grimme and C. Bannwarth, J. Chem. Phys., 2016, 145, 054103.
     DOI: 10.1063/1.4959605
   
   in the mass-spec context:
   * V. Asgeirsson, C. Bauer and S. Grimme, Chem. Sci., 2017, 8, 4879.
     DOI: 10.1039/c7sc00601b
   * J. Koopman and S. Grimme, ACS Omega 2019, 4, 12, 15120-15133.
     DOI: 10.1021/acsomega.9b02011
   
   for metadynamics refer to:
   * S. Grimme, J. Chem. Theory Comput., 2019, 155, 2847-2862
     DOI: 10.1021/acs.jctc.9b00143
   
   for SPH calculations refer to:
   * S. Spicher and S. Grimme, J. Chem. Theory Comput., 2021, 17, 1701-1714
     DOI: 10.1021/acs.jctc.0c01306
   
   with help from (in alphabetical order)
   P. Atkinson, C. Bannwarth, F. Bohle, G. Brandenburg, E. Caldeweyher
   M. Checinski, S. Dohm, S. Ehlert, S. Ehrlich, I. Gerasimov, C. Hölzer
   A. Katbashev, J. Koopman, C. Lavigne, S. Lehtola, F. März, M. Müller,
   F. Musil, H. Neugebauer, J. Pisarek, C. Plett, P. Pracht, F. Pultar,
   J. Seibert, P. Shushkov, S. Spicher, M. Stahn, M. Steiner, T. Strunk,
   J. Stückrath, T. Rose, and J. Unsleber
   
 * started run on 2023/06/20 at 15:47:35.763     

           -------------------------------------------------
          |                Calculation Setup                |
           -------------------------------------------------

          program call               : /lustre/hpc/kemi/ree/PhD/git/ReactivityQM/dep/xtb-6.5.1/bin/xtb --gfn 1 /lustre/hpc/kemi/ree/PhD/git/ReactivityQM/calculations/R03/reac02prodN12/conf15/R03_reac02prodN12_conf15_gfn1.xyz --opt --vfukui --chrg 1 --uhf 0 --alpb DMSO
          hostname                   : node068
          coordinate file            : /lustre/hpc/kemi/ree/PhD/git/ReactivityQM/calculations/R03/reac02prodN12/conf15/R03_reac02prodN12_conf15_gfn1.xyz
          omp threads                :                     1

   ID    Z sym.   atoms
    1    6 C      1, 3, 5, 7-10, 12, 14, 15, 18, 19, 22, 23, 25
    2    8 O      2, 4, 13, 20, 24, 26
    3    7 N      6, 11, 16, 17, 21
    4    1 H      27-46

           -------------------------------------------------
          |                 G F N 1 - x T B                 |
           -------------------------------------------------

        Reference                      10.1021/acs.jctc.7b00118
      * Hamiltonian:
        H0-scaling (s, p, d)           1.850000    2.250000    2.000000
        zeta-weighting                 0.000000
      * Dispersion:
        s8                             2.400000
        a1                             0.630000
        a2                             5.000000
        s9                             0.000000
      * Repulsion:
        kExp                           1.500000
        rExp                           1.000000
      * Coulomb:
        alpha                          2.000000
        third order                    atomic
        anisotropic                    false
      * Halogen bond correction:
        rad-scale                      1.300000
        damping                        0.440000

      * Solvation model:               ALPB
        Solvent                        DMSO
        Parameter file                 internal GFN1-xTB/ALPB
        Dielectric constant                4.6680E+01
        Reference state                gsolv [1 M gas/solution]
        Free energy shift                  7.6243E-03 Eh       4.7843E+00 kcal/mol
        Temperature                        2.9815E+02 K
        Density                            1.1000E+00 kg/L
        Solvent mass                       7.8130E+01 g/mol
        Interaction kernel             P16
        Born radius scaling (c1)           1.7672E+00
        Born radii integrator          GBOBC
        Born offset                        0.0000E+00 a0       0.0000E+00 AA
        H-bond correction              true
        Ion screening                  false
        Surface tension                    1.0000E-05 Eh       1.5569E+01 dyn/cm
        Grid points                               230 per atom

          ...................................................
          :                      SETUP                      :
          :.................................................:
          :  # basis functions                 144          :
          :  # atomic orbitals                 144          :
          :  # shells                           92          :
          :  # electrons                       140          :
          :  # halogen bonds                     0          :
          :  max. iterations                   250          :
          :  Hamiltonian                  GFN1-xTB          :
          :  restarted?                      false          :
          :  GBSA solvation                   true          :
          :  PC potential                    false          :
          :  electronic temp.          300.0000000     K    :
          :  accuracy                    1.0000000          :
          :  -> integral cutoff          0.2500000E+02      :
          :  -> integral neglect         0.1000000E-07      :
          :  -> SCF convergence          0.1000000E-05 Eh   :
          :  -> wf. convergence          0.2000000E-04 e    :
          :  Broyden damping             0.4000000          :
          ...................................................

 iter      E             dE          RMSdq      gap      omega  full diag
   1    -86.7050681 -0.867051E+02  0.830E+00    1.86       0.0  T
   2    -87.0709552 -0.365887E+00  0.494E+00    0.50       1.0  T
   3    -87.0578931  0.130620E-01  0.174E+00    0.19       1.0  T
   4    -86.6862194  0.371674E+00  0.171E+00    0.22       1.0  T
   5    -87.0942352 -0.408016E+00  0.196E-01    0.25       1.0  T
   6    -87.0953493 -0.111411E-02  0.101E-01    0.24       1.0  T
   7    -87.0954535 -0.104169E-03  0.831E-02    0.25       1.0  T
   8    -87.0957581 -0.304633E-03  0.627E-02    0.22       1.0  T
   9    -87.0959792 -0.221077E-03  0.459E-02    0.20       1.0  T
  10    -87.0961594 -0.180187E-03  0.262E-02    0.18       1.0  T
  11    -87.0962427 -0.832789E-04  0.663E-03    0.17       2.2  T
  12    -87.0962460 -0.331504E-05  0.405E-03    0.16       3.6  T
  13    -87.0962482 -0.216357E-05  0.689E-04    0.16      21.4  T
  14    -87.0962482 -0.603480E-07  0.751E-05    0.16     196.2  T
  15    -87.0962482 -0.575028E-09  0.233E-05    0.16     633.3  T

   *** convergence criteria satisfied after 15 iterations ***

         #    Occupation            Energy/Eh            Energy/eV
      -------------------------------------------------------------
         1        2.0000           -0.9190225             -25.0079
       ...           ...                  ...                  ...
        64        2.0000           -0.4979283             -13.5493
        65        2.0000           -0.4942008             -13.4479
        66        2.0000           -0.4917988             -13.3825
        67        2.0000           -0.4878282             -13.2745
        68        2.0000           -0.4773088             -12.9882
        69        2.0000           -0.4666481             -12.6981
        70        1.9161           -0.4476556             -12.1813 (HOMO)
        71        0.0839           -0.4417109             -12.0196 (LUMO)
        72                         -0.3439897              -9.3604
        73                         -0.3356532              -9.1336
        74                         -0.3207764              -8.7288
        75                         -0.3067516              -8.3471
       ...                                ...                  ...
       144                          0.7001303              19.0515
      -------------------------------------------------------------
                  HL-Gap            0.0059447 Eh            0.1618 eV
             Fermi-level           -0.4446833 Eh          -12.1004 eV

 SCC (total)                   0 d,  0 h,  0 min,  0.205 sec
 SCC setup                      ...        0 min,  0.002 sec (  1.096%)
 Dispersion                     ...        0 min,  0.000 sec (  0.177%)
 classical contributions        ...        0 min,  0.000 sec (  0.058%)
 integral evaluation            ...        0 min,  0.033 sec ( 16.253%)
 iterations                     ...        0 min,  0.097 sec ( 47.317%)
 molecular gradient             ...        0 min,  0.070 sec ( 34.332%)
 printout                       ...        0 min,  0.002 sec (  0.758%)

         :::::::::::::::::::::::::::::::::::::::::::::::::::::
         ::                     SUMMARY                     ::
         :::::::::::::::::::::::::::::::::::::::::::::::::::::
         :: total energy             -86.291341367195 Eh    ::
         :: total w/o Gsasa/hb       -86.265823365265 Eh    ::
         :: gradient norm              0.126332552063 Eh/a0 ::
         :: HOMO-LUMO gap              0.161763114544 eV    ::
         ::.................................................::
         :: SCC energy               -87.096248215759 Eh    ::
         :: -> electrostatic           0.423199929700 Eh    ::
         :: -> Gsolv                  -0.117146247576 Eh    ::
         ::    -> Gelec               -0.091628245646 Eh    ::
         ::    -> Gsasa               -0.024612096821 Eh    ::
         ::    -> Ghb                 -0.008530184114 Eh    ::
         ::    -> Gshift               0.007624279005 Eh    ::
         :: repulsion energy           0.834887837129 Eh    ::
         :: dispersion energy         -0.029980988566 Eh    ::
         :: halogen bond corr.         0.000000000000 Eh    ::
         :: add. restraining           0.000000000000 Eh    ::
         :: total charge               1.000000000182 e     ::
         :::::::::::::::::::::::::::::::::::::::::::::::::::::

      ----------------------------------------------------------- 
     |                   =====================                   |
     |                        A N C O P T                        |
     |                   =====================                   |
     |               Approximate Normal Coordinate               |
     |                Rational Function Optimizer                |
      ----------------------------------------------------------- 

          ...................................................
          :                      SETUP                      :
          :.................................................:
          :   optimization level            normal          :
          :   max. optcycles                   200          :
          :   ANC micro-cycles                  20          :
          :   degrees of freedom               132          :
          :.................................................:
          :   RF solver                   davidson          :
          :   write xtbopt.log                true          :
          :   linear?                        false          :
          :   energy convergence         0.5000000E-05 Eh   :
          :   grad. convergence          0.1000000E-02 Eh/α :
          :   maximium RF displ.         1.0000000          :
          :   Hlow (freq-cutoff)         0.1000000E-01      :
          :   Hmax (freq-cutoff)         5.0000000          :
          :   S6 in model hess.         20.0000000          :
          ...................................................

generating ANC from model Hessian ...
Using Lindh-Hessian (1995)
 Shifting diagonal of input Hessian by   9.829581039190363E-003
 Lowest  eigenvalues of input Hessian
    0.000000    0.000000    0.000000    0.000000    0.000000    0.000000
    0.010000    0.010219    0.010491    0.010609    0.011065    0.012102
    0.012989    0.013686    0.014020    0.015068    0.015843    0.016337
 Highest eigenvalues
    2.000820    2.030977    2.164566    2.302575    2.336987    2.396619
 

........................................................................
.............................. CYCLE    1 ..............................
........................................................................
   1    -87.0962482 -0.870962E+02  0.332E-05    0.16       0.0  T
   2    -87.0962482  0.166669E-08  0.120E-04    0.16     122.9  T
   3    -87.0962482 -0.181424E-08  0.410E-06    0.16    3595.6  T
     SCC iter.                  ...        0 min,  0.019 sec
     gradient                   ...        0 min,  0.068 sec
 * total energy  :   -86.2913414 Eh     change       -0.2215472E-10 Eh
   gradient norm :     0.1263332 Eh/α   predicted     0.0000000E+00 (-100.00%)
   displ. norm   :     0.3389927 α      lambda       -0.1910275E-01
   maximum displ.:     0.1054032 α      in ANC's #28, #24, #23, ...

........................................................................
.............................. CYCLE    2 ..............................
........................................................................
   1    -87.1215057 -0.871215E+02  0.862E-02    0.27       0.0  T
   2    -87.1170025  0.450326E-02  0.201E-01    0.10       1.0  T
   3    -87.1219896 -0.498713E-02  0.495E-02    0.23       1.0  T
   4    -87.1221648 -0.175140E-03  0.236E-02    0.20       1.0  T
   5    -87.1221669 -0.214277E-05  0.193E-02    0.17       1.0  T
   6    -87.1222004 -0.335254E-04  0.929E-03    0.18       1.6  T
   7    -87.1222114 -0.110243E-04  0.124E-03    0.18      11.9  T
   8    -87.1222116 -0.182882E-06  0.191E-04    0.18      77.1  T
   9    -87.1222116 -0.128273E-08  0.122E-04    0.18     120.7  T
     SCC iter.                  ...        0 min,  0.054 sec
     gradient                   ...        0 min,  0.068 sec
 * total energy  :   -86.3054542 Eh     change       -0.1411281E-01 Eh
   gradient norm :     0.0688811 Eh/α   predicted    -0.1065987E-01 ( -24.47%)
   displ. norm   :     0.3385188 α      lambda       -0.9469806E-02
   maximum displ.:     0.1126456 α      in ANC's #28, #24, #7, ...

........................................................................
.............................. CYCLE    3 ..............................
........................................................................
   1    -87.1390491 -0.871390E+02  0.779E-02    0.34       0.0  T
   2    -87.1394664 -0.417245E-03  0.378E-02    0.22       1.0  T
   3    -87.1395035 -0.371373E-04  0.188E-02    0.24       1.0  T
   4    -87.1395055 -0.200752E-05  0.138E-02    0.22       1.1  T
   5    -87.1395117 -0.614229E-05  0.278E-03    0.23       5.3  T
   6    -87.1395119 -0.248241E-06  0.582E-04    0.23      25.3  T
   7    -87.1395119 -0.844015E-08  0.206E-04    0.23      71.6  T
   8    -87.1395119 -0.977877E-09  0.913E-05    0.23     161.6  T
   9    -87.1395119 -0.127187E-09  0.200E-05    0.23     735.4  T
     SCC iter.                  ...        0 min,  0.055 sec
     gradient                   ...        0 min,  0.068 sec
 * total energy  :   -86.3109678 Eh     change       -0.5513600E-02 Eh
   gradient norm :     0.0221676 Eh/α   predicted    -0.5279506E-02 (  -4.25%)
   displ. norm   :     0.2211718 α      lambda       -0.1302216E-02
   maximum displ.:     0.1127707 α      in ANC's #7, #6, #28, ...

........................................................................
.............................. CYCLE    4 ..............................
........................................................................
   1    -87.1396816 -0.871397E+02  0.220E-02    0.28       0.0  T
   2    -87.1397058 -0.241784E-04  0.945E-03    0.25       1.6  T
   3    -87.1397075 -0.171564E-05  0.450E-03    0.26       3.3  T
   4    -87.1397076 -0.104323E-06  0.226E-03    0.25       6.5  T
   5    -87.1397076 -0.370905E-07  0.498E-04    0.26      29.6  T
   6    -87.1397076 -0.115731E-07  0.140E-04    0.26     105.4  T
   7    -87.1397076 -0.727425E-09  0.606E-05    0.26     243.1  T
     SCC iter.                  ...        0 min,  0.041 sec
     gradient                   ...        0 min,  0.066 sec
 * total energy  :   -86.3119387 Eh     change       -0.9709615E-03 Eh
   gradient norm :     0.0134897 Eh/α   predicted    -0.6829945E-03 ( -29.66%)
   displ. norm   :     0.3108976 α      lambda       -0.9989693E-03
   maximum displ.:     0.1803537 α      in ANC's #6, #7, #5, ...

........................................................................
.............................. CYCLE    5 ..............................
........................................................................
   1    -87.1390803 -0.871391E+02  0.249E-02    0.29       0.0  T
   2    -87.1391114 -0.310745E-04  0.121E-02    0.29       1.2  T
   3    -87.1391163 -0.497617E-05  0.493E-03    0.28       3.0  T
   4    -87.1391164 -0.906216E-07  0.221E-03    0.28       6.7  T
   5    -87.1391165 -0.264883E-07  0.418E-04    0.28      35.3  T
   6    -87.1391165 -0.718548E-08  0.122E-04    0.28     120.7  T
   7    -87.1391165 -0.250466E-09  0.486E-05    0.28     303.6  T
     SCC iter.                  ...        0 min,  0.041 sec
     gradient                   ...        0 min,  0.066 sec
 * total energy  :   -86.3126062 Eh     change       -0.6674493E-03 Eh
   gradient norm :     0.0075178 Eh/α   predicted    -0.5477678E-03 ( -17.93%)
   displ. norm   :     0.2600386 α      lambda       -0.4069825E-03
   maximum displ.:     0.1699466 α      in ANC's #6, #7, #5, ...

........................................................................
.............................. CYCLE    6 ..............................
........................................................................
   1    -87.1397272 -0.871397E+02  0.131E-02    0.30       0.0  T
   2    -87.1397382 -0.110056E-04  0.665E-03    0.30       2.2  T
   3    -87.1397403 -0.212894E-05  0.224E-03    0.30       6.6  T
   4    -87.1397404 -0.231714E-07  0.113E-03    0.30      13.0  T
   5    -87.1397404 -0.249297E-08  0.237E-04    0.30      62.2  T
   6    -87.1397404 -0.157672E-08  0.681E-05    0.30     216.5  T
   7    -87.1397404 -0.803624E-10  0.260E-05    0.30     567.6  T
     SCC iter.                  ...        0 min,  0.042 sec
     gradient                   ...        0 min,  0.069 sec
 * total energy  :   -86.3129151 Eh     change       -0.3089602E-03 Eh
   gradient norm :     0.0082443 Eh/α   predicted    -0.2172519E-03 ( -29.68%)
   displ. norm   :     0.2872974 α      lambda       -0.3618161E-03
   maximum displ.:     0.1918955 α      in ANC's #6, #7, #3, ...

........................................................................
.............................. CYCLE    7 ..............................
........................................................................
   1    -87.1411445 -0.871411E+02  0.101E-02    0.30       0.0  T
   2    -87.1411507 -0.617636E-05  0.461E-03    0.31       3.2  T
   3    -87.1411518 -0.115665E-05  0.192E-03    0.30       7.7  T
   4    -87.1411519 -0.330479E-07  0.929E-04    0.30      15.9  T
   5    -87.1411519 -0.505480E-09  0.182E-04    0.30      80.8  T
   6    -87.1411519 -0.713612E-09  0.496E-05    0.30     297.1  T
     SCC iter.                  ...        0 min,  0.036 sec
     gradient                   ...        0 min,  0.067 sec
 * total energy  :   -86.3131951 Eh     change       -0.2799690E-03 Eh
   gradient norm :     0.0077560 Eh/α   predicted    -0.1958598E-03 ( -30.04%)
   displ. norm   :     0.2826322 α      lambda       -0.2831737E-03
   maximum displ.:     0.1939624 α      in ANC's #6, #7, #3, ...

........................................................................
.............................. CYCLE    8 ..............................
........................................................................
   1    -87.1425624 -0.871426E+02  0.898E-03    0.29       0.0  T
   2    -87.1425656 -0.321301E-05  0.351E-03    0.30       4.2  T
   3    -87.1425660 -0.368768E-06  0.212E-03    0.30       7.0  T
   4    -87.1425660 -0.479315E-07  0.874E-04    0.30      16.9  T
   5    -87.1425660 -0.160293E-08  0.149E-04    0.30      98.7  T
   6    -87.1425660 -0.511989E-09  0.406E-05    0.30     363.6  T
     SCC iter.                  ...        0 min,  0.036 sec
     gradient                   ...        0 min,  0.066 sec
 * total energy  :   -86.3134039 Eh     change       -0.2087379E-03 Eh
   gradient norm :     0.0054831 Eh/α   predicted    -0.1528972E-03 ( -26.75%)
   displ. norm   :     0.2176633 α      lambda       -0.1495595E-03
   maximum displ.:     0.1543368 α      in ANC's #6, #3, #7, ...

........................................................................
.............................. CYCLE    9 ..............................
........................................................................
   1    -87.1435533 -0.871436E+02  0.649E-03    0.29       0.0  T
   2    -87.1435549 -0.158087E-05  0.275E-03    0.30       5.4  T
   3    -87.1435550 -0.105338E-06  0.157E-03    0.30       9.4  T
   4    -87.1435550 -0.385293E-08  0.543E-04    0.30      27.1  T
   5    -87.1435550 -0.512983E-08  0.116E-04    0.30     126.9  T
   6    -87.1435550 -0.404725E-09  0.318E-05    0.30     463.1  T
     SCC iter.                  ...        0 min,  0.036 sec
     gradient                   ...        0 min,  0.068 sec
 * total energy  :   -86.3135126 Eh     change       -0.1087108E-03 Eh
   gradient norm :     0.0035799 Eh/α   predicted    -0.7832526E-04 ( -27.95%)
   displ. norm   :     0.1625980 α      lambda       -0.8053565E-04
   maximum displ.:     0.1135405 α      in ANC's #6, #3, #5, ...

........................................................................
.............................. CYCLE   10 ..............................
........................................................................
   1    -87.1440919 -0.871441E+02  0.376E-03    0.29       0.0  T
   2    -87.1440926 -0.658291E-06  0.181E-03    0.29       8.1  T
   3    -87.1440926 -0.360792E-07  0.993E-04    0.29      14.8  T
   4    -87.1440926 -0.180094E-09  0.310E-04    0.29      47.6  T
   5    -87.1440926 -0.171829E-08  0.724E-05    0.29     203.7  T
   6    -87.1440926 -0.162572E-09  0.203E-05    0.29     728.0  T
     SCC iter.                  ...        0 min,  0.036 sec
     gradient                   ...        0 min,  0.068 sec
 * total energy  :   -86.3135739 Eh     change       -0.6134061E-04 Eh
   gradient norm :     0.0031246 Eh/α   predicted    -0.4133846E-04 ( -32.61%)
   displ. norm   :     0.1618621 α      lambda       -0.6683948E-04
   maximum displ.:     0.1058841 α      in ANC's #6, #3, #16, ...

........................................................................
.............................. CYCLE   11 ..............................
........................................................................
   1    -87.1443061 -0.871443E+02  0.322E-03    0.29       0.0  T
   2    -87.1443066 -0.560051E-06  0.145E-03    0.29      10.2  T
   3    -87.1443067 -0.480622E-07  0.784E-04    0.29      18.8  T
   4    -87.1443067 -0.529374E-08  0.342E-04    0.29      43.1  T
   5    -87.1443067 -0.818630E-09  0.838E-05    0.29     176.0  T
   6    -87.1443067 -0.124786E-09  0.212E-05    0.29     696.7  T
     SCC iter.                  ...        0 min,  0.036 sec
     gradient                   ...        0 min,  0.067 sec
 * total energy  :   -86.3136236 Eh     change       -0.4973852E-04 Eh
   gradient norm :     0.0030811 Eh/α   predicted    -0.3429917E-04 ( -31.04%)
   displ. norm   :     0.1524670 α      lambda       -0.5115833E-04
   maximum displ.:     0.0880669 α      in ANC's #6, #3, #5, ...

........................................................................
.............................. CYCLE   12 ..............................
........................................................................
   1    -87.1442522 -0.871443E+02  0.380E-03    0.29       0.0  T
   2    -87.1442529 -0.743551E-06  0.139E-03    0.28      10.6  T
   3    -87.1442530 -0.949934E-07  0.739E-04    0.28      20.0  T
   4    -87.1442530 -0.112236E-07  0.336E-04    0.28      43.9  T
   5    -87.1442530 -0.110106E-09  0.766E-05    0.28     192.6  T
   6    -87.1442530 -0.972591E-10  0.225E-05    0.28     655.6  T
     SCC iter.                  ...        0 min,  0.035 sec
     gradient                   ...        0 min,  0.066 sec
 * total energy  :   -86.3136606 Eh     change       -0.3693844E-04 Eh
   gradient norm :     0.0025825 Eh/α   predicted    -0.2618134E-04 ( -29.12%)
   displ. norm   :     0.1136077 α      lambda       -0.3463963E-04
   maximum displ.:     0.0722451 α      in ANC's #3, #6, #7, ...

........................................................................
.............................. CYCLE   13 ..............................
........................................................................
   1    -87.1441907 -0.871442E+02  0.382E-03    0.29       0.0  T
   2    -87.1441915 -0.742000E-06  0.138E-03    0.28      10.7  T
   3    -87.1441916 -0.100844E-06  0.702E-04    0.28      21.0  T
   4    -87.1441916 -0.833496E-08  0.340E-04    0.28      43.3  T
   5    -87.1441916 -0.947438E-10  0.652E-05    0.28     226.1  T
   6    -87.1441916 -0.107931E-09  0.207E-05    0.28     710.9  T
     SCC iter.                  ...        0 min,  0.036 sec
     gradient                   ...        0 min,  0.068 sec
 * total energy  :   -86.3136865 Eh     change       -0.2595625E-04 Eh
   gradient norm :     0.0018527 Eh/α   predicted    -0.1754439E-04 ( -32.41%)
   displ. norm   :     0.1445907 α      lambda       -0.2797417E-04
   maximum displ.:     0.0957367 α      in ANC's #3, #7, #5, ...

........................................................................
.............................. CYCLE   14 ..............................
........................................................................
   1    -87.1438271 -0.871438E+02  0.510E-03    0.29       0.0  T
   2    -87.1438283 -0.120759E-05  0.193E-03    0.28       7.6  T
   3    -87.1438284 -0.136485E-06  0.107E-03    0.29      13.8  T
   4    -87.1438284 -0.121665E-07  0.503E-04    0.29      29.3  T
   5    -87.1438284 -0.531656E-09  0.865E-05    0.29     170.5  T
   6    -87.1438284 -0.213262E-09  0.288E-05    0.29     511.9  T
     SCC iter.                  ...        0 min,  0.036 sec
     gradient                   ...        0 min,  0.078 sec
 * total energy  :   -86.3137128 Eh     change       -0.2622451E-04 Eh
   gradient norm :     0.0021046 Eh/α   predicted    -0.1412009E-04 ( -46.16%)
   displ. norm   :     0.0956250 α      lambda        0.1096703E-04
   maximum displ.:     0.0632888 α      in ANC's #3, #7, #5, ...

........................................................................
.............................. CYCLE   15 ..............................
........................................................................
   1    -87.1433847 -0.871434E+02  0.344E-03    0.29       0.0  T
   2    -87.1433852 -0.540727E-06  0.133E-03    0.29      11.1  T
   3    -87.1433853 -0.623721E-07  0.736E-04    0.29      20.0  T
   4    -87.1433853 -0.535948E-08  0.340E-04    0.29      43.3  T
   5    -87.1433853 -0.267363E-09  0.582E-05    0.29     253.4  T
   6    -87.1433853 -0.963780E-10  0.193E-05    0.29     762.9  T
     SCC iter.                  ...        0 min,  0.039 sec
     gradient                   ...        0 min,  0.068 sec
 * total energy  :   -86.3137120 Eh     change        0.7152619E-06 Eh
   gradient norm :     0.0035088 Eh/α   predicted     0.5532874E-05 ( 673.55%)
   displ. norm   :     0.0402596 α      lambda       -0.1897217E-04
   maximum displ.:     0.0264831 α      in ANC's #6, #3, #16, ...

........................................................................
.............................. CYCLE   16 ..............................
........................................................................
   1    -87.1440876 -0.871441E+02  0.261E-03    0.28       0.0  T
   2    -87.1440879 -0.227751E-06  0.108E-03    0.29      13.6  T
   3    -87.1440879 -0.244726E-07  0.613E-04    0.29      24.1  T
   4    -87.1440879 -0.319905E-08  0.232E-04    0.29      63.6  T
   5    -87.1440879 -0.282014E-09  0.421E-05    0.29     350.2  T
   6    -87.1440879 -0.535039E-10  0.131E-05    0.29    1125.5  T
     SCC iter.                  ...        0 min,  0.035 sec
     gradient                   ...        0 min,  0.063 sec
 * total energy  :   -86.3137256 Eh     change       -0.1360268E-04 Eh
   gradient norm :     0.0023042 Eh/α   predicted    -0.9502711E-05 ( -30.14%)
   displ. norm   :     0.0456771 α      lambda       -0.2436099E-04
   maximum displ.:     0.0218610 α      in ANC's #6, #14, #2, ...

........................................................................
.............................. CYCLE   17 ..............................
........................................................................
   1    -87.1441354 -0.871441E+02  0.394E-03    0.28       0.0  T
   2    -87.1441361 -0.664821E-06  0.148E-03    0.29      10.0  T
   3    -87.1441362 -0.726389E-07  0.822E-04    0.29      17.9  T
   4    -87.1441362 -0.678071E-08  0.381E-04    0.29      38.7  T
   5    -87.1441362 -0.265075E-09  0.656E-05    0.29     224.7  T
   6    -87.1441362 -0.140602E-09  0.184E-05    0.29     801.5  T
     SCC iter.                  ...        0 min,  0.041 sec
     gradient                   ...        0 min,  0.076 sec
 * total energy  :   -86.3137407 Eh     change       -0.1500662E-04 Eh
   gradient norm :     0.0010925 Eh/α   predicted    -0.1220749E-04 ( -18.65%)
   displ. norm   :     0.1167027 α      lambda       -0.1541244E-04
   maximum displ.:     0.0739091 α      in ANC's #3, #7, #2, ...

........................................................................
.............................. CYCLE   18 ..............................
........................................................................
   1    -87.1444468 -0.871444E+02  0.272E-03    0.29       0.0  T
   2    -87.1444470 -0.180003E-06  0.112E-03    0.29      13.2  T
   3    -87.1444470 -0.168939E-07  0.647E-04    0.29      22.8  T
   4    -87.1444470 -0.424325E-08  0.216E-04    0.29      68.4  T
   5    -87.1444470 -0.319247E-09  0.455E-05    0.29     323.9  T
   6    -87.1444470 -0.428599E-10  0.173E-05    0.29     850.8  T
     SCC iter.                  ...        0 min,  0.041 sec
     gradient                   ...        0 min,  0.078 sec
 * total energy  :   -86.3137532 Eh     change       -0.1255389E-04 Eh
   gradient norm :     0.0016463 Eh/α   predicted    -0.7755173E-05 ( -38.22%)
   displ. norm   :     0.1006454 α      lambda       -0.1003247E-04
   maximum displ.:     0.0682396 α      in ANC's #3, #5, #16, ...

........................................................................
.............................. CYCLE   19 ..............................
........................................................................
   1    -87.1439113 -0.871439E+02  0.186E-03    0.29       0.0  T
   2    -87.1439113 -0.388620E-07  0.870E-04    0.29      16.9  T
   3    -87.1439113 -0.229416E-08  0.356E-04    0.29      41.4  T
   4    -87.1439113 -0.997730E-09  0.990E-05    0.29     149.0  T
   5    -87.1439113 -0.866436E-10  0.344E-05    0.29     429.1  T
     SCC iter.                  ...        0 min,  0.035 sec
     gradient                   ...        0 min,  0.078 sec
 * total energy  :   -86.3137634 Eh     change       -0.1020795E-04 Eh
   gradient norm :     0.0010800 Eh/α   predicted    -0.5039918E-05 ( -50.63%)
   displ. norm   :     0.0852171 α      lambda       -0.7837079E-05
   maximum displ.:     0.0623326 α      in ANC's #3, #2, #16, ...

........................................................................
.............................. CYCLE   20 ..............................
........................................................................
   1    -87.1439343 -0.871439E+02  0.146E-03    0.29       0.0  T
   2    -87.1439343 -0.711165E-07  0.613E-04    0.29      24.1  T
   3    -87.1439344 -0.318335E-08  0.315E-04    0.29      46.8  T
   4    -87.1439344 -0.469257E-09  0.111E-04    0.29     132.2  T
   5    -87.1439344 -0.143672E-09  0.311E-05    0.29     473.5  T
     SCC iter.                  ...        0 min,  0.035 sec
     gradient                   ...        0 min,  0.079 sec
 * total energy  :   -86.3137712 Eh     change       -0.7823335E-05 Eh
   gradient norm :     0.0007875 Eh/α   predicted    -0.3932289E-05 ( -49.74%)
   displ. norm   :     0.0666333 α      lambda       -0.4957913E-05
   maximum displ.:     0.0499594 α      in ANC's #3, #2, #16, ...
 * RMSD in coord.:     0.3666019 α      energy gain  -0.2242987E-01 Eh

generating ANC from model Hessian ...
Using Lindh-Hessian (1995)
 Shifting diagonal of input Hessian by   9.843150715228980E-003
 Lowest  eigenvalues of input Hessian
    0.000000    0.000000    0.000000    0.000000    0.000000    0.000000
    0.010000    0.010199    0.010471    0.010542    0.010899    0.011784
    0.012709    0.013408    0.013755    0.014702    0.015327    0.016000
 Highest eigenvalues
    2.034429    2.089480    2.202107    2.380709    2.408129    2.450081
 

........................................................................
.............................. CYCLE   21 ..............................
........................................................................
   1    -87.1440202 -0.871440E+02  0.934E-04    0.29       0.0  T
   2    -87.1440203 -0.266516E-07  0.508E-04    0.29      29.0  T
   3    -87.1440203 -0.389723E-08  0.265E-04    0.29      55.7  T
   4    -87.1440203 -0.522945E-09  0.786E-05    0.29     187.7  T
   5    -87.1440203 -0.546692E-10  0.252E-05    0.29     586.2  T
     SCC iter.                  ...        0 min,  0.022 sec
     gradient                   ...        0 min,  0.073 sec
 * total energy  :   -86.3137770 Eh     change       -0.5726972E-05 Eh
   gradient norm :     0.0007004 Eh/α   predicted     0.0000000E+00 (-100.00%)
   displ. norm   :     0.0179203 α      lambda       -0.2522878E-05
   maximum displ.:     0.0089081 α      in ANC's #5, #2, #7, ...

........................................................................
.............................. CYCLE   22 ..............................
........................................................................
   1    -87.1441775 -0.871442E+02  0.553E-04    0.29       0.0  T
   2    -87.1441775 -0.790509E-08  0.287E-04    0.29      51.4  T
   3    -87.1441775 -0.551140E-09  0.158E-04    0.29      93.3  T
   4    -87.1441775 -0.116202E-09  0.441E-05    0.29     334.5  T
     SCC iter.                  ...        0 min,  0.027 sec
     gradient                   ...        0 min,  0.069 sec
 * total energy  :   -86.3137800 Eh     change       -0.3010398E-05 Eh
   gradient norm :     0.0003131 Eh/α   predicted    -0.1279066E-05 ( -57.51%)
   displ. norm   :     0.0546225 α      lambda       -0.5182572E-05
   maximum displ.:     0.0279035 α      in ANC's #5, #2, #7, ...

   *** GEOMETRY OPTIMIZATION CONVERGED AFTER 22 ITERATIONS ***

------------------------------------------------------------------------
 total energy gain   :        -0.0224386 Eh      -14.0804 kcal/mol
 total RMSD          :         0.3669391 a0        0.1942 Å
 total power (kW/mol):        -2.6778439 (step)  -18.5964 (real)
------------------------------------------------------------------------

 ANCopt (total)                0 d,  0 h,  0 min,  3.168 sec
 optimizer setup                ...        0 min,  0.001 sec (  0.028%)
 model hessian                  ...        0 min,  0.070 sec (  2.207%)
 ANC generation                 ...        0 min,  0.007 sec (  0.226%)
 coordinate transformation      ...        0 min,  0.001 sec (  0.016%)
 single point calculation       ...        0 min,  3.081 sec ( 97.251%)
 optimization log               ...        0 min,  0.005 sec (  0.151%)
 hessian update                 ...        0 min,  0.001 sec (  0.016%)
 rational function              ...        0 min,  0.002 sec (  0.067%)

================
 final structure:
================
46
 xtb: 6.5.1 (579679a)
C            5.38933385201685        2.68444941816165       -0.26579293071868
O            4.31764827768330        1.74564847159133       -0.12450624578778
C            4.50647801289379        0.54245621335561       -0.66598217934680
O            5.51626310412798        0.22613000338007       -1.24853631102049
C            3.32965978614064       -0.35285269445133       -0.45812412950989
N            2.26051341341374        0.19041478586006        0.19992000466097
C            1.19562238546710       -0.49573011059959        0.44988300221269
C            0.10916746273336        0.24791263098348        1.21323720658850
C            0.14632353029302       -0.15019049252433        2.69312259292301
C            0.32072853633865        1.75918760374248        1.06617335591536
N           -1.19563807974411       -0.07781687301366        0.58908392441146
C           -2.35097132638075        0.24070776580769        1.14298654992373
O           -2.58614772136008        0.72801692234315        2.21147286486180
C           -3.61231079020701       -0.14180093518010        0.19618333630317
C           -4.73507347614688       -0.63537608321045        1.10309109638015
N           -3.22197492769386       -1.04403437043358       -0.80755397831375
N           -3.29072942045333       -0.48626254372579       -1.94336139773285
C           -3.75862961594938        0.79107684205936       -1.75276426717143
C           -4.00459930590804        1.76594699311076       -2.80961359819353
O           -3.96385853676787        1.02633751509847       -0.50994260495494
N            1.07851357484274       -1.81650145831770        0.09558756559067
C           -0.07658040575011       -2.67016753566428        0.37801326355021
C            2.08314737890673       -2.45021815909784       -0.62067665491965
O            1.98613600702562       -3.61326841990649       -0.99036094329451
C            3.26997200495841       -1.64898678150408       -0.89103877168264
O            4.24153009317985       -2.26765646353577       -1.56244381172787
H            6.29220692809109        2.29823390533321        0.21397916826167
H            5.06399223443904        3.60112603584326        0.22151477875432
H            5.58993176601287        2.86728003045849       -1.32418728177244
H            1.17030247054205       -0.05176532121847        3.05150870075700
H           -0.49344335338895        0.50714971779764        3.27826730773551
H           -0.18035062536041       -1.17668131375403        2.83876945166013
H           -0.48550283925835        2.28988496791378        1.56873882216208
H            1.27251816854567        2.04065230064459        1.51331344723118
H            0.33040744428813        2.03281293838741        0.01302837678635
H           -1.18758422127688       -0.39084733888964       -0.36832731017433
H           -5.62574619410395       -0.80807619867297        0.50367603783808
H           -4.92943063385818        0.12686339395850        1.85595182273683
H           -4.42165140989566       -1.55951560876740        1.58294281196847
H           -4.91301761931259        1.46830090037977       -3.34341147584955
H           -4.14463328736177        2.76177066225574       -2.39433404392455
H           -3.19012333191511        1.74759426001461       -3.53439253542354
H            0.29301623232363       -3.67770105388464        0.57038249786252
H           -0.73195427417540       -2.68927748696604       -0.49222913299513
H           -0.62041096598869       -2.30671229785392        1.24044348675845
H            3.95694969799757       -3.17851673730897       -1.76399286931827
 
 Bond Distances (Angstroems)
 ---------------------------
C1-O2=1.4317         C1-H27=1.0929        C1-H28=1.0879        C1-H29=1.0926        O2-C1=1.4317         O2-C3=1.3329         
C3-O2=1.3329         C3-O4=1.2079         C3-C5=1.4932         O4-C3=1.2079         C5-C3=1.4932         C5-N6=1.3679         
C5-C25=1.3678        N6-C5=1.3679         N6-C7=1.2912         C7-N6=1.2912         C7-C8=1.5219         C7-N21=1.3725        
C8-C7=1.5219         C8-C9=1.5329         C8-C10=1.5331        C8-N11=1.4826        C9-C8=1.5329         C9-H30=1.0893        
C9-H31=1.0880        C9-H32=1.0870        C10-C8=1.5331        C10-H33=1.0882       C10-H34=1.0886       C10-H35=1.0882       
N11-C8=1.4826        N11-C12=1.3203       N11-H36=1.0073       C12-N11=1.3203       C12-O13=1.1977       C12-C14=1.6229       
O13-C12=1.1977       C14-C12=1.6229       C14-C15=1.5254       C14-N16=1.4049       C14-O20=1.4095       C15-C14=1.5254       
C15-H37=1.0874       C15-H38=1.0888       C15-H39=1.0874       N16-C14=1.4049       N16-N17=1.2672       N17-N16=1.2672       
N17-C18=1.3736       C18-N17=1.3736       C18-C19=1.4587       C18-O20=1.2814       C19-C18=1.4587       C19-H40=1.0949       
C19-H41=1.0880       C19-H42=1.0904       O20-C14=1.4095       O20-C18=1.2814       N21-C7=1.3725        N21-C22=1.4638       
N21-C23=1.3871       C22-N21=1.4638       C22-H43=1.0903       C22-H44=1.0896       C22-H45=1.0824       C23-N21=1.3871       
C23-O24=1.2242       C23-C25=1.4573       O24-C23=1.2242       C25-C5=1.3678        C25-C23=1.4573       C25-O26=1.3332       
O26-C25=1.3332       O26-H46=0.9753       H27-C1=1.0929        H28-C1=1.0879        H29-C1=1.0926        H30-C9=1.0893        
H31-C9=1.0880        H32-C9=1.0870        H33-C10=1.0882       H34-C10=1.0886       H35-C10=1.0882       H36-N11=1.0073       
H37-C15=1.0874       H38-C15=1.0888       H39-C15=1.0874       H40-C19=1.0949       H41-C19=1.0880       H42-C19=1.0904       
H43-C22=1.0903       H44-C22=1.0896       H45-C22=1.0824       H46-O26=0.9753       
 C  H  Rav=1.0890 sigma=0.0026  Rmin=1.0824  Rmax=1.0949    18
 C  C  Rav=1.5015 sigma=0.0662  Rmin=1.3678  Rmax=1.6229     9
 N  H  Rav=1.0073 sigma=0.0000  Rmin=1.0073  Rmax=1.0073     1
 N  C  Rav=1.3849 sigma=0.0575  Rmin=1.2912  Rmax=1.4826     9
 N  N  Rav=1.2672 sigma=0.0000  Rmin=1.2672  Rmax=1.2672     1
 O  H  Rav=0.9753 sigma=0.0000  Rmin=0.9753  Rmax=0.9753     1
 O  C  Rav=1.3023 sigma=0.0840  Rmin=1.1977  Rmax=1.4317     8
 
 selected bond angles (degree)
 --------------------
H27-C1-O2=110.08               H28-C1-O2=106.53               H28-C1-H27=110.37              H29-C1-O2=110.04               
H29-C1-H27=109.43              H29-C1-H28=110.35              C3-O2-C1=116.47                O4-C3-O2=123.42                
C5-C3-O2=111.90                C5-C3-O4=124.68                N6-C5-C3=116.41                C25-C5-C3=123.95               
C25-C5-N6=119.64               C7-N6-C5=121.78                C8-C7-N6=115.23                N21-C7-N6=122.13               
N21-C7-C8=122.60               C9-C8-C7=109.88                C10-C8-C7=109.58               C10-C8-C9=110.20               
N11-C8-C7=108.04               N11-C8-C9=111.76               N11-C8-C10=107.32              H30-C9-C8=108.48               
H31-C9-C8=110.37               H31-C9-H30=108.74              H32-C9-C8=111.55               H32-C9-H30=108.89              
H32-C9-H31=108.77              H33-C10-C8=109.52              H34-C10-C8=109.64              H34-C10-H33=109.39             
H35-C10-C8=110.00              H35-C10-H33=109.32             H35-C10-H34=108.95             
 
 selected dihedral angles (degree)
 ---------------------------------
C3-O2-C1-H27=299.25           C3-O2-C1-H28=179.57           C3-O2-C1-H29= 59.94           O4-C3-O2-C1=  0.19            
C5-C3-O2-C1=179.95            N6-C5-C3-O2=  1.71            N6-C5-C3-O4=181.47            C25-C5-C3-O2=181.23           
C25-C5-C3-O4=  0.99           C7-N6-C5-C3=180.86            C7-N6-C5-C25=  1.32           C8-C7-N6-C5=178.86            
N21-C7-N6-C5=  1.28           C9-C8-C7-N6=259.16            C9-C8-C7-N21= 76.73           C10-C8-C7-N6= 20.38           
C10-C8-C7-N21=197.94          N11-C8-C7-N6=137.00           N11-C8-C7-N21=314.57          H30-C9-C8-C7= 50.31           
H30-C9-C8-C10=289.47          H30-C9-C8-N11=170.24          H31-C9-C8-C7=169.34           H31-C9-C8-C10= 48.50          
H31-C9-C8-N11=289.27          H32-C9-C8-C7=290.38           H32-C9-C8-C10=169.54          H32-C9-C8-N11= 50.31          
H33-C10-C8-C7=177.08          H33-C10-C8-C9=298.10          H33-C10-C8-N11= 60.00         H34-C10-C8-C7=297.11          
H34-C10-C8-C9= 58.13          H34-C10-C8-N11=180.03         H35-C10-C8-C7= 56.90          H35-C10-C8-C9=177.92          
H35-C10-C8-N11=299.82         
           -------------------------------------------------
          |                Final Singlepoint                |
           -------------------------------------------------

          ...................................................
          :                      SETUP                      :
          :.................................................:
          :  # basis functions                 144          :
          :  # atomic orbitals                 144          :
          :  # shells                           92          :
          :  # electrons                       140          :
          :  # halogen bonds                     0          :
          :  max. iterations                   250          :
          :  Hamiltonian                  GFN1-xTB          :
          :  restarted?                      false          :
          :  GBSA solvation                   true          :
          :  PC potential                    false          :
          :  electronic temp.          300.0000000     K    :
          :  accuracy                    1.0000000          :
          :  -> integral cutoff          0.2500000E+02      :
          :  -> integral neglect         0.1000000E-07      :
          :  -> SCF convergence          0.1000000E-05 Eh   :
          :  -> wf. convergence          0.2000000E-04 e    :
          :  Broyden damping             0.4000000          :
          ...................................................

 iter      E             dE          RMSdq      gap      omega  full diag
   1    -87.1441775 -0.871442E+02  0.995E-06    0.29       0.0  T
   2    -87.1441775 -0.241585E-11  0.509E-06    0.29    2897.6  T
   3    -87.1441775 -0.142109E-12  0.280E-06    0.29    5259.0  T

   *** convergence criteria satisfied after 3 iterations ***

         #    Occupation            Energy/Eh            Energy/eV
      -------------------------------------------------------------
         1        2.0000           -0.9368708             -25.4936
       ...           ...                  ...                  ...
        64        2.0000           -0.5013228             -13.6417
        65        2.0000           -0.4964083             -13.5080
        66        2.0000           -0.4923293             -13.3970
        67        2.0000           -0.4867159             -13.2442
        68        2.0000           -0.4721882             -12.8489
        69        2.0000           -0.4582226             -12.4689
        70        1.9922           -0.4407290             -11.9928 (HOMO)
        71        0.0078           -0.4302032             -11.7064 (LUMO)
        72                         -0.3345523              -9.1036
        73                         -0.3330455              -9.0626
        74                         -0.3075106              -8.3678
        75                         -0.2986573              -8.1269
       ...                                ...                  ...
       144                          0.7369320              20.0529
      -------------------------------------------------------------
                  HL-Gap            0.0105257 Eh            0.2864 eV
             Fermi-level           -0.4354661 Eh          -11.8496 eV

 SCC (total)                   0 d,  0 h,  0 min,  0.130 sec
 SCC setup                      ...        0 min,  0.002 sec (  1.518%)
 Dispersion                     ...        0 min,  0.000 sec (  0.220%)
 classical contributions        ...        0 min,  0.000 sec (  0.086%)
 integral evaluation            ...        0 min,  0.030 sec ( 23.451%)
 iterations                     ...        0 min,  0.021 sec ( 15.904%)
 molecular gradient             ...        0 min,  0.075 sec ( 57.639%)
 printout                       ...        0 min,  0.002 sec (  1.164%)

         :::::::::::::::::::::::::::::::::::::::::::::::::::::
         ::                     SUMMARY                     ::
         :::::::::::::::::::::::::::::::::::::::::::::::::::::
         :: total energy             -86.313779978123 Eh    ::
         :: total w/o Gsasa/hb       -86.288316960229 Eh    ::
         :: gradient norm              0.000316427022 Eh/a0 ::
         :: HOMO-LUMO gap              0.286419722713 eV    ::
         ::.................................................::
         :: SCC energy               -87.144177462056 Eh    ::
         :: -> electrostatic           0.423199743347 Eh    ::
         :: -> Gsolv                  -0.119640941024 Eh    ::
         ::    -> Gelec               -0.094177923130 Eh    ::
         ::    -> Gsasa               -0.024674475481 Eh    ::
         ::    -> Ghb                 -0.008412821417 Eh    ::
         ::    -> Gshift               0.007624279005 Eh    ::
         :: repulsion energy           0.860530130386 Eh    ::
         :: dispersion energy         -0.030132646452 Eh    ::
         :: halogen bond corr.         0.000000000000 Eh    ::
         :: add. restraining           0.000000000000 Eh    ::
         :: total charge               1.000000000079 e     ::
         :::::::::::::::::::::::::::::::::::::::::::::::::::::

           -------------------------------------------------
          |                Property Printout                |
           -------------------------------------------------

    * Orbital Energies and Occupations

         #    Occupation            Energy/Eh            Energy/eV
      -------------------------------------------------------------
         1        2.0000           -0.9368708             -25.4936
       ...           ...                  ...                  ...
        58        2.0000           -0.5324752             -14.4894
        59        2.0000           -0.5273578             -14.3501
        60        2.0000           -0.5220893             -14.2068
        61        2.0000           -0.5187874             -14.1169
        62        2.0000           -0.5169892             -14.0680
        63        2.0000           -0.5064704             -13.7818
        64        2.0000           -0.5013228             -13.6417
        65        2.0000           -0.4964083             -13.5080
        66        2.0000           -0.4923293             -13.3970
        67        2.0000           -0.4867159             -13.2442
        68        2.0000           -0.4721882             -12.8489
        69        2.0000           -0.4582226             -12.4689
        70        1.9922           -0.4407290             -11.9928 (HOMO)
        71        0.0078           -0.4302032             -11.7064 (LUMO)
        72                         -0.3345523              -9.1036
        73                         -0.3330455              -9.0626
        74                         -0.3075106              -8.3678
        75                         -0.2986573              -8.1269
        76                         -0.2487925              -6.7700
        77                         -0.1780082              -4.8438
        78                         -0.1681779              -4.5764
        79                         -0.1582341              -4.3058
        80                         -0.1536862              -4.1820
        81                         -0.1437751              -3.9123
       ...                                ...                  ...
       144                          0.7369320              20.0529
      -------------------------------------------------------------
                  HL-Gap            0.0105257 Eh            0.2864 eV
             Fermi-level           -0.4354661 Eh          -11.8496 eV

  Mulliken/CM5 charges         n(s)   n(p)   n(d)
     1C     0.16256  0.04187   0.981  2.856  0.000
     2O    -0.41219 -0.49439   1.686  4.727  0.000
     3C     0.57783  0.64472   0.967  2.456  0.000
     4O    -0.55577 -0.60131   1.723  4.832  0.000
     5C     0.08360  0.16147   1.041  2.875  0.000
     6N    -0.36221 -0.55136   1.521  3.841  0.000
     7C     0.26544  0.41769   1.016  2.719  0.000
     8C     0.15082  0.18868   1.075  2.774  0.000
     9C    -0.10900 -0.24967   1.023  3.086  0.000
    10C    -0.10276 -0.24042   1.022  3.081  0.000
    11N    -0.31896 -0.68077   1.437  3.882  0.000
    12C     0.51011  0.62406   0.983  2.507  0.000
    13O    -0.47504 -0.52802   1.718  4.757  0.000
    14C     0.31642  0.40582   1.060  2.624  0.000
    15C    -0.08323 -0.21959   1.030  3.053  0.000
    16N    -0.09699 -0.20280   1.573  3.524  0.000
    17N    -0.13953 -0.23616   1.552  3.588  0.000
    18C     0.47046  0.56828   1.050  2.480  0.000
    19C    -0.11054 -0.24725   1.023  3.088  0.000
    20O    -0.29740 -0.35767   1.682  4.616  0.000
    21N    -0.21395 -0.46341   1.454  3.760  0.000
    22C     0.04337 -0.04411   0.995  2.961  0.000
    23C     0.43499  0.53641   0.989  2.576  0.000
    24O    -0.57415 -0.62555   1.727  4.847  0.000
    25C     0.23708  0.27132   1.025  2.738  0.000
    26O    -0.49457 -0.68675   1.693  4.802  0.000
    27H     0.05413  0.11567   0.946  0.000  0.000
    28H     0.05517  0.11552   0.945  0.000  0.000
    29H     0.05404  0.11571   0.946  0.000  0.000
    30H     0.06239  0.11779   0.938  0.000  0.000
    31H     0.07440  0.13488   0.926  0.000  0.000
    32H     0.05730  0.11519   0.943  0.000  0.000
    33H     0.06121  0.11996   0.939  0.000  0.000
    34H     0.06192  0.12092   0.938  0.000  0.000
    35H     0.05224  0.11130   0.948  0.000  0.000
    36H     0.27292  0.48913   0.727  0.000  0.000
    37H     0.09291  0.15042   0.907  0.000  0.000
    38H     0.10044  0.16012   0.900  0.000  0.000
    39H     0.08976  0.14672   0.910  0.000  0.000
    40H     0.14079  0.19502   0.859  0.000  0.000
    41H     0.11581  0.17144   0.884  0.000  0.000
    42H     0.12277  0.17777   0.877  0.000  0.000
    43H     0.09136  0.16039   0.909  0.000  0.000
    44H     0.06510  0.13168   0.935  0.000  0.000
    45H     0.05462  0.12582   0.945  0.000  0.000
    46H     0.41435  0.59350   0.586  0.000  0.000

Wiberg/Mayer (AO) data.
largest (>0.10) Wiberg bond orders for each atom

 ---------------------------------------------------------------------------
     #   Z sym  total        # sym  WBO       # sym  WBO       # sym  WBO
 ---------------------------------------------------------------------------
     1   6 C    3.869 --    28 H    0.986    29 H    0.979    27 H    0.979
                             2 O    0.895
     2   8 O    2.201 --     3 C    1.115     1 C    0.895     4 O    0.136
     3   6 C    3.853 --     4 O    1.664     2 O    1.115     5 C    0.996
     4   8 O    1.929 --     3 C    1.664     2 O    0.136
     5   6 C    3.957 --    25 C    1.488     6 N    1.185     3 C    0.996
     6   7 N    3.031 --     7 C    1.579     5 C    1.185
     7   6 C    3.933 --     6 N    1.579    21 N    1.166     8 C    0.974
     8   6 C    3.906 --    10 C    0.989     9 C    0.984     7 C    0.974
                            11 N    0.883
     9   6 C    3.982 --     8 C    0.984    30 H    0.981    32 H    0.977
                            31 H    0.975
    10   6 C    3.986 --     8 C    0.989    35 H    0.984    33 H    0.983
                            34 H    0.980
    11   7 N    3.383 --    12 C    1.349    36 H    0.884     8 C    0.883
                            13 O    0.181
    12   6 C    3.906 --    13 O    1.679    11 N    1.349    14 C    0.733
    13   8 O    2.081 --    12 C    1.679    11 N    0.181
    14   6 C    3.834 --    16 N    1.110    15 C    0.923    20 O    0.900
                            12 C    0.733
    15   6 C    3.949 --    39 H    0.978    37 H    0.976    38 H    0.972
                            14 C    0.923
    16   7 N    3.011 --    17 N    1.635    14 C    1.110
    17   7 N    3.013 --    16 N    1.635    18 C    1.199
    18   6 C    3.803 --    20 O    1.296    17 N    1.199    19 C    1.078
    19   6 C    3.963 --    18 C    1.078    41 H    0.968    42 H    0.941
                            40 H    0.906
    20   8 O    2.385 --    18 C    1.296    14 C    0.900
    21   7 N    3.503 --     7 C    1.166    23 C    1.122    22 C    0.927
                            24 O    0.134
    22   6 C    3.919 --    45 H    0.980    44 H    0.974    43 H    0.971
                            21 N    0.927
    23   6 C    3.911 --    24 O    1.569    21 N    1.122    25 C    1.070
    24   8 O    1.910 --    23 C    1.569    21 N    0.134
    25   6 C    3.917 --     5 C    1.488    26 O    1.120    23 C    1.070
    26   8 O    2.095 --    25 C    1.120    46 H    0.803
    27   1 H    1.006 --     1 C    0.979
    28   1 H    1.010 --     1 C    0.986
    29   1 H    1.006 --     1 C    0.979
    30   1 H    0.998 --     9 C    0.981
    31   1 H    1.003 --     9 C    0.975
    32   1 H    0.999 --     9 C    0.977
    33   1 H    0.999 --    10 C    0.983
    34   1 H    1.010 --    10 C    0.980
    35   1 H    1.004 --    10 C    0.984
    36   1 H    0.936 --    11 N    0.884
    37   1 H    0.990 --    15 C    0.976
    38   1 H    0.996 --    15 C    0.972
    39   1 H    0.991 --    15 C    0.978
    40   1 H    0.973 --    19 C    0.906
    41   1 H    0.985 --    19 C    0.968
    42   1 H    0.982 --    19 C    0.941
    43   1 H    1.002 --    22 C    0.971
    44   1 H    1.003 --    22 C    0.974
    45   1 H    1.007 --    22 C    0.980
    46   1 H    0.843 --    26 O    0.803
 ---------------------------------------------------------------------------

Topologies differ in total number of bonds
Writing topology from bond orders to xtbtopo.mol

 dipole moment from electron density (au)
     X       Y       Z   
  -7.6782   1.3452  -1.2493  total (Debye):   20.066

           -------------------------------------------------
          |                Geometry Summary                 |
           -------------------------------------------------

      molecular mass/u    :      366.3497991
   center of mass at/Å    :        0.2886223      -0.2183568      -0.1285735
  moments of inertia/u·Å² :        0.1475463E+04   0.4497877E+04   0.4800009E+04
rotational constants/cm⁻¹ :        0.1142532E-01   0.3747909E-02   0.3512000E-02

 * 42 selected distances

     #   Z          #   Z                                           value/Å
     1   6 C        2   8 O                                       1.4317191
     2   8 O        3   6 C                                       1.3328634
     3   6 C        4   8 O                                       1.2079312
     5   6 C        6   7 N                                       1.3679313
     6   7 N        7   6 C                                       1.2912279
     8   6 C        9   6 C                                       1.5329474
     8   6 C       10   6 C                                       1.5330813 (max)
    11   7 N       12   6 C                                       1.3202505
    12   6 C       13   8 O                                       1.1976817
    14   6 C       15   6 C                                       1.5253506
    14   6 C       16   7 N                                       1.4049471
    16   7 N       17   7 N                                       1.2672393
    17   7 N       18   6 C                                       1.3736281
    18   6 C       19   6 C                                       1.4586994
    14   6 C       20   8 O                                       1.4095203
    18   6 C       20   8 O                                       1.2814338
     7   6 C       21   7 N                                       1.3724711
    21   7 N       22   6 C                                       1.4638144
    21   7 N       23   6 C                                       1.3870547
    23   6 C       24   8 O                                       1.2242401
     5   6 C       25   6 C                                       1.3678237
    25   6 C       26   8 O                                       1.3332150
     1   6 C       27   1 H                                       1.0929427
     1   6 C       28   1 H                                       1.0879394
     1   6 C       29   1 H                                       1.0926415
     9   6 C       30   1 H                                       1.0893398
     9   6 C       31   1 H                                       1.0880222
     9   6 C       32   1 H                                       1.0870201
    10   6 C       33   1 H                                       1.0882192
    10   6 C       34   1 H                                       1.0886048
    10   6 C       35   1 H                                       1.0881540
    11   7 N       36   1 H                                       1.0073179
    15   6 C       37   1 H                                       1.0873922
    15   6 C       38   1 H                                       1.0888449
    15   6 C       39   1 H                                       1.0874397
    19   6 C       40   1 H                                       1.0948778
    19   6 C       41   1 H                                       1.0879943
    19   6 C       42   1 H                                       1.0904186
    22   6 C       43   1 H                                       1.0902897
    22   6 C       44   1 H                                       1.0895881
    22   6 C       45   1 H                                       1.0824221
    26   8 O       46   1 H                                       0.9753331 (min)

 * 7 distinct bonds (by element types)

   Z      Z             #   av. dist./Å        max./Å        min./Å
   1 H    6 C          18     1.0890084     1.0948778     1.0824221
   6 C    6 C           5     1.4835805     1.5330813     1.3678237
   1 H    7 N           1     1.0073179     1.0073179     1.0073179
   6 C    7 N           8     1.3726656     1.4638144     1.2912279
   7 N    7 N           1     1.2672393     1.2672393     1.2672393
   1 H    8 O           1     0.9753331     0.9753331     0.9753331
   6 C    8 O           8     1.3023256     1.4317191     1.1976817


optimized geometry written to: xtbopt.xyz


           -------------------------------------------------
          | TOTAL ENERGY              -86.313779978123 Eh   |
          | GRADIENT NORM               0.000316427022 Eh/α |
          | HOMO-LUMO GAP               0.286419722713 eV   |
           -------------------------------------------------

------------------------------------------------------------------------
 * finished run on 2023/06/20 at 15:47:39.401     
------------------------------------------------------------------------
 total:
 * wall-time:     0 d,  0 h,  0 min,  3.638 sec
 *  cpu-time:     0 d,  0 h,  0 min,  3.521 sec
 * ratio c/w:     0.968 speedup
 SCF:
 * wall-time:     0 d,  0 h,  0 min,  0.206 sec
 *  cpu-time:     0 d,  0 h,  0 min,  0.205 sec
 * ratio c/w:     0.998 speedup
 ANC optimizer:
 * wall-time:     0 d,  0 h,  0 min,  3.347 sec
 *  cpu-time:     0 d,  0 h,  0 min,  3.270 sec
 * ratio c/w:     0.977 speedup

