46
 energy: -86.310667288452 gnorm: 0.000749198887 xtb: 6.5.1 (579679a)
C           -4.17907966126785        3.41107469498224        2.54361643690738
O           -3.34032625084781        2.41024055667494        1.94246002289993
C           -3.94058997229378        1.47526531095472        1.24301355590908
O           -5.14158633753252        1.40806497103518        1.06595155516855
C           -3.01504352990145        0.46448330756793        0.65934374169104
C           -3.50571468902774       -0.58317078735483       -0.06479998985379
O           -4.78312732986835       -0.81808867268604       -0.29878589791475
C           -2.58603914736005       -1.60789916850486       -0.57524480660948
O           -2.85484260191040       -2.67962599735828       -1.00852085596704
N           -1.13319651910201       -1.15571278088463       -0.61614207269894
C           -1.07536589928067       -0.42326105832919       -1.93303546803673
C           -0.28052571415089       -2.37168686567675       -0.69041705738345
C           -0.77495348510380       -0.18155243459361        0.47185462095560
C            0.62168802036414       -0.05681424106863        1.05103137899670
C            0.75389180599140        1.32692695528843        1.71067425167809
C            0.81538882804270       -1.13757180057792        2.12664900605836
N            1.67401233024261       -0.21918382048359        0.05473539465658
C            1.84610461709559        0.68281433338996       -0.94884403343933
O            1.01411669164346        1.51631942637765       -1.26585542291064
C            3.12637759703953        0.50444259985597       -1.65899497290456
N            3.60095868746750        1.19536171909236       -2.64866674735592
N            4.81028568880674        0.65799235337291       -2.95842510295454
C            5.00398748400484       -0.33078343764589       -2.13965702797278
C            6.16576618576756       -1.24206004366783       -2.07044036742162
O            3.97514845153081       -0.47973826776633       -1.28980625109279
N           -1.67529989514690        0.54802678997232        0.97328111267552
H           -4.90875074623383        2.93257443171025        3.19979415582244
H           -3.51881745029862        4.06263941368349        3.11125507768852
H           -4.69914462016109        3.97119060358266        1.76390547629129
H           -5.34369065234109       -0.11173277815841        0.11560544486194
H           -0.03406424567828       -0.34328456646992       -2.22283421582593
H           -1.50989462130943        0.56460075347846       -1.80470553489467
H           -1.62397373080256       -1.00312856028461       -2.67127378756934
H           -0.45595046438171       -2.97137587333467        0.19750483163072
H           -0.57044483705404       -2.92684785649657       -1.57927944653765
H            0.75615894699942       -2.06488650707321       -0.76271181479931
H            0.08635821944972        1.38814542557777        2.56771281646784
H            0.49635352846547        2.11407028136295        1.00467157168360
H            1.78102841648393        1.46069717587554        2.04421214904665
H            1.73527262370433       -0.93091079692895        2.67122319370573
H           -0.02040911307446       -1.11787373514886        2.82405593921827
H            0.88944233243173       -2.12818249410298        1.68711448960041
H            2.46465821718234       -0.78505819578441        0.32030677681425
H            6.90014256483417       -0.96234186920254       -2.82259151763278
H            5.83791001085123       -2.26761144928532       -2.24005450202971
H            6.61578126573314       -1.19454604496278       -1.07889010662277
