      -----------------------------------------------------------      
     |                   =====================                   |     
     |                           x T B                           |     
     |                   =====================                   |     
     |                         S. Grimme                         |     
     |          Mulliken Center for Theoretical Chemistry        |     
     |                    University of Bonn                     |     
      -----------------------------------------------------------      

   * xtb version 6.5.1 (579679a) compiled by 'ehlert@majestix' on 2022-07-11

   xtb is free software: you can redistribute it and/or modify it under
   the terms of the GNU Lesser General Public License as published by
   the Free Software Foundation, either version 3 of the License, or
   (at your option) any later version.
   
   xtb is distributed in the hope that it will be useful,
   but WITHOUT ANY WARRANTY; without even the implied warranty of
   MERCHANTABILITY or FITNESS FOR A PARTICULAR PURPOSE.  See the
   GNU Lesser General Public License for more details.
   
   Cite this work as:
   * C. Bannwarth, E. Caldeweyher, S. Ehlert, A. Hansen, P. Pracht,
     J. Seibert, S. Spicher, S. Grimme, WIREs Comput. Mol. Sci., 2020, 11,
     e01493. DOI: 10.1002/wcms.1493
   
   for GFN2-xTB:
   * C. Bannwarth, S. Ehlert and S. Grimme., J. Chem. Theory Comput., 2019,
     15, 1652-1671. DOI: 10.1021/acs.jctc.8b01176
   for GFN1-xTB:
   * S. Grimme, C. Bannwarth, P. Shushkov, J. Chem. Theory Comput., 2017,
     13, 1989-2009. DOI: 10.1021/acs.jctc.7b00118
   for GFN0-xTB:
   * P. Pracht, E. Caldeweyher, S. Ehlert, S. Grimme, ChemRxiv, 2019, preprint.
     DOI: 10.26434/chemrxiv.8326202.v1
   for GFN-FF:
   * S. Spicher and S. Grimme, Angew. Chem. Int. Ed., 2020, 59, 15665-15673.
     DOI: 10.1002/anie.202004239
   
   for ALPB and GBSA implicit solvation:
   * S. Ehlert, M. Stahn, S. Spicher, S. Grimme, J. Chem. Theory Comput.,
     2021, 17, 4250-4261. DOI: 10.1021/acs.jctc.1c00471
   
   for DFT-D4:
   * E. Caldeweyher, C. Bannwarth and S. Grimme, J. Chem. Phys., 2017,
     147, 034112. DOI: 10.1063/1.4993215
   * E. Caldeweyher, S. Ehlert, A. Hansen, H. Neugebauer, S. Spicher,
     C. Bannwarth and S. Grimme, J. Chem. Phys., 2019, 150, 154122.
     DOI: 10.1063/1.5090222
   * E. Caldeweyher, J.-M. Mewes, S. Ehlert and S. Grimme, Phys. Chem. Chem. Phys.
     2020, 22, 8499-8512. DOI: 10.1039/D0CP00502A
   
   for sTDA-xTB:
   * S. Grimme and C. Bannwarth, J. Chem. Phys., 2016, 145, 054103.
     DOI: 10.1063/1.4959605
   
   in the mass-spec context:
   * V. Asgeirsson, C. Bauer and S. Grimme, Chem. Sci., 2017, 8, 4879.
     DOI: 10.1039/c7sc00601b
   * J. Koopman and S. Grimme, ACS Omega 2019, 4, 12, 15120-15133.
     DOI: 10.1021/acsomega.9b02011
   
   for metadynamics refer to:
   * S. Grimme, J. Chem. Theory Comput., 2019, 155, 2847-2862
     DOI: 10.1021/acs.jctc.9b00143
   
   for SPH calculations refer to:
   * S. Spicher and S. Grimme, J. Chem. Theory Comput., 2021, 17, 1701-1714
     DOI: 10.1021/acs.jctc.0c01306
   
   with help from (in alphabetical order)
   P. Atkinson, C. Bannwarth, F. Bohle, G. Brandenburg, E. Caldeweyher
   M. Checinski, S. Dohm, S. Ehlert, S. Ehrlich, I. Gerasimov, C. Hölzer
   A. Katbashev, J. Koopman, C. Lavigne, S. Lehtola, F. März, M. Müller,
   F. Musil, H. Neugebauer, J. Pisarek, C. Plett, P. Pracht, F. Pultar,
   J. Seibert, P. Shushkov, S. Spicher, M. Stahn, M. Steiner, T. Strunk,
   J. Stückrath, T. Rose, and J. Unsleber
   
 * started run on 2023/06/20 at 15:38:48.494     

           -------------------------------------------------
          |                Calculation Setup                |
           -------------------------------------------------

          program call               : /lustre/hpc/kemi/ree/PhD/git/ReactivityQM/dep/xtb-6.5.1/bin/xtb --gfn 1 /lustre/hpc/kemi/ree/PhD/git/ReactivityQM/calculations/R03/reac02prodN04/conf16/R03_reac02prodN04_conf16_gfn1.xyz --opt --vfukui --chrg 1 --uhf 0 --alpb DMSO
          hostname                   : node068
          coordinate file            : /lustre/hpc/kemi/ree/PhD/git/ReactivityQM/calculations/R03/reac02prodN04/conf16/R03_reac02prodN04_conf16_gfn1.xyz
          omp threads                :                     1

   ID    Z sym.   atoms
    1    6 C      1, 3, 5, 7-10, 12, 14, 17, 18, 21, 22, 24, 26
    2    8 O      2, 4, 13, 19, 23, 25
    3    7 N      6, 11, 15, 16, 20
    4    1 H      27-46

           -------------------------------------------------
          |                 G F N 1 - x T B                 |
           -------------------------------------------------

        Reference                      10.1021/acs.jctc.7b00118
      * Hamiltonian:
        H0-scaling (s, p, d)           1.850000    2.250000    2.000000
        zeta-weighting                 0.000000
      * Dispersion:
        s8                             2.400000
        a1                             0.630000
        a2                             5.000000
        s9                             0.000000
      * Repulsion:
        kExp                           1.500000
        rExp                           1.000000
      * Coulomb:
        alpha                          2.000000
        third order                    atomic
        anisotropic                    false
      * Halogen bond correction:
        rad-scale                      1.300000
        damping                        0.440000

      * Solvation model:               ALPB
        Solvent                        DMSO
        Parameter file                 internal GFN1-xTB/ALPB
        Dielectric constant                4.6680E+01
        Reference state                gsolv [1 M gas/solution]
        Free energy shift                  7.6243E-03 Eh       4.7843E+00 kcal/mol
        Temperature                        2.9815E+02 K
        Density                            1.1000E+00 kg/L
        Solvent mass                       7.8130E+01 g/mol
        Interaction kernel             P16
        Born radius scaling (c1)           1.7672E+00
        Born radii integrator          GBOBC
        Born offset                        0.0000E+00 a0       0.0000E+00 AA
        H-bond correction              true
        Ion screening                  false
        Surface tension                    1.0000E-05 Eh       1.5569E+01 dyn/cm
        Grid points                               230 per atom

          ...................................................
          :                      SETUP                      :
          :.................................................:
          :  # basis functions                 144          :
          :  # atomic orbitals                 144          :
          :  # shells                           92          :
          :  # electrons                       140          :
          :  # halogen bonds                     0          :
          :  max. iterations                   250          :
          :  Hamiltonian                  GFN1-xTB          :
          :  restarted?                      false          :
          :  GBSA solvation                   true          :
          :  PC potential                    false          :
          :  electronic temp.          300.0000000     K    :
          :  accuracy                    1.0000000          :
          :  -> integral cutoff          0.2500000E+02      :
          :  -> integral neglect         0.1000000E-07      :
          :  -> SCF convergence          0.1000000E-05 Eh   :
          :  -> wf. convergence          0.2000000E-04 e    :
          :  Broyden damping             0.4000000          :
          ...................................................

 iter      E             dE          RMSdq      gap      omega  full diag
   1    -86.7766635 -0.867767E+02  0.827E+00    2.96       0.0  T
   2    -87.0815857 -0.304922E+00  0.495E+00    2.10       1.0  T
   3    -87.0743550  0.723076E-02  0.146E+00    1.84       1.0  T
   4    -87.0947633 -0.204084E-01  0.140E-01    1.79       1.0  T
   5    -87.0953104 -0.547063E-03  0.384E-02    1.84       1.0  T
   6    -87.0953423 -0.319013E-04  0.118E-02    1.86       1.3  T
   7    -87.0953448 -0.249074E-05  0.449E-03    1.86       3.3  T
   8    -87.0953452 -0.474460E-06  0.919E-04    1.86      16.0  T
   9    -87.0953453 -0.118882E-07  0.328E-04    1.86      44.9  T
  10    -87.0953453 -0.225980E-08  0.904E-05    1.86     163.1  T
  11    -87.0953453 -0.187356E-09  0.278E-05    1.86     530.7  T

   *** convergence criteria satisfied after 11 iterations ***

         #    Occupation            Energy/Eh            Energy/eV
      -------------------------------------------------------------
         1        2.0000           -0.9161349             -24.9293
       ...           ...                  ...                  ...
        64        2.0000           -0.4933483             -13.4247
        65        2.0000           -0.4884953             -13.2926
        66        2.0000           -0.4829615             -13.1421
        67        2.0000           -0.4724689             -12.8565
        68        2.0000           -0.4649562             -12.6521
        69        2.0000           -0.4522629             -12.3067
        70        2.0000           -0.4506519             -12.2629 (HOMO)
        71                         -0.3822167             -10.4006 (LUMO)
        72                         -0.3281028              -8.9281
        73                         -0.3258004              -8.8655
        74                         -0.2846275              -7.7451
        75                         -0.2647600              -7.2045
       ...                                ...                  ...
       144                          0.6858256              18.6623
      -------------------------------------------------------------
                  HL-Gap            0.0684352 Eh            1.8622 eV
             Fermi-level           -0.4164343 Eh          -11.3318 eV

 SCC (total)                   0 d,  0 h,  0 min,  0.184 sec
 SCC setup                      ...        0 min,  0.002 sec (  1.136%)
 Dispersion                     ...        0 min,  0.000 sec (  0.181%)
 classical contributions        ...        0 min,  0.000 sec (  0.063%)
 integral evaluation            ...        0 min,  0.032 sec ( 17.186%)
 iterations                     ...        0 min,  0.076 sec ( 41.426%)
 molecular gradient             ...        0 min,  0.072 sec ( 39.097%)
 printout                       ...        0 min,  0.002 sec (  0.897%)

         :::::::::::::::::::::::::::::::::::::::::::::::::::::
         ::                     SUMMARY                     ::
         :::::::::::::::::::::::::::::::::::::::::::::::::::::
         :: total energy             -86.289915153880 Eh    ::
         :: total w/o Gsasa/hb       -86.265393735832 Eh    ::
         :: gradient norm              0.125925161130 Eh/a0 ::
         :: HOMO-LUMO gap              1.862215936102 eV    ::
         ::.................................................::
         :: SCC energy               -87.095345259572 Eh    ::
         :: -> electrostatic           0.402133981278 Eh    ::
         :: -> Gsolv                  -0.105086897202 Eh    ::
         ::    -> Gelec               -0.080565479154 Eh    ::
         ::    -> Gsasa               -0.025885263377 Eh    ::
         ::    -> Ghb                 -0.006260433676 Eh    ::
         ::    -> Gshift               0.007624279005 Eh    ::
         :: repulsion energy           0.834082532318 Eh    ::
         :: dispersion energy         -0.028652426627 Eh    ::
         :: halogen bond corr.         0.000000000000 Eh    ::
         :: add. restraining           0.000000000000 Eh    ::
         :: total charge               1.000000000000 e     ::
         :::::::::::::::::::::::::::::::::::::::::::::::::::::

      ----------------------------------------------------------- 
     |                   =====================                   |
     |                        A N C O P T                        |
     |                   =====================                   |
     |               Approximate Normal Coordinate               |
     |                Rational Function Optimizer                |
      ----------------------------------------------------------- 

          ...................................................
          :                      SETUP                      :
          :.................................................:
          :   optimization level            normal          :
          :   max. optcycles                   200          :
          :   ANC micro-cycles                  20          :
          :   degrees of freedom               132          :
          :.................................................:
          :   RF solver                   davidson          :
          :   write xtbopt.log                true          :
          :   linear?                        false          :
          :   energy convergence         0.5000000E-05 Eh   :
          :   grad. convergence          0.1000000E-02 Eh/α :
          :   maximium RF displ.         1.0000000          :
          :   Hlow (freq-cutoff)         0.1000000E-01      :
          :   Hmax (freq-cutoff)         5.0000000          :
          :   S6 in model hess.         20.0000000          :
          ...................................................

generating ANC from model Hessian ...
Using Lindh-Hessian (1995)
 Shifting diagonal of input Hessian by   9.821595780328398E-003
 Lowest  eigenvalues of input Hessian
    0.000000    0.000000    0.000000    0.000000    0.000000    0.000000
    0.010000    0.010130    0.010462    0.011363    0.011794    0.011948
    0.012489    0.013122    0.013861    0.014811    0.014955    0.015896
 Highest eigenvalues
    2.047529    2.115369    2.143808    2.330802    2.361378    2.367625
 

........................................................................
.............................. CYCLE    1 ..............................
........................................................................
   1    -87.0953453 -0.870953E+02  0.142E-05    1.86       0.0  T
   2    -87.0953453 -0.160583E-11  0.752E-06    1.86    1960.3  T
   3    -87.0953453 -0.994760E-13  0.374E-06    1.86    3942.4  T
     SCC iter.                  ...        0 min,  0.021 sec
     gradient                   ...        0 min,  0.075 sec
 * total energy  :   -86.2899152 Eh     change       -0.1138289E-10 Eh
   gradient norm :     0.1259250 Eh/α   predicted     0.0000000E+00 (-100.00%)
   displ. norm   :     0.4415868 α      lambda       -0.2363127E-01
   maximum displ.:     0.2107633 α      in ANC's #31, #25, #26, ...

........................................................................
.............................. CYCLE    2 ..............................
........................................................................
   1    -87.1220090 -0.871220E+02  0.798E-02    2.06       0.0  T
   2    -87.1222545 -0.245530E-03  0.346E-02    2.07       1.0  T
   3    -87.1222749 -0.203333E-04  0.164E-02    2.07       1.0  T
   4    -87.1222753 -0.378202E-06  0.494E-03    2.07       3.0  T
   5    -87.1222754 -0.145756E-06  0.840E-04    2.06      17.6  T
   6    -87.1222754 -0.105283E-07  0.372E-04    2.06      39.6  T
   7    -87.1222754 -0.252324E-08  0.111E-04    2.06     133.0  T
   8    -87.1222754 -0.145292E-09  0.255E-05    2.06     577.1  T
     SCC iter.                  ...        0 min,  0.059 sec
     gradient                   ...        0 min,  0.077 sec
 * total energy  :   -86.3077789 Eh     change       -0.1786376E-01 Eh
   gradient norm :     0.0698964 Eh/α   predicted    -0.1415399E-01 ( -20.77%)
   displ. norm   :     0.4563555 α      lambda       -0.1321856E-01
   maximum displ.:     0.2234701 α      in ANC's #31, #30, #25, ...

........................................................................
.............................. CYCLE    3 ..............................
........................................................................
   1    -87.1411743 -0.871412E+02  0.856E-02    2.24       0.0  T
   2    -87.1415048 -0.330444E-03  0.359E-02    2.26       1.0  T
   3    -87.1415281 -0.233541E-04  0.170E-02    2.25       1.0  T
   4    -87.1415285 -0.353980E-06  0.598E-03    2.25       2.5  T
   5    -87.1415287 -0.222743E-06  0.729E-04    2.25      20.2  T
   6    -87.1415287 -0.125749E-07  0.318E-04    2.25      46.4  T
   7    -87.1415287 -0.143238E-08  0.129E-04    2.25     114.2  T
   8    -87.1415287 -0.129759E-09  0.322E-05    2.25     458.5  T
     SCC iter.                  ...        0 min,  0.058 sec
     gradient                   ...        0 min,  0.076 sec
 * total energy  :   -86.3163187 Eh     change       -0.8539788E-02 Eh
   gradient norm :     0.0249917 Eh/α   predicted    -0.7985737E-02 (  -6.49%)
   displ. norm   :     0.3620482 α      lambda       -0.3784280E-02
   maximum displ.:     0.1484360 α      in ANC's #16, #30, #31, ...

........................................................................
.............................. CYCLE    4 ..............................
........................................................................
   1    -87.1458694 -0.871459E+02  0.359E-02    2.28       0.0  T
   2    -87.1459456 -0.762453E-04  0.163E-02    2.29       1.0  T
   3    -87.1459506 -0.498249E-05  0.756E-03    2.28       2.0  T
   4    -87.1459509 -0.282009E-06  0.371E-03    2.28       4.0  T
   5    -87.1459509 -0.800650E-07  0.636E-04    2.28      23.2  T
   6    -87.1459510 -0.140902E-07  0.231E-04    2.28      63.8  T
   7    -87.1459510 -0.118683E-08  0.100E-04    2.28     147.1  T
   8    -87.1459510 -0.883205E-10  0.279E-05    2.28     528.3  T
     SCC iter.                  ...        0 min,  0.056 sec
     gradient                   ...        0 min,  0.075 sec
 * total energy  :   -86.3192178 Eh     change       -0.2899139E-02 Eh
   gradient norm :     0.0242773 Eh/α   predicted    -0.2140230E-02 ( -26.18%)
   displ. norm   :     0.4623903 α      lambda       -0.3580362E-02
   maximum displ.:     0.2084551 α      in ANC's #16, #30, #18, ...

........................................................................
.............................. CYCLE    5 ..............................
........................................................................
   1    -87.1468060 -0.871468E+02  0.638E-02    2.25       0.0  T
   2    -87.1470720 -0.265985E-03  0.243E-02    2.25       1.0  T
   3    -87.1470844 -0.123506E-04  0.102E-02    2.24       1.4  T
   4    -87.1470861 -0.170333E-05  0.662E-03    2.23       2.2  T
   5    -87.1470864 -0.334174E-06  0.110E-03    2.23      13.4  T
   6    -87.1470864 -0.299759E-07  0.402E-04    2.23      36.6  T
   7    -87.1470864 -0.397479E-08  0.159E-04    2.23      92.4  T
   8    -87.1470864 -0.198298E-09  0.522E-05    2.23     282.6  T
     SCC iter.                  ...        0 min,  0.058 sec
     gradient                   ...        0 min,  0.076 sec
 * total energy  :   -86.3219748 Eh     change       -0.2756925E-02 Eh
   gradient norm :     0.0310779 Eh/α   predicted    -0.2172952E-02 ( -21.18%)
   displ. norm   :     0.4692579 α      lambda       -0.3190871E-02
   maximum displ.:     0.2151466 α      in ANC's #16, #18, #30, ...

........................................................................
.............................. CYCLE    6 ..............................
........................................................................
   1    -87.1460169 -0.871460E+02  0.108E-01    2.15       0.0  T
   2    -87.1467115 -0.694574E-03  0.320E-02    2.14       1.0  T
   3    -87.1467352 -0.236451E-04  0.133E-02    2.12       1.1  T
   4    -87.1467385 -0.333014E-05  0.917E-03    2.12       1.6  T
   5    -87.1467392 -0.709165E-06  0.169E-03    2.11       8.7  T
   6    -87.1467393 -0.696206E-07  0.626E-04    2.12      23.5  T
   7    -87.1467393 -0.115711E-07  0.236E-04    2.12      62.5  T
   8    -87.1467393 -0.420926E-09  0.740E-05    2.12     199.2  T
   9    -87.1467393 -0.271427E-10  0.188E-05    2.12     782.9  T
     SCC iter.                  ...        0 min,  0.063 sec
     gradient                   ...        0 min,  0.073 sec
 * total energy  :   -86.3239296 Eh     change       -0.1954792E-02 Eh
   gradient norm :     0.0431014 Eh/α   predicted    -0.1946792E-02 (  -0.41%)
   displ. norm   :     0.1587410 α      lambda       -0.2383556E-02
   maximum displ.:     0.0619095 α      in ANC's #5, #6, #16, ...

........................................................................
.............................. CYCLE    7 ..............................
........................................................................
   1    -87.1469696 -0.871470E+02  0.422E-02    2.06       0.0  T
   2    -87.1470471 -0.774766E-04  0.102E-02    2.05       1.5  T
   3    -87.1470501 -0.294572E-05  0.586E-03    2.05       2.5  T
   4    -87.1470504 -0.341698E-06  0.270E-03    2.04       5.5  T
   5    -87.1470505 -0.527893E-07  0.763E-04    2.04      19.3  T
   6    -87.1470505 -0.109820E-07  0.210E-04    2.04      70.1  T
   7    -87.1470505 -0.177455E-08  0.101E-04    2.04     145.6  T
   8    -87.1470505 -0.119584E-09  0.270E-05    2.04     545.4  T
     SCC iter.                  ...        0 min,  0.055 sec
     gradient                   ...        0 min,  0.075 sec
 * total energy  :   -86.3258834 Eh     change       -0.1953881E-02 Eh
   gradient norm :     0.0354655 Eh/α   predicted    -0.1221840E-02 ( -37.47%)
   displ. norm   :     0.3983247 α      lambda       -0.5694685E-02
   maximum displ.:     0.1255701 α      in ANC's #5, #52, #24, ...

........................................................................
.............................. CYCLE    8 ..............................
........................................................................
   1    -87.1531928 -0.871532E+02  0.123E-01    1.92       0.0  T
   2    -87.1537631 -0.570259E-03  0.303E-02    1.88       1.0  T
   3    -87.1537949 -0.318460E-04  0.220E-02    1.87       1.0  T
   4    -87.1538029 -0.792943E-05  0.939E-03    1.86       1.6  T
   5    -87.1538031 -0.285937E-06  0.251E-03    1.86       5.9  T
   6    -87.1538033 -0.166585E-06  0.563E-04    1.86      26.2  T
   7    -87.1538033 -0.757544E-08  0.272E-04    1.86      54.1  T
   8    -87.1538033 -0.596913E-09  0.743E-05    1.86     198.3  T
   9    -87.1538033 -0.529212E-10  0.201E-05    1.86     732.3  T
     SCC iter.                  ...        0 min,  0.063 sec
     gradient                   ...        0 min,  0.075 sec
 * total energy  :   -86.3296518 Eh     change       -0.3768369E-02 Eh
   gradient norm :     0.0378158 Eh/α   predicted    -0.3299125E-02 ( -12.45%)
   displ. norm   :     0.4408934 α      lambda       -0.6713421E-02
   maximum displ.:     0.1653075 α      in ANC's #30, #31, #13, ...

........................................................................
.............................. CYCLE    9 ..............................
........................................................................
   1    -87.1523078 -0.871523E+02  0.996E-02    1.83       0.0  T
   2    -87.1526876 -0.379881E-03  0.502E-02    1.80       1.0  T
   3    -87.1528334 -0.145793E-03  0.155E-02    1.80       1.0  T
   4    -87.1528349 -0.150639E-05  0.580E-03    1.80       2.5  T
   5    -87.1528351 -0.179884E-06  0.150E-03    1.80       9.8  T
   6    -87.1528352 -0.492472E-07  0.275E-04    1.80      53.5  T
   7    -87.1528352 -0.170962E-08  0.912E-05    1.80     161.7  T
   8    -87.1528352 -0.106098E-09  0.271E-05    1.80     543.5  T
     SCC iter.                  ...        0 min,  0.056 sec
     gradient                   ...        0 min,  0.075 sec
 * total energy  :   -86.3312588 Eh     change       -0.1607008E-02 Eh
   gradient norm :     0.0536571 Eh/α   predicted    -0.4009240E-02 ( 149.48%)
   displ. norm   :     0.3403852 α      lambda       -0.6652387E-02
   maximum displ.:     0.1342130 α      in ANC's #45, #5, #52, ...

........................................................................
.............................. CYCLE   10 ..............................
........................................................................
   1    -87.1645950 -0.871646E+02  0.103E-01    1.80       0.0  T
   2    -87.1649209 -0.325873E-03  0.444E-02    1.77       1.0  T
   3    -87.1650460 -0.125127E-03  0.178E-02    1.77       1.0  T
   4    -87.1650511 -0.512564E-05  0.678E-03    1.76       2.2  T
   5    -87.1650513 -0.157058E-06  0.921E-04    1.76      16.0  T
   6    -87.1650513 -0.398693E-07  0.289E-04    1.76      51.1  T
   7    -87.1650513 -0.188966E-08  0.128E-04    1.76     115.3  T
   8    -87.1650513 -0.135046E-09  0.322E-05    1.76     457.4  T
     SCC iter.                  ...        0 min,  0.056 sec
     gradient                   ...        0 min,  0.075 sec
 * total energy  :   -86.3337029 Eh     change       -0.2444040E-02 Eh
   gradient norm :     0.0529160 Eh/α   predicted    -0.3711577E-02 (  51.86%)
   displ. norm   :     0.1919602 α      lambda       -0.4417124E-02
   maximum displ.:     0.0643151 α      in ANC's #8, #16, #18, ...

........................................................................
.............................. CYCLE   11 ..............................
........................................................................
   1    -87.1595229 -0.871595E+02  0.665E-02    1.81       0.0  T
   2    -87.1596928 -0.169817E-03  0.319E-02    1.82       1.0  T
   3    -87.1597411 -0.483936E-04  0.120E-02    1.82       1.2  T
   4    -87.1597423 -0.111164E-05  0.533E-03    1.82       2.8  T
   5    -87.1597424 -0.171967E-06  0.975E-04    1.82      15.1  T
   6    -87.1597425 -0.300595E-07  0.167E-04    1.82      88.0  T
   7    -87.1597425 -0.716597E-09  0.704E-05    1.82     209.3  T
     SCC iter.                  ...        0 min,  0.050 sec
     gradient                   ...        0 min,  0.075 sec
 * total energy  :   -86.3357834 Eh     change       -0.2080552E-02 Eh
   gradient norm :     0.0196645 Eh/α   predicted    -0.2289951E-02 (  10.06%)
   displ. norm   :     0.2677516 α      lambda       -0.2117941E-02
   maximum displ.:     0.1251337 α      in ANC's #13, #8, #31, ...

........................................................................
.............................. CYCLE   12 ..............................
........................................................................
   1    -87.1602443 -0.871602E+02  0.310E-02    1.83       0.0  T
   2    -87.1602802 -0.359471E-04  0.150E-02    1.81       1.0  T
   3    -87.1602951 -0.148161E-04  0.626E-03    1.81       2.4  T
   4    -87.1602954 -0.329239E-06  0.227E-03    1.81       6.5  T
   5    -87.1602954 -0.810171E-08  0.387E-04    1.81      38.1  T
   6    -87.1602954 -0.406111E-08  0.121E-04    1.81     122.0  T
   7    -87.1602954 -0.279741E-09  0.489E-05    1.81     301.7  T
     SCC iter.                  ...        0 min,  0.051 sec
     gradient                   ...        0 min,  0.075 sec
 * total energy  :   -86.3374786 Eh     change       -0.1695201E-02 Eh
   gradient norm :     0.0150355 Eh/α   predicted    -0.1134896E-02 ( -33.05%)
   displ. norm   :     0.5102257 α      lambda       -0.3162283E-02
   maximum displ.:     0.1805570 α      in ANC's #13, #8, #52, ...

........................................................................
.............................. CYCLE   13 ..............................
........................................................................
   1    -87.1638912 -0.871639E+02  0.676E-02    1.89       0.0  T
   2    -87.1640692 -0.178018E-03  0.346E-02    1.86       1.0  T
   3    -87.1641510 -0.818276E-04  0.113E-02    1.86       1.3  T
   4    -87.1641520 -0.985002E-06  0.454E-03    1.86       3.2  T
   5    -87.1641521 -0.942006E-07  0.769E-04    1.86      19.2  T
   6    -87.1641521 -0.236633E-07  0.206E-04    1.86      71.6  T
   7    -87.1641521 -0.111221E-08  0.863E-05    1.86     170.9  T
   8    -87.1641521 -0.106439E-09  0.254E-05    1.86     581.1  T
     SCC iter.                  ...        0 min,  0.057 sec
     gradient                   ...        0 min,  0.075 sec
 * total energy  :   -86.3395801 Eh     change       -0.2101474E-02 Eh
   gradient norm :     0.0139801 Eh/α   predicted    -0.1992778E-02 (  -5.17%)
   displ. norm   :     0.3990503 α      lambda       -0.1219062E-02
   maximum displ.:     0.1775811 α      in ANC's #8, #13, #10, ...

........................................................................
.............................. CYCLE   14 ..............................
........................................................................
   1    -87.1639348 -0.871639E+02  0.426E-02    1.87       0.0  T
   2    -87.1640271 -0.923075E-04  0.255E-02    1.86       1.0  T
   3    -87.1640727 -0.456245E-04  0.423E-03    1.86       3.5  T
   4    -87.1640728 -0.978413E-07  0.233E-03    1.86       6.3  T
   5    -87.1640728 -0.381232E-08  0.365E-04    1.86      40.4  T
   6    -87.1640729 -0.520342E-08  0.106E-04    1.86     139.6  T
   7    -87.1640729 -0.163979E-09  0.435E-05    1.86     338.7  T
     SCC iter.                  ...        0 min,  0.044 sec
     gradient                   ...        0 min,  0.066 sec
 * total energy  :   -86.3403792 Eh     change       -0.7991106E-03 Eh
   gradient norm :     0.0137041 Eh/α   predicted    -0.7065988E-03 ( -11.58%)
   displ. norm   :     0.3263821 α      lambda       -0.8261348E-03
   maximum displ.:     0.1637433 α      in ANC's #8, #10, #7, ...

........................................................................
.............................. CYCLE   15 ..............................
........................................................................
   1    -87.1661235 -0.871661E+02  0.184E-02    1.88       0.0  T
   2    -87.1661379 -0.143812E-04  0.892E-03    1.87       1.7  T
   3    -87.1661422 -0.434135E-05  0.366E-03    1.87       4.0  T
   4    -87.1661423 -0.137927E-06  0.167E-03    1.87       8.9  T
   5    -87.1661423 -0.101554E-07  0.294E-04    1.87      50.1  T
   6    -87.1661423 -0.308431E-08  0.801E-05    1.87     184.0  T
   7    -87.1661423 -0.123393E-09  0.303E-05    1.87     486.1  T
     SCC iter.                  ...        0 min,  0.045 sec
     gradient                   ...        0 min,  0.061 sec
 * total energy  :   -86.3410254 Eh     change       -0.6462287E-03 Eh
   gradient norm :     0.0113319 Eh/α   predicted    -0.4570725E-03 ( -29.27%)
   displ. norm   :     0.4457770 α      lambda       -0.1080356E-02
   maximum displ.:     0.1992529 α      in ANC's #8, #7, #10, ...

........................................................................
.............................. CYCLE   16 ..............................
........................................................................
   1    -87.1689260 -0.871689E+02  0.211E-02    1.87       0.0  T
   2    -87.1689474 -0.214353E-04  0.119E-02    1.87       1.2  T
   3    -87.1689542 -0.674119E-05  0.435E-03    1.87       3.4  T
   4    -87.1689542 -0.890725E-07  0.209E-03    1.87       7.1  T
   5    -87.1689543 -0.371861E-07  0.459E-04    1.87      32.1  T
   6    -87.1689543 -0.409715E-08  0.104E-04    1.87     141.4  T
   7    -87.1689543 -0.271058E-09  0.394E-05    1.87     374.1  T
     SCC iter.                  ...        0 min,  0.043 sec
     gradient                   ...        0 min,  0.063 sec
 * total energy  :   -86.3417979 Eh     change       -0.7725127E-03 Eh
   gradient norm :     0.0117242 Eh/α   predicted    -0.6475253E-03 ( -16.18%)
   displ. norm   :     0.4045373 α      lambda       -0.7796951E-03
   maximum displ.:     0.1980846 α      in ANC's #7, #8, #4, ...

........................................................................
.............................. CYCLE   17 ..............................
........................................................................
   1    -87.1690998 -0.871691E+02  0.145E-02    1.87       0.0  T
   2    -87.1691070 -0.716597E-05  0.740E-03    1.87       2.0  T
   3    -87.1691083 -0.127730E-05  0.393E-03    1.87       3.7  T
   4    -87.1691083 -0.745384E-07  0.147E-03    1.87      10.0  T
   5    -87.1691084 -0.483793E-07  0.372E-04    1.87      39.6  T
   6    -87.1691084 -0.351666E-08  0.772E-05    1.87     190.9  T
   7    -87.1691084 -0.167205E-09  0.259E-05    1.87     568.5  T
     SCC iter.                  ...        0 min,  0.044 sec
     gradient                   ...        0 min,  0.065 sec
 * total energy  :   -86.3423298 Eh     change       -0.5318988E-03 Eh
   gradient norm :     0.0135212 Eh/α   predicted    -0.4536532E-03 ( -14.71%)
   displ. norm   :     0.3668811 α      lambda       -0.6273629E-03
   maximum displ.:     0.1867159 α      in ANC's #7, #4, #5, ...

........................................................................
.............................. CYCLE   18 ..............................
........................................................................
   1    -87.1710186 -0.871710E+02  0.931E-03    1.86       0.0  T
   2    -87.1710219 -0.333234E-05  0.480E-03    1.87       3.1  T
   3    -87.1710224 -0.444134E-06  0.280E-03    1.87       5.3  T
   4    -87.1710224 -0.349810E-07  0.110E-03    1.86      13.4  T
   5    -87.1710224 -0.336035E-07  0.203E-04    1.86      72.7  T
   6    -87.1710224 -0.629299E-09  0.687E-05    1.86     214.6  T
   7    -87.1710224 -0.520970E-10  0.242E-05    1.86     610.2  T
     SCC iter.                  ...        0 min,  0.044 sec
     gradient                   ...        0 min,  0.065 sec
 * total energy  :   -86.3427679 Eh     change       -0.4380240E-03 Eh
   gradient norm :     0.0110629 Eh/α   predicted    -0.3559077E-03 ( -18.75%)
   displ. norm   :     0.4253843 α      lambda       -0.5090264E-03
   maximum displ.:     0.2035715 α      in ANC's #7, #4, #5, ...

........................................................................
.............................. CYCLE   19 ..............................
........................................................................
   1    -87.1686087 -0.871686E+02  0.116E-02    1.87       0.0  T
   2    -87.1686106 -0.190160E-05  0.616E-03    1.87       2.4  T
   3    -87.1686107 -0.386544E-07  0.330E-03    1.87       4.5  T
   4    -87.1686108 -0.104956E-06  0.767E-04    1.87      19.2  T
   5    -87.1686108 -0.357792E-07  0.234E-04    1.87      63.1  T
   6    -87.1686108 -0.145286E-08  0.725E-05    1.87     203.5  T
   7    -87.1686108 -0.600835E-10  0.207E-05    1.87     713.2  T
     SCC iter.                  ...        0 min,  0.042 sec
     gradient                   ...        0 min,  0.066 sec
 * total energy  :   -86.3430673 Eh     change       -0.2994290E-03 Eh
   gradient norm :     0.0119043 Eh/α   predicted    -0.3005707E-03 (   0.38%)
   displ. norm   :     0.3301259 α      lambda       -0.7616342E-03
   maximum displ.:     0.1644776 α      in ANC's #4, #7, #2, ...

........................................................................
.............................. CYCLE   20 ..............................
........................................................................
   1    -87.1737224 -0.871737E+02  0.204E-02    1.88       0.0  T
   2    -87.1737359 -0.135336E-04  0.102E-02    1.88       1.4  T
   3    -87.1737362 -0.304775E-06  0.565E-03    1.88       2.6  T
   4    -87.1737362 -0.113513E-07  0.136E-03    1.88      10.9  T
   5    -87.1737363 -0.367435E-07  0.218E-04    1.88      67.6  T
   6    -87.1737363 -0.196572E-08  0.105E-04    1.88     140.7  T
   7    -87.1737363 -0.278419E-09  0.438E-05    1.88     336.6  T
     SCC iter.                  ...        0 min,  0.044 sec
     gradient                   ...        0 min,  0.064 sec
 * total energy  :   -86.3431853 Eh     change       -0.1179839E-03 Eh
   gradient norm :     0.0148282 Eh/α   predicted    -0.4223261E-03 ( 257.95%)
   displ. norm   :     0.1506530 α      lambda       -0.4775248E-03
   maximum displ.:     0.0613911 α      in ANC's #6, #8, #4, ...
 * RMSD in coord.:     0.4968607 α      energy gain  -0.5327012E-01 Eh

generating ANC from model Hessian ...
Using Lindh-Hessian (1995)
 Shifting diagonal of input Hessian by   9.822913494754145E-003
 Lowest  eigenvalues of input Hessian
    0.000000    0.000000    0.000000    0.000000    0.000000    0.000000
    0.010000    0.010106    0.010473    0.011263    0.011696    0.011860
    0.012354    0.012942    0.014342    0.014541    0.015099    0.015463
 Highest eigenvalues
    2.096482    2.125380    2.199582    2.322575    2.386579    2.430884
 

........................................................................
.............................. CYCLE   21 ..............................
........................................................................
   1    -87.1718872 -0.871719E+02  0.123E-02    1.88       0.0  T
   2    -87.1718912 -0.405004E-05  0.678E-03    1.88       2.2  T
   3    -87.1718919 -0.718678E-06  0.404E-03    1.88       3.6  T
   4    -87.1718920 -0.101888E-06  0.113E-03    1.88      13.0  T
   5    -87.1718921 -0.446475E-07  0.108E-04    1.88     136.3  T
   6    -87.1718921 -0.488882E-09  0.344E-05    1.88     429.1  T
     SCC iter.                  ...        0 min,  0.036 sec
     gradient                   ...        0 min,  0.065 sec
 * total energy  :   -86.3434612 Eh     change       -0.2758815E-03 Eh
   gradient norm :     0.0075639 Eh/α   predicted     0.0000000E+00 (-100.00%)
   displ. norm   :     0.0854716 α      lambda       -0.1707659E-03
   maximum displ.:     0.0418521 α      in ANC's #10, #6, #7, ...

........................................................................
.............................. CYCLE   22 ..............................
........................................................................
   1    -87.1728401 -0.871728E+02  0.417E-03    1.88       0.0  T
   2    -87.1728411 -0.101967E-05  0.191E-03    1.88       7.7  T
   3    -87.1728411 -0.225372E-07  0.112E-03    1.88      13.2  T
   4    -87.1728411 -0.210107E-09  0.301E-04    1.88      49.0  T
   5    -87.1728411 -0.780389E-09  0.416E-05    1.88     354.8  T
   6    -87.1728411 -0.391793E-10  0.189E-05    1.88     779.7  T
     SCC iter.                  ...        0 min,  0.036 sec
     gradient                   ...        0 min,  0.064 sec
 * total energy  :   -86.3436024 Eh     change       -0.1412759E-03 Eh
   gradient norm :     0.0039301 Eh/α   predicted    -0.8600691E-04 ( -39.12%)
   displ. norm   :     0.2382440 α      lambda       -0.2924468E-03
   maximum displ.:     0.1189728 α      in ANC's #6, #10, #7, ...

........................................................................
.............................. CYCLE   23 ..............................
........................................................................
   1    -87.1732645 -0.871733E+02  0.791E-03    1.88       0.0  T
   2    -87.1732683 -0.381908E-05  0.379E-03    1.88       3.9  T
   3    -87.1732684 -0.989949E-07  0.219E-03    1.88       6.7  T
   4    -87.1732684  0.131114E-07  0.961E-04    1.88      15.4  T
   5    -87.1732684 -0.211368E-07  0.168E-04    1.88      87.6  T
   6    -87.1732685 -0.167967E-08  0.538E-05    1.88     273.9  T
     SCC iter.                  ...        0 min,  0.036 sec
     gradient                   ...        0 min,  0.061 sec
 * total energy  :   -86.3437903 Eh     change       -0.1878967E-03 Eh
   gradient norm :     0.0034440 Eh/α   predicted    -0.1545266E-03 ( -17.76%)
   displ. norm   :     0.1528865 α      lambda       -0.8463267E-04
   maximum displ.:     0.0820470 α      in ANC's #6, #10, #2, ...

........................................................................
.............................. CYCLE   24 ..............................
........................................................................
   1    -87.1727744 -0.871728E+02  0.307E-03    1.88       0.0  T
   2    -87.1727748 -0.359577E-06  0.181E-03    1.88       8.2  T
   3    -87.1727749 -0.503520E-07  0.980E-04    1.88      15.0  T
   4    -87.1727749 -0.479767E-08  0.412E-04    1.88      35.8  T
   5    -87.1727749 -0.358760E-08  0.666E-05    1.88     221.3  T
   6    -87.1727749 -0.107477E-09  0.241E-05    1.88     612.3  T
     SCC iter.                  ...        0 min,  0.037 sec
     gradient                   ...        0 min,  0.063 sec
 * total energy  :   -86.3438517 Eh     change       -0.6133890E-04 Eh
   gradient norm :     0.0041198 Eh/α   predicted    -0.4330555E-04 ( -29.40%)
   displ. norm   :     0.1321079 α      lambda       -0.6076086E-04
   maximum displ.:     0.0730445 α      in ANC's #6, #2, #10, ...

........................................................................
.............................. CYCLE   25 ..............................
........................................................................
   1    -87.1723416 -0.871723E+02  0.326E-03    1.88       0.0  T
   2    -87.1723421 -0.470833E-06  0.153E-03    1.88       9.7  T
   3    -87.1723422 -0.590424E-07  0.752E-04    1.88      19.6  T
   4    -87.1723422 -0.603993E-08  0.364E-04    1.88      40.5  T
   5    -87.1723422 -0.232646E-08  0.876E-05    1.88     168.4  T
   6    -87.1723422 -0.127343E-09  0.180E-05    1.88     817.8  T
     SCC iter.                  ...        0 min,  0.035 sec
     gradient                   ...        0 min,  0.062 sec
 * total energy  :   -86.3438971 Eh     change       -0.4539905E-04 Eh
   gradient norm :     0.0027660 Eh/α   predicted    -0.3091078E-04 ( -31.91%)
   displ. norm   :     0.1186593 α      lambda       -0.4244771E-04
   maximum displ.:     0.0672871 α      in ANC's #6, #2, #20, ...

........................................................................
.............................. CYCLE   26 ..............................
........................................................................
   1    -87.1721552 -0.871722E+02  0.342E-03    1.88       0.0  T
   2    -87.1721559 -0.657623E-06  0.120E-03    1.88      12.3  T
   3    -87.1721559 -0.280124E-07  0.602E-04    1.88      24.5  T
   4    -87.1721559 -0.163020E-08  0.332E-04    1.88      44.5  T
   5    -87.1721559 -0.209030E-08  0.962E-05    1.88     153.2  T
   6    -87.1721559 -0.233044E-09  0.180E-05    1.88     819.8  T
     SCC iter.                  ...        0 min,  0.036 sec
     gradient                   ...        0 min,  0.065 sec
 * total energy  :   -86.3439274 Eh     change       -0.3029113E-04 Eh
   gradient norm :     0.0014890 Eh/α   predicted    -0.2152432E-04 ( -28.94%)
   displ. norm   :     0.1335120 α      lambda       -0.2434729E-04
   maximum displ.:     0.0850601 α      in ANC's #2, #6, #20, ...

........................................................................
.............................. CYCLE   27 ..............................
........................................................................
   1    -87.1722406 -0.871722E+02  0.319E-03    1.88       0.0  T
   2    -87.1722412 -0.614870E-06  0.108E-03    1.88      13.6  T
   3    -87.1722413 -0.124667E-07  0.595E-04    1.88      24.8  T
   4    -87.1722413 -0.264933E-09  0.274E-04    1.88      53.7  T
   5    -87.1722413 -0.804008E-09  0.644E-05    1.88     228.9  T
   6    -87.1722413 -0.206327E-09  0.223E-05    1.88     661.1  T
     SCC iter.                  ...        0 min,  0.035 sec
     gradient                   ...        0 min,  0.064 sec
 * total energy  :   -86.3439515 Eh     change       -0.2414720E-04 Eh
   gradient norm :     0.0022651 Eh/α   predicted    -0.1227019E-04 ( -49.19%)
   displ. norm   :     0.0585665 α      lambda       -0.1695332E-04
   maximum displ.:     0.0400090 α      in ANC's #2, #6, #7, ...

........................................................................
.............................. CYCLE   28 ..............................
........................................................................
   1    -87.1724407 -0.871724E+02  0.118E-03    1.88       0.0  T
   2    -87.1724407 -0.577971E-07  0.689E-04    1.88      21.4  T
   3    -87.1724408 -0.185550E-07  0.326E-04    1.88      45.3  T
   4    -87.1724408 -0.508876E-09  0.116E-04    1.88     127.3  T
   5    -87.1724408 -0.180179E-09  0.275E-05    1.88     536.5  T
     SCC iter.                  ...        0 min,  0.030 sec
     gradient                   ...        0 min,  0.062 sec
 * total energy  :   -86.3439666 Eh     change       -0.1513829E-04 Eh
   gradient norm :     0.0020338 Eh/α   predicted    -0.8513068E-05 ( -43.76%)
   displ. norm   :     0.1381003 α      lambda       -0.3799676E-04
   maximum displ.:     0.0915643 α      in ANC's #2, #6, #7, ...

........................................................................
.............................. CYCLE   29 ..............................
........................................................................
   1    -87.1726792 -0.871727E+02  0.305E-03    1.88       0.0  T
   2    -87.1726796 -0.387104E-06  0.160E-03    1.88       9.2  T
   3    -87.1726797 -0.998096E-07  0.732E-04    1.88      20.1  T
   4    -87.1726797 -0.546252E-08  0.294E-04    1.88      50.2  T
   5    -87.1726797 -0.979810E-09  0.739E-05    1.88     199.5  T
   6    -87.1726797 -0.884910E-10  0.175E-05    1.88     842.3  T
     SCC iter.                  ...        0 min,  0.035 sec
     gradient                   ...        0 min,  0.063 sec
 * total energy  :   -86.3439954 Eh     change       -0.2873237E-04 Eh
   gradient norm :     0.0015418 Eh/α   predicted    -0.1936139E-04 ( -32.61%)
   displ. norm   :     0.2012499 α      lambda       -0.2400000E-04
   maximum displ.:     0.1375623 α      in ANC's #2, #6, #7, ...

........................................................................
.............................. CYCLE   30 ..............................
........................................................................
   1    -87.1725234 -0.871725E+02  0.363E-03    1.88       0.0  T
   2    -87.1725239 -0.520114E-06  0.159E-03    1.88       9.3  T
   3    -87.1725240 -0.766876E-07  0.784E-04    1.88      18.8  T
   4    -87.1725240 -0.116916E-07  0.338E-04    1.88      43.6  T
   5    -87.1725240 -0.142359E-08  0.829E-05    1.88     177.9  T
   6    -87.1725240 -0.976712E-10  0.220E-05    1.88     670.4  T
     SCC iter.                  ...        0 min,  0.037 sec
     gradient                   ...        0 min,  0.066 sec
 * total energy  :   -86.3440182 Eh     change       -0.2279393E-04 Eh
   gradient norm :     0.0020276 Eh/α   predicted    -0.1221634E-04 ( -46.41%)
   displ. norm   :     0.0596810 α      lambda       -0.1370023E-04
   maximum displ.:     0.0437276 α      in ANC's #2, #6, #7, ...

........................................................................
.............................. CYCLE   31 ..............................
........................................................................
   1    -87.1727566 -0.871728E+02  0.945E-04    1.88       0.0  T
   2    -87.1727566 -0.286303E-07  0.417E-04    1.88      35.3  T
   3    -87.1727566 -0.330256E-08  0.240E-04    1.88      61.3  T
   4    -87.1727567 -0.652022E-09  0.949E-05    1.88     155.4  T
   5    -87.1727567 -0.160028E-09  0.242E-05    1.88     609.3  T
     SCC iter.                  ...        0 min,  0.032 sec
     gradient                   ...        0 min,  0.064 sec
 * total energy  :   -86.3440306 Eh     change       -0.1240640E-04 Eh
   gradient norm :     0.0016605 Eh/α   predicted    -0.6875969E-05 ( -44.58%)
   displ. norm   :     0.2142577 α      lambda       -0.3726425E-04
   maximum displ.:     0.1523405 α      in ANC's #2, #6, #7, ...

........................................................................
.............................. CYCLE   32 ..............................
........................................................................
   1    -87.1729629 -0.871730E+02  0.366E-03    1.88       0.0  T
   2    -87.1729635 -0.586961E-06  0.201E-03    1.88       7.3  T
   3    -87.1729637 -0.193594E-06  0.923E-04    1.88      16.0  T
   4    -87.1729637 -0.595499E-08  0.353E-04    1.88      41.7  T
   5    -87.1729637 -0.947921E-09  0.935E-05    1.88     157.6  T
   6    -87.1729637 -0.218648E-09  0.306E-05    1.88     482.5  T
     SCC iter.                  ...        0 min,  0.038 sec
     gradient                   ...        0 min,  0.066 sec
 * total energy  :   -86.3440685 Eh     change       -0.3790311E-04 Eh
   gradient norm :     0.0016563 Eh/α   predicted    -0.1901472E-04 ( -49.83%)
   displ. norm   :     0.1611935 α      lambda       -0.1580872E-04
   maximum displ.:     0.1160929 α      in ANC's #2, #19, #6, ...

........................................................................
.............................. CYCLE   33 ..............................
........................................................................
   1    -87.1726612 -0.871727E+02  0.215E-03    1.88       0.0  T
   2    -87.1726613 -0.153777E-06  0.111E-03    1.88      13.3  T
   3    -87.1726614 -0.520469E-07  0.547E-04    1.88      27.0  T
   4    -87.1726614 -0.415582E-08  0.171E-04    1.88      86.4  T
   5    -87.1726614 -0.115165E-09  0.423E-05    1.88     348.5  T
     SCC iter.                  ...        0 min,  0.031 sec
     gradient                   ...        0 min,  0.065 sec
 * total energy  :   -86.3440867 Eh     change       -0.1821037E-04 Eh
   gradient norm :     0.0017325 Eh/α   predicted    -0.7995834E-05 ( -56.09%)
   displ. norm   :     0.1726565 α      lambda       -0.1817706E-04
   maximum displ.:     0.1259822 α      in ANC's #2, #19, #5, ...

........................................................................
.............................. CYCLE   34 ..............................
........................................................................
   1    -87.1728725 -0.871729E+02  0.249E-03    1.88       0.0  T
   2    -87.1728727 -0.252047E-06  0.106E-03    1.88      13.9  T
   3    -87.1728728 -0.432048E-07  0.528E-04    1.88      27.9  T
   4    -87.1728728 -0.588325E-08  0.232E-04    1.88      63.4  T
   5    -87.1728728 -0.252015E-09  0.431E-05    1.88     342.2  T
   6    -87.1728728 -0.426894E-10  0.139E-05    1.88    1057.6  T
     SCC iter.                  ...        0 min,  0.036 sec
     gradient                   ...        0 min,  0.066 sec
 * total energy  :   -86.3441063 Eh     change       -0.1959724E-04 Eh
   gradient norm :     0.0013362 Eh/α   predicted    -0.9209878E-05 ( -53.00%)
   displ. norm   :     0.1500057 α      lambda       -0.1334491E-04
   maximum displ.:     0.1093650 α      in ANC's #2, #19, #5, ...

........................................................................
.............................. CYCLE   35 ..............................
........................................................................
   1    -87.1726264 -0.871726E+02  0.152E-03    1.88       0.0  T
   2    -87.1726265 -0.751243E-07  0.671E-04    1.88      22.0  T
   3    -87.1726265 -0.410310E-08  0.357E-04    1.88      41.4  T
   4    -87.1726265 -0.316462E-09  0.124E-04    1.88     118.6  T
   5    -87.1726265 -0.284828E-09  0.383E-05    1.88     384.5  T
     SCC iter.                  ...        0 min,  0.030 sec
     gradient                   ...        0 min,  0.064 sec
 * total energy  :   -86.3441206 Eh     change       -0.1427690E-04 Eh
   gradient norm :     0.0017742 Eh/α   predicted    -0.6740154E-05 ( -52.79%)
   displ. norm   :     0.1550431 α      lambda       -0.2012344E-04
   maximum displ.:     0.1076195 α      in ANC's #2, #5, #19, ...

........................................................................
.............................. CYCLE   36 ..............................
........................................................................
   1    -87.1732905 -0.871733E+02  0.281E-03    1.88       0.0  T
   2    -87.1732907 -0.157509E-06  0.146E-03    1.88      10.1  T
   3    -87.1732907 -0.134759E-07  0.809E-04    1.88      18.2  T
   4    -87.1732907 -0.426316E-08  0.232E-04    1.88      63.6  T
   5    -87.1732907 -0.195112E-08  0.689E-05    1.88     213.9  T
   6    -87.1732907 -0.140631E-09  0.193E-05    1.88     765.0  T
     SCC iter.                  ...        0 min,  0.035 sec
     gradient                   ...        0 min,  0.064 sec
 * total energy  :   -86.3441362 Eh     change       -0.1566443E-04 Eh
   gradient norm :     0.0020495 Eh/α   predicted    -0.1017157E-04 ( -35.07%)
   displ. norm   :     0.1140566 α      lambda       -0.1383042E-04
   maximum displ.:     0.0804273 α      in ANC's #2, #5, #19, ...

........................................................................
.............................. CYCLE   37 ..............................
........................................................................
   1    -87.1727210 -0.871727E+02  0.197E-03    1.88       0.0  T
   2    -87.1727211 -0.611475E-07  0.100E-03    1.88      14.7  T
   3    -87.1727211 -0.111373E-07  0.596E-04    1.88      24.7  T
   4    -87.1727211 -0.780872E-08  0.140E-04    1.88     105.6  T
   5    -87.1727211 -0.159503E-09  0.363E-05    1.88     405.8  T
     SCC iter.                  ...        0 min,  0.031 sec
     gradient                   ...        0 min,  0.065 sec
 * total energy  :   -86.3441456 Eh     change       -0.9384287E-05 Eh
   gradient norm :     0.0018047 Eh/α   predicted    -0.7010027E-05 ( -25.30%)
   displ. norm   :     0.1725887 α      lambda        0.1794867E-05
   maximum displ.:     0.1217381 α      in ANC's #2, #5, #19, ...

........................................................................
.............................. CYCLE   38 ..............................
........................................................................
   1    -87.1714562 -0.871715E+02  0.369E-03    1.88       0.0  T
   2    -87.1714564 -0.153747E-06  0.191E-03    1.88       7.7  T
   3    -87.1714564 -0.137925E-07  0.112E-03    1.88      13.2  T
   4    -87.1714564 -0.318689E-07  0.235E-04    1.88      62.7  T
   5    -87.1714564 -0.601347E-09  0.659E-05    1.88     223.6  T
   6    -87.1714564 -0.850093E-10  0.170E-05    1.88     866.0  T
     SCC iter.                  ...        0 min,  0.036 sec
     gradient                   ...        0 min,  0.065 sec
 * total energy  :   -86.3441335 Eh     change        0.1212140E-04 Eh
   gradient norm :     0.0039689 Eh/α   predicted     0.9090239E-06 ( -92.50%)
   displ. norm   :     0.0844840 α      lambda       -0.2687161E-04
   maximum displ.:     0.0594812 α      in ANC's #2, #19, #5, ...

........................................................................
.............................. CYCLE   39 ..............................
........................................................................
   1    -87.1723944 -0.871724E+02  0.236E-03    1.88       0.0  T
   2    -87.1723944 -0.452802E-07  0.122E-03    1.88      12.1  T
   3    -87.1723944 -0.118094E-08  0.542E-04    1.88      27.2  T
   4    -87.1723944 -0.347141E-08  0.129E-04    1.88     114.0  T
   5    -87.1723944 -0.375763E-09  0.486E-05    1.88     303.3  T
     SCC iter.                  ...        0 min,  0.030 sec
     gradient                   ...        0 min,  0.065 sec
 * total energy  :   -86.3441517 Eh     change       -0.1817933E-04 Eh
   gradient norm :     0.0018638 Eh/α   predicted    -0.1353232E-04 ( -25.56%)
   displ. norm   :     0.0520540 α      lambda       -0.1012177E-04
   maximum displ.:     0.0274739 α      in ANC's #2, #6, #19, ...

........................................................................
.............................. CYCLE   40 ..............................
........................................................................
   1    -87.1730906 -0.871731E+02  0.239E-03    1.88       0.0  T
   2    -87.1730907 -0.932660E-07  0.117E-03    1.88      12.6  T
   3    -87.1730907 -0.594446E-08  0.602E-04    1.88      24.5  T
   4    -87.1730907 -0.154168E-08  0.132E-04    1.88     111.5  T
   5    -87.1730907 -0.219970E-09  0.392E-05    1.88     376.2  T
     SCC iter.                  ...        0 min,  0.029 sec
     gradient                   ...        0 min,  0.063 sec
 * total energy  :   -86.3441594 Eh     change       -0.7768150E-05 Eh
   gradient norm :     0.0005300 Eh/α   predicted    -0.5067463E-05 ( -34.77%)
   displ. norm   :     0.0330905 α      lambda       -0.2596751E-05
   maximum displ.:     0.0183714 α      in ANC's #5, #2, #4, ...

........................................................................
.............................. CYCLE   41 ..............................
........................................................................
   1    -87.1730876 -0.871731E+02  0.488E-04    1.88       0.0  T
   2    -87.1730876 -0.745973E-08  0.208E-04    1.88      70.8  T
   3    -87.1730876 -0.582276E-09  0.111E-04    1.88     132.4  T
   4    -87.1730876 -0.359677E-10  0.333E-05    1.88     442.4  T
     SCC iter.                  ...        0 min,  0.024 sec
     gradient                   ...        0 min,  0.064 sec
 * total energy  :   -86.3441629 Eh     change       -0.3441233E-05 Eh
   gradient norm :     0.0004802 Eh/α   predicted    -0.1299951E-05 ( -62.22%)
   displ. norm   :     0.1668208 α      lambda       -0.9871361E-05
   maximum displ.:     0.0992034 α      in ANC's #2, #5, #4, ...

   *** GEOMETRY OPTIMIZATION CONVERGED AFTER 41 ITERATIONS ***

------------------------------------------------------------------------
 total energy gain   :        -0.0542477 Eh      -34.0410 kcal/mol
 total RMSD          :         0.6409876 a0        0.3392 Å
 total power (kW/mol):        -3.4738386 (step)  -24.1080 (real)
------------------------------------------------------------------------

 ANCopt (total)                0 d,  0 h,  0 min,  5.908 sec
 optimizer setup                ...        0 min,  0.001 sec (  0.012%)
 model hessian                  ...        0 min,  0.048 sec (  0.810%)
 ANC generation                 ...        0 min,  0.007 sec (  0.116%)
 coordinate transformation      ...        0 min,  0.001 sec (  0.017%)
 single point calculation       ...        0 min,  5.834 sec ( 98.751%)
 optimization log               ...        0 min,  0.008 sec (  0.134%)
 hessian update                 ...        0 min,  0.001 sec (  0.016%)
 rational function              ...        0 min,  0.005 sec (  0.081%)

================
 final structure:
================
46
 xtb: 6.5.1 (579679a)
C           -4.43991854015317        3.65785822184603       -0.07206704785439
O           -3.47919993207346        2.58967707847277        0.03354289018212
C           -3.78354109046785        1.41461403696186       -0.37350857941728
O           -4.96061078079247        1.22757388524601       -0.86894094912729
C           -2.78987916575860        0.37304933928718       -0.25211387840239
N           -1.60569364895167        0.76713202395979        0.29875184426422
C           -0.63469352983486       -0.07450801491788        0.46184851013299
C            0.61368820000577        0.48409020865080        1.13109377776191
C            0.69387828401578       -0.05845622801612        2.56668242513409
C            0.53599413480726        2.01734294795344        1.16200779762404
N            1.77986465059138        0.09712574497478        0.33349110644223
C            3.05635253617879        0.37309013164018        0.71076930948661
O            3.39840739351923        0.79884262055426        1.79564499061951
C            3.99876115912157        0.04960406258865       -0.38719321162898
N            3.67424669705318       -0.35366056213028       -1.57976823970399
N            4.83750545610632       -0.52819643871886       -2.26438080959802
C            5.79937220325329       -0.21964608178231       -1.44576859718331
C            7.25457479409901       -0.24533919585961       -1.71069244054843
O            5.33150471665733        0.15520767771069       -0.24644603794694
N           -0.76119122189698       -1.38822293736129        0.09967704483132
C            0.27149426546597       -2.41785448269012        0.27718044381240
C           -1.91847745398537       -1.90702317774581       -0.46824920164073
O           -1.98170795491149       -3.08795395726871       -0.76369987528326
C           -2.99953563112049       -0.93451082381795       -0.65657870674433
O           -4.17114314029745       -1.26130737766477       -1.18881839586972
C           -4.49944244478655       -2.59618013992958       -1.62556127934995
H           -3.94097626528611        4.54632298824325        0.30741621183793
H           -5.31747969004297        3.41398145154995        0.52728876650245
H           -4.72734030399729        3.78350029556946       -1.11617472714386
H            0.89945156873351       -1.12580899538367        2.57753722924614
H            1.48017932841965        0.45682736726707        3.11510969287135
H           -0.25808132430177        0.12173570692572        3.06353903428788
H            1.44265603311932        2.41400127035746        1.61603232037951
H           -0.32559103279933        2.33293354858555        1.74656159416717
H            0.43855174759678        2.40749736690575        0.15077394173750
H            1.62615681661453       -0.07695018820788       -0.64868958671737
H            7.66044180161227        0.76501061217776       -1.65681868060811
H            7.75794981067916       -0.85187657315374       -0.95861339943775
H            7.43922394394574       -0.65779043114365       -2.69943359558233
H            1.18719121285616       -1.98580594288143        0.65965904267553
H           -0.11294918629105       -3.16987081179248        0.96613675758751
H            0.45373046940299       -2.88373948590496       -0.69129364766391
H           -5.13549703177044        0.30699612993625       -1.16533906303308
H           -3.81533973952179       -2.91512312159057       -2.41214288354403
H           -4.45777753206203       -3.28760161422883       -0.78340766572288
H           -5.51510958274878       -2.52658713517560       -2.00996923183129
 
 Bond Distances (Angstroems)
 ---------------------------
C1-O2=1.4405         C1-H27=1.0873        C1-H28=1.0903        C1-H29=1.0902        O2-C1=1.4405         O2-C3=1.2803         
C3-O2=1.2803         C3-O4=1.2907         C3-C5=1.4446         O4-C3=1.2907         O4-H43=0.9828        C5-C3=1.4446         
C5-N6=1.3642         C5-C24=1.3847        N6-C5=1.3642         N6-C7=1.2953         C7-N6=1.2953         C7-C8=1.5226         
C7-N20=1.3686        C8-C7=1.5226         C8-C9=1.5368         C8-C10=1.5355        C8-N11=1.4649        C9-C8=1.5368         
C9-H30=1.0870        C9-H31=1.0884        C9-H32=1.0888        C10-C8=1.5355        C10-H33=1.0888       C10-H34=1.0879       
C10-H35=1.0883       N11-C8=1.4649        N11-C12=1.3594       N11-H36=1.0093       C12-N11=1.3594       C12-O13=1.2146       
C12-C14=1.4827       O13-C12=1.2146       C14-C12=1.4827       C14-N15=1.3001       C14-O19=1.3443       N15-C14=1.3001       
N15-N16=1.3610       N16-N15=1.3610       N16-C17=1.3002       C17-N16=1.3002       C17-C18=1.4793       C17-O19=1.3408       
C18-C17=1.4793       C18-H37=1.0902       C18-H38=1.0894       C18-H39=1.0871       O19-C14=1.3443       O19-C17=1.3408       
N20-C7=1.3686        N20-C21=1.4690       N20-C22=1.3896       C21-N20=1.4690       C21-H40=1.0823       C21-H41=1.0899       
C21-H42=1.0900       C22-N20=1.3896       C22-O23=1.2190       C22-C24=1.4663       O23-C22=1.2190       C24-C5=1.3847        
C24-C22=1.4663       C24-O25=1.3277       O25-C24=1.3277       O25-C26=1.4424       C26-O25=1.4424       C26-H44=1.0902       
C26-H45=1.0904       C26-H46=1.0882       H27-C1=1.0873        H28-C1=1.0903        H29-C1=1.0902        H30-C9=1.0870        
H31-C9=1.0884        H32-C9=1.0888        H33-C10=1.0888       H34-C10=1.0879       H35-C10=1.0883       H36-N11=1.0093       
H37-C18=1.0902       H38-C18=1.0894       H39-C18=1.0871       H40-C21=1.0823       H41-C21=1.0899       H42-C21=1.0900       
H43-O4=0.9828        H44-C26=1.0902       H45-C26=1.0904       H46-C26=1.0882       
 C  H  Rav=1.0886 sigma=0.0019  Rmin=1.0823  Rmax=1.0904    18
 C  C  Rav=1.4816 sigma=0.0483  Rmin=1.3847  Rmax=1.5368     8
 N  H  Rav=1.0093 sigma=0.0000  Rmin=1.0093  Rmax=1.0093     1
 N  C  Rav=1.3679 sigma=0.0620  Rmin=1.2953  Rmax=1.4690     9
 N  N  Rav=1.3610 sigma=0.0000  Rmin=1.3610  Rmax=1.3610     1
 O  H  Rav=0.9828 sigma=0.0000  Rmin=0.9828  Rmax=0.9828     1
 O  C  Rav=1.3222 sigma=0.0777  Rmin=1.2146  Rmax=1.4424     9
 
 selected bond angles (degree)
 --------------------
H27-C1-O2=105.92               H28-C1-O2=109.31               H28-C1-H27=111.11              H29-C1-O2=109.36               
H29-C1-H27=111.16              H29-C1-H28=109.88              C3-O2-C1=119.92                O4-C3-O2=118.15                
C5-C3-O2=118.13                C5-C3-O4=123.71                H43-O4-C3=114.44               N6-C5-C3=115.01                
C24-C5-C3=123.51               C24-C5-N6=121.48               C7-N6-C5=120.92                C8-C7-N6=115.57                
N20-C7-N6=121.41               N20-C7-C8=122.97               C9-C8-C7=108.90                C10-C8-C7=109.49               
C10-C8-C9=109.65               N11-C8-C7=108.45               N11-C8-C9=111.95               N11-C8-C10=108.36              
H30-C9-C8=111.46               H31-C9-C8=109.95               H31-C9-H30=108.86              H32-C9-C8=108.80               
H32-C9-H30=108.86              H32-C9-H31=108.87              H33-C10-C8=109.27              H34-C10-C8=109.91              
H34-C10-H33=109.25             H35-C10-C8=110.11              H35-C10-H33=109.36             H35-C10-H34=108.93             
 
 selected dihedral angles (degree)
 ---------------------------------
C3-O2-C1-H27=181.58           C3-O2-C1-H28= 61.79           C3-O2-C1-H29=301.45           O4-C3-O2-C1=359.85            
C5-C3-O2-C1=179.86            H43-O4-C3-O2=179.90           H43-O4-C3-C5=359.89           N6-C5-C3-O2=  0.06            
N6-C5-C3-O4=180.06            C24-C5-C3-O2=180.03           C24-C5-C3-O4=  0.04           C7-N6-C5-C3=179.97            
C7-N6-C5-C24=  0.00           C8-C7-N6-C5=182.01            N20-C7-N6-C5=359.48           C9-C8-C7-N6=106.78            
C9-C8-C7-N20=289.36           C10-C8-C7-N6=346.89           C10-C8-C7-N20=169.47          N11-C8-C7-N6=228.83           
N11-C8-C7-N20= 51.42          H30-C9-C8-C7= 68.74           H30-C9-C8-C10=188.53          H30-C9-C8-N11=308.83          
H31-C9-C8-C7=189.55           H31-C9-C8-C10=309.34          H31-C9-C8-N11= 69.64          H32-C9-C8-C7=308.69           
H32-C9-C8-C10= 68.48          H32-C9-C8-N11=188.78          H33-C10-C8-C7=181.57          H33-C10-C8-C9= 62.14          
H33-C10-C8-N11=299.68         H34-C10-C8-C7= 61.69          H34-C10-C8-C9=302.27          H34-C10-C8-N11=179.80         
H35-C10-C8-C7=301.69          H35-C10-C8-C9=182.27          H35-C10-C8-N11= 59.80         
           -------------------------------------------------
          |                Final Singlepoint                |
           -------------------------------------------------

          ...................................................
          :                      SETUP                      :
          :.................................................:
          :  # basis functions                 144          :
          :  # atomic orbitals                 144          :
          :  # shells                           92          :
          :  # electrons                       140          :
          :  # halogen bonds                     0          :
          :  max. iterations                   250          :
          :  Hamiltonian                  GFN1-xTB          :
          :  restarted?                      false          :
          :  GBSA solvation                   true          :
          :  PC potential                    false          :
          :  electronic temp.          300.0000000     K    :
          :  accuracy                    1.0000000          :
          :  -> integral cutoff          0.2500000E+02      :
          :  -> integral neglect         0.1000000E-07      :
          :  -> SCF convergence          0.1000000E-05 Eh   :
          :  -> wf. convergence          0.2000000E-04 e    :
          :  Broyden damping             0.4000000          :
          ...................................................

 iter      E             dE          RMSdq      gap      omega  full diag
   1    -87.1730876 -0.871731E+02  0.972E-06    1.88       0.0  T
   2    -87.1730876 -0.150635E-11  0.487E-06    1.88    3029.0  T
   3    -87.1730876 -0.596856E-12  0.299E-06    1.88    4938.1  T

   *** convergence criteria satisfied after 3 iterations ***

         #    Occupation            Energy/Eh            Energy/eV
      -------------------------------------------------------------
         1        2.0000           -0.9131325             -24.8476
       ...           ...                  ...                  ...
        64        2.0000           -0.4865406             -13.2394
        65        2.0000           -0.4811639             -13.0931
        66        2.0000           -0.4732848             -12.8787
        67        2.0000           -0.4674867             -12.7210
        68        2.0000           -0.4601374             -12.5210
        69        2.0000           -0.4584263             -12.4744
        70        2.0000           -0.4540809             -12.3562 (HOMO)
        71                         -0.3851130             -10.4795 (LUMO)
        72                         -0.3193900              -8.6910
        73                         -0.3173053              -8.6343
        74                         -0.2918393              -7.9414
        75                         -0.2616623              -7.1202
       ...                                ...                  ...
       144                          0.7230059              19.6740
      -------------------------------------------------------------
                  HL-Gap            0.0689680 Eh            1.8767 eV
             Fermi-level           -0.4195969 Eh          -11.4178 eV

 SCC (total)                   0 d,  0 h,  0 min,  0.106 sec
 SCC setup                      ...        0 min,  0.002 sec (  1.734%)
 Dispersion                     ...        0 min,  0.000 sec (  0.250%)
 classical contributions        ...        0 min,  0.000 sec (  0.089%)
 integral evaluation            ...        0 min,  0.027 sec ( 25.142%)
 iterations                     ...        0 min,  0.018 sec ( 16.742%)
 molecular gradient             ...        0 min,  0.058 sec ( 54.712%)
 printout                       ...        0 min,  0.001 sec (  1.309%)

         :::::::::::::::::::::::::::::::::::::::::::::::::::::
         ::                     SUMMARY                     ::
         :::::::::::::::::::::::::::::::::::::::::::::::::::::
         :: total energy             -86.344162878361 Eh    ::
         :: total w/o Gsasa/hb       -86.318724064907 Eh    ::
         :: gradient norm              0.000481354311 Eh/a0 ::
         :: HOMO-LUMO gap              1.876713918055 eV    ::
         ::.................................................::
         :: SCC energy               -87.173087577413 Eh    ::
         :: -> electrostatic           0.387264262511 Eh    ::
         :: -> Gsolv                  -0.104067661887 Eh    ::
         ::    -> Gelec               -0.078628848433 Eh    ::
         ::    -> Gsasa               -0.026184467896 Eh    ::
         ::    -> Ghb                 -0.006878624563 Eh    ::
         ::    -> Gshift               0.007624279005 Eh    ::
         :: repulsion energy           0.857501985882 Eh    ::
         :: dispersion energy         -0.028577286830 Eh    ::
         :: halogen bond corr.         0.000000000000 Eh    ::
         :: add. restraining           0.000000000000 Eh    ::
         :: total charge               1.000000000000 e     ::
         :::::::::::::::::::::::::::::::::::::::::::::::::::::

           -------------------------------------------------
          |                Property Printout                |
           -------------------------------------------------

    * Orbital Energies and Occupations

         #    Occupation            Energy/Eh            Energy/eV
      -------------------------------------------------------------
         1        2.0000           -0.9131325             -24.8476
       ...           ...                  ...                  ...
        58        2.0000           -0.5262722             -14.3206
        59        2.0000           -0.5182713             -14.1029
        60        2.0000           -0.5129912             -13.9592
        61        2.0000           -0.5113522             -13.9146
        62        2.0000           -0.5029676             -13.6864
        63        2.0000           -0.4892731             -13.3138
        64        2.0000           -0.4865406             -13.2394
        65        2.0000           -0.4811639             -13.0931
        66        2.0000           -0.4732848             -12.8787
        67        2.0000           -0.4674867             -12.7210
        68        2.0000           -0.4601374             -12.5210
        69        2.0000           -0.4584263             -12.4744
        70        2.0000           -0.4540809             -12.3562 (HOMO)
        71                         -0.3851130             -10.4795 (LUMO)
        72                         -0.3193900              -8.6910
        73                         -0.3173053              -8.6343
        74                         -0.2918393              -7.9414
        75                         -0.2616623              -7.1202
        76                         -0.2071528              -5.6369
        77                         -0.2007229              -5.4619
        78                         -0.1667766              -4.5382
        79                         -0.1510109              -4.1092
        80                         -0.1478615              -4.0235
        81                         -0.1441544              -3.9226
       ...                                ...                  ...
       144                          0.7230059              19.6740
      -------------------------------------------------------------
                  HL-Gap            0.0689680 Eh            1.8767 eV
             Fermi-level           -0.4195969 Eh          -11.4178 eV

  Mulliken/CM5 charges         n(s)   n(p)   n(d)
     1C     0.15204  0.03024   0.996  2.852  0.000
     2O    -0.32793 -0.41458   1.662  4.666  0.000
     3C     0.58472  0.64355   0.976  2.439  0.000
     4O    -0.45420 -0.65167   1.683  4.771  0.000
     5C     0.08614  0.16387   1.020  2.894  0.000
     6N    -0.36341 -0.55262   1.518  3.845  0.000
     7C     0.28326  0.43533   1.027  2.690  0.000
     8C     0.15624  0.19613   1.066  2.778  0.000
     9C    -0.10599 -0.24656   1.022  3.084  0.000
    10C    -0.10299 -0.24057   1.020  3.083  0.000
    11N    -0.35613 -0.71468   1.438  3.918  0.000
    12C     0.47550  0.58232   0.977  2.547  0.000
    13O    -0.55582 -0.60235   1.724  4.832  0.000
    14C     0.33288  0.45833   1.005  2.662  0.000
    15N    -0.24064 -0.35195   1.568  3.673  0.000
    16N    -0.25926 -0.36645   1.564  3.696  0.000
    17C     0.39065  0.49880   1.009  2.600  0.000
    18C    -0.11139 -0.24883   1.012  3.099  0.000
    19O    -0.33527 -0.38696   1.690  4.645  0.000
    20N    -0.19920 -0.44825   1.457  3.742  0.000
    21C     0.04560 -0.04285   0.999  2.956  0.000
    22C     0.45001  0.55199   0.984  2.566  0.000
    23O    -0.54496 -0.59719   1.723  4.822  0.000
    24C     0.25571  0.29324   1.036  2.708  0.000
    25O    -0.39619 -0.50007   1.677  4.719  0.000
    26C     0.15922  0.03689   0.993  2.847  0.000
    27H     0.08645  0.14692   0.914  0.000  0.000
    28H     0.08367  0.14579   0.916  0.000  0.000
    29H     0.08308  0.14554   0.917  0.000  0.000
    30H     0.05168  0.10984   0.948  0.000  0.000
    31H     0.07419  0.13477   0.926  0.000  0.000
    32H     0.04998  0.10532   0.950  0.000  0.000
    33H     0.06366  0.12338   0.936  0.000  0.000
    34H     0.04898  0.10782   0.951  0.000  0.000
    35H     0.04702  0.10636   0.953  0.000  0.000
    36H     0.25400  0.46286   0.746  0.000  0.000
    37H     0.08136  0.13571   0.919  0.000  0.000
    38H     0.08068  0.13535   0.919  0.000  0.000
    39H     0.07134  0.12715   0.929  0.000  0.000
    40H     0.06472  0.13980   0.935  0.000  0.000
    41H     0.08358  0.14931   0.916  0.000  0.000
    42H     0.08414  0.15128   0.916  0.000  0.000
    43H     0.45400  0.64142   0.546  0.000  0.000
    44H     0.07345  0.13687   0.927  0.000  0.000
    45H     0.07363  0.13692   0.926  0.000  0.000
    46H     0.07183  0.13248   0.928  0.000  0.000

Wiberg/Mayer (AO) data.
largest (>0.10) Wiberg bond orders for each atom

 ---------------------------------------------------------------------------
     #   Z sym  total        # sym  WBO       # sym  WBO       # sym  WBO
 ---------------------------------------------------------------------------
     1   6 C    3.820 --    27 H    0.982    29 H    0.972    28 H    0.972
                             2 O    0.851
     2   8 O    2.319 --     3 C    1.287     1 C    0.851
     3   6 C    3.812 --     2 O    1.287     4 O    1.251     5 C    1.119
     4   8 O    2.196 --     3 C    1.251    43 H    0.744
     5   6 C    3.958 --    24 C    1.399     6 N    1.180     3 C    1.119
     6   7 N    3.028 --     7 C    1.561     5 C    1.180
     7   6 C    3.921 --     6 N    1.561    20 N    1.182     8 C    0.977
     8   6 C    3.933 --    10 C    0.989     9 C    0.977     7 C    0.977
                            11 N    0.927
     9   6 C    3.985 --    32 H    0.984    30 H    0.980     8 C    0.977
                            31 H    0.975
    10   6 C    3.988 --     8 C    0.989    35 H    0.985    34 H    0.984
                            33 H    0.981
    11   7 N    3.323 --    12 C    1.216     8 C    0.927    36 H    0.895
                            13 O    0.168
    12   6 C    3.913 --    13 O    1.615    11 N    1.216    14 C    0.993
    13   8 O    1.928 --    12 C    1.615    11 N    0.168
    14   6 C    3.878 --    15 N    1.605    19 O    1.066    12 C    0.993
    15   7 N    3.020 --    14 C    1.605    16 N    1.205
    16   7 N    2.981 --    17 C    1.599    15 N    1.205
    17   6 C    3.869 --    16 N    1.599    19 O    1.084    18 C    1.032
    18   6 C    3.985 --    17 C    1.032    39 H    0.982    38 H    0.965
                            37 H    0.960
    19   8 O    2.334 --    17 C    1.084    14 C    1.066
    20   7 N    3.523 --     7 C    1.182    22 C    1.127    21 C    0.919
                            23 O    0.143
    21   6 C    3.906 --    40 H    0.976    42 H    0.972    41 H    0.971
                            20 N    0.919
    22   6 C    3.919 --    23 O    1.594    20 N    1.127    24 C    1.055
    23   8 O    1.939 --    22 C    1.594    20 N    0.143
    24   6 C    3.908 --     5 C    1.399    25 O    1.134    22 C    1.055
    25   8 O    2.248 --    24 C    1.134    26 C    0.855
    26   6 C    3.829 --    46 H    0.983    44 H    0.974    45 H    0.974
                            25 O    0.855
    27   1 H    1.002 --     1 C    0.982
    28   1 H    0.996 --     1 C    0.972
    29   1 H    0.997 --     1 C    0.972
    30   1 H    1.000 --     9 C    0.980
    31   1 H    1.009 --     9 C    0.975
    32   1 H    1.000 --     9 C    0.984
    33   1 H    1.004 --    10 C    0.981
    34   1 H    1.009 --    10 C    0.984
    35   1 H    1.005 --    10 C    0.985
    36   1 H    0.951 --    11 N    0.895
    37   1 H    0.996 --    18 C    0.960
    38   1 H    0.996 --    18 C    0.965
    39   1 H    0.998 --    18 C    0.982
    40   1 H    1.008 --    21 C    0.976
    41   1 H    0.999 --    21 C    0.971
    42   1 H    1.000 --    21 C    0.972
    43   1 H    0.807 --     4 O    0.744
    44   1 H    1.008 --    26 C    0.974
    45   1 H    1.007 --    26 C    0.974
    46   1 H    1.005 --    26 C    0.983
 ---------------------------------------------------------------------------

Topologies differ in total number of bonds
Writing topology from bond orders to xtbtopo.mol

 dipole moment from electron density (au)
     X       Y       Z   
  -5.6447   0.5650  -1.4808  total (Debye):   14.902

           -------------------------------------------------
          |                Geometry Summary                 |
           -------------------------------------------------

      molecular mass/u    :      366.3497991
   center of mass at/Å    :        0.0760712      -0.0351297      -0.1938342
  moments of inertia/u·Å² :        0.1392724E+04   0.5173598E+04   0.5776631E+04
rotational constants/cm⁻¹ :        0.1210408E-01   0.3258396E-02   0.2918246E-02

 * 42 selected distances

     #   Z          #   Z                                           value/Å
     1   6 C        2   8 O                                       1.4405364
     2   8 O        3   6 C                                       1.2802687
     3   6 C        4   8 O                                       1.2907093
     5   6 C        6   7 N                                       1.3642030
     6   7 N        7   6 C                                       1.2952992
     8   6 C        9   6 C                                       1.5367831 (max)
     8   6 C       10   6 C                                       1.5355313
     8   6 C       11   7 N                                       1.4648821
    11   7 N       12   6 C                                       1.3593811
    12   6 C       13   8 O                                       1.2145873
    14   6 C       15   7 N                                       1.3000644
    16   7 N       17   6 C                                       1.3001989
    17   6 C       18   6 C                                       1.4793444
    14   6 C       19   8 O                                       1.3443093
    17   6 C       19   8 O                                       1.3408170
     7   6 C       20   7 N                                       1.3685821
    20   7 N       21   6 C                                       1.4690433
    20   7 N       22   6 C                                       1.3896063
    22   6 C       23   8 O                                       1.2189696
     5   6 C       24   6 C                                       1.3846521
    24   6 C       25   8 O                                       1.3276820
    25   8 O       26   6 C                                       1.4423628
     1   6 C       27   1 H                                       1.0873458
     1   6 C       28   1 H                                       1.0903289
     1   6 C       29   1 H                                       1.0902102
     9   6 C       30   1 H                                       1.0870236
     9   6 C       31   1 H                                       1.0883746
     9   6 C       32   1 H                                       1.0888356
    10   6 C       33   1 H                                       1.0888122
    10   6 C       34   1 H                                       1.0879475
    10   6 C       35   1 H                                       1.0882599
    11   7 N       36   1 H                                       1.0092609
    18   6 C       37   1 H                                       1.0901547
    18   6 C       38   1 H                                       1.0894481
    18   6 C       39   1 H                                       1.0871157
    21   6 C       40   1 H                                       1.0823386
    21   6 C       41   1 H                                       1.0899479
    21   6 C       42   1 H                                       1.0900464
     4   8 O       43   1 H                                       0.9828024 (min)
    26   6 C       44   1 H                                       1.0901523
    26   6 C       45   1 H                                       1.0904231
    26   6 C       46   1 H                                       1.0882061

 * 6 distinct bonds (by element types)

   Z      Z             #   av. dist./Å        max./Å        min./Å
   1 H    6 C          18     1.0886095     1.0904231     1.0823386
   6 C    6 C           4     1.4840777     1.5367831     1.3846521
   1 H    7 N           1     1.0092609     1.0092609     1.0092609
   6 C    7 N           9     1.3679178     1.4690433     1.2952992
   1 H    8 O           1     0.9828024     0.9828024     0.9828024
   6 C    8 O           9     1.3222492     1.4423628     1.2145873


optimized geometry written to: xtbopt.xyz


           -------------------------------------------------
          | TOTAL ENERGY              -86.344162878361 Eh   |
          | GRADIENT NORM               0.000481354311 Eh/α |
          | HOMO-LUMO GAP               1.876713918055 eV   |
           -------------------------------------------------

------------------------------------------------------------------------
 * finished run on 2023/06/20 at 15:38:54.790     
------------------------------------------------------------------------
 total:
 * wall-time:     0 d,  0 h,  0 min,  6.296 sec
 *  cpu-time:     0 d,  0 h,  0 min,  6.231 sec
 * ratio c/w:     0.990 speedup
 SCF:
 * wall-time:     0 d,  0 h,  0 min,  0.184 sec
 *  cpu-time:     0 d,  0 h,  0 min,  0.184 sec
 * ratio c/w:     0.997 speedup
 ANC optimizer:
 * wall-time:     0 d,  0 h,  0 min,  6.020 sec
 *  cpu-time:     0 d,  0 h,  0 min,  6.004 sec
 * ratio c/w:     0.997 speedup

